INSANE! Membrane UpperLeaflet>loPI:POPI:DPPI:PYPI:ERGO=30.0:5.0:3.0:2.0:10.0 LowerLeaflet>PSPI:POPI:POPS:YOPS:POPE:YOPE:POPC:YOPC:ERGO=6.0:14.0:21.0:9.0:9.0:21.0:12.0:48.0:60.0
49074
    1loPI    C1    1  15.088   1.289  10.057 -0.1100  0.1066 -0.3646
    1loPI    C2    2  14.690   1.306  10.087 -0.0940 -0.0557 -0.0098
    1loPI    C3    3  14.917   1.341  10.415  0.1810 -0.0592 -0.1968
    1loPI   PO4    4  15.132   1.487   9.887 -0.1814  0.2456 -0.0763
    1loPI   GL1    5  14.799   1.349   9.530 -0.3037 -0.1128 -0.1750
    1loPI   GL2    6  14.656   1.163   9.312 -0.1159  0.0717 -0.0295
    1loPI   C1A    7  14.551   1.657   9.303 -0.3250  0.0661  0.0244
    1loPI   C2A    8  14.590   1.941   9.085  0.0932  0.1220 -0.1736
    1loPI   C3A    9  14.742   2.084   8.735 -0.2775  0.1876 -0.0631
    1loPI   C4A   10  14.779   1.885   8.378  0.0094 -0.1774 -0.0071
    1loPI   C5A   11  14.833   1.934   7.815  0.0986 -0.0497 -0.1718
    1loPI   C6A   12  15.101   2.065   7.497  0.0371 -0.2442 -0.1597
    1loPI   C1B   13  14.602   1.339   8.894 -0.1604 -0.1440 -0.2750
    1loPI   C2B   14  14.663   1.390   8.456 -0.1449 -0.1928 -0.2034
    1loPI   C3B   15  14.586   1.382   8.115  0.0358  0.1579 -0.0108
    1loPI   C4B   16  14.780   1.434   7.815  0.0184 -0.0878 -0.2061
    2loPI    C1   17  13.353   4.093  10.260 -0.2960 -0.0667  0.1215
    2loPI    C2   18  13.027   4.015  10.477 -0.3083  0.0953  0.1627
    2loPI    C3   19  13.231   4.353  10.538 -0.0501 -0.0706  0.2364
    2loPI   PO4   20  13.300   3.969  10.013  0.1165 -0.2609 -0.1296
    2loPI   GL1   21  13.249   4.119   9.698 -0.1988 -0.2074  0.0607
    2loPI   GL2   22  13.019   4.274   9.538  0.0800  0.0900 -0.4059
    2loPI   C1A   23  13.303   4.023   9.251 -0.0041 -0.4110  0.3370
    2loPI   C2A   24  13.229   4.129   8.760  0.1040  0.1725  0.0895
    2loPI   C3A   25  13.105   4.041   8.347 -0.2201  0.0361 -0.0040
    2loPI   C4A   26  12.914   4.242   7.915  0.3273  0.0702 -0.3790
    2loPI   C5A   27  12.634   3.982   7.770  0.0363  0.0594 -0.1414
    2loPI   C6A   28  12.207   3.762   7.652  0.0725  0.2316  0.2012
    2loPI   C1B   29  12.700   4.223   9.174 -0.0916 -0.3245  0.1294
    2loPI   C2B   30  12.754   4.216   8.771 -0.1825 -0.0043  0.1344
    2loPI   C3B   31  12.842   4.471   8.352  0.5180 -0.1479  0.1587
    2loPI   C4B   32  12.613   4.662   8.104 -0.1621 -0.0518  0.2989
    3loPI    C1   33   2.315   2.740   9.875 -0.1123  0.3057  0.1053
    3loPI    C2   34   2.479   3.049  10.068  0.0931  0.0869  0.2867
    3loPI    C3   35   2.542   2.676  10.197  0.0085 -0.0456 -0.0450
    3loPI   PO4   36   2.331   2.741   9.639 -0.3164  0.0908  0.1785
    3loPI   GL1   37   2.202   2.915   9.296  0.3384  0.2133  0.3143
    3loPI   GL2   38   2.220   3.155   9.162  0.4045 -0.1990 -0.0409
    3loPI   C1A   39   2.051   2.629   8.944 -0.1604  0.0654 -0.1800
    3loPI   C2A   40   2.174   2.537   8.481 -0.1677  0.1275 -0.1098
    3loPI   C3A   41   2.282   2.208   8.149  0.0642 -0.1361 -0.1025
    3loPI   C4A   42   2.375   1.835   7.789 -0.0852  0.0479 -0.0934
    3loPI   C5A   43   2.096   1.567   7.792 -0.0831 -0.0629  0.3464
    3loPI   C6A   44   1.804   1.422   7.393  0.0312 -0.1089 -0.4397
    3loPI   C1B   45   2.116   3.509   8.832 -0.0047  0.0539  0.0540
    3loPI   C2B   46   2.174   3.501   8.339 -0.1866  0.1344 -0.0563
    3loPI   C3B   47   1.931   3.716   7.943  0.0074  0.1630 -0.2308
    3loPI   C4B   48   2.065   3.690   7.504 -0.0896  0.3663  0.1481
    4loPI    C1   49  13.217  12.891  10.362  0.1279  0.2601  0.0154
    4loPI    C2   50  13.258  13.284  10.423 -0.1704  0.2745  0.1426
    4loPI    C3   51  13.067  13.058  10.692 -0.2525  0.0911 -0.0658
    4loPI   PO4   52  13.123  12.882  10.125 -0.0582  0.1334 -0.2080
    4loPI   GL1   53  12.851  13.113   9.761 -0.4135 -0.1041 -0.0813
    4loPI   GL2   54  12.613  13.097   9.436 -0.2476 -0.3087  0.0604
    4loPI   C1A   55  13.068  13.370   9.419  0.0841  0.0020 -0.0696
    4loPI   C2A   56  12.822  13.423   9.093  0.0473 -0.0825  0.1198
    4loPI   C3A   57  12.563  13.307   8.882 -0.1813 -0.1774  0.0995
    4loPI   C4A   58  12.610  13.476   8.469  0.1058  0.1337 -0.0287
    4loPI   C5A   59  12.691  13.679   8.118  0.4052 -0.2838 -0.0754
    4loPI   C6A   60  12.765  13.631   7.710 -0.0961 -0.0783  0.1043
    4loPI   C1B   61  12.522  12.813   8.984 -0.0905 -0.1310 -0.2536
    4loPI   C2B   62  12.394  12.750   8.497 -0.2164 -0.0870 -0.1350
    4loPI   C3B   63  12.230  12.719   8.000 -0.2477  0.0006  0.3787
    4loPI   C4B   64  12.241  12.834   7.599  0.1839 -0.1460  0.1224
    5loPI    C1   65   9.606   1.021  10.282 -0.0521  0.2670  0.0610
    5loPI    C2   66   9.368   0.699  10.276  0.2996  0.0026 -0.1300
    5loPI    C3   67   9.297   0.996  10.535  0.0310 -0.2736  0.1219
    5loPI   PO4   68   9.579   1.130   9.996  0.1091 -0.1570  0.2992
    5loPI   GL1   69   9.813   1.012   9.619  0.6808 -0.1471 -0.0244
    5loPI   GL2   70   9.565   0.923   9.444 -0.0611  0.1177 -0.3095
    5loPI   C1A   71  10.076   1.035   9.284  0.1346 -0.2553 -0.1902
    5loPI   C2A   72  10.253   1.034   8.952 -0.2144  0.4177  0.2265
    5loPI   C3A   73  10.505   1.208   8.648 -0.1981  0.2333 -0.0460
    5loPI   C4A   74  10.651   1.232   8.160 -0.1565  0.0384  0.2220
    5loPI   C5A   75  10.649   1.193   7.713  0.2106  0.0233  0.2713
    5loPI   C6A   76  10.727   0.854   7.599  0.0306  0.0152 -0.1305
    5loPI   C1B   77   9.681   0.789   9.109 -0.0867 -0.2606  0.0721
    5loPI   C2B   78   9.764   0.974   8.713 -0.0162  0.0948 -0.0195
    5loPI   C3B   79  10.117   1.050   8.459 -0.0455  0.2253  0.1657
    5loPI   C4B   80  10.165   1.320   8.063  0.5479 -0.1510  0.1058
    6loPI    C1   81  12.640   2.013  10.261 -0.2126 -0.0501  0.1154
    6loPI    C2   82  12.550   1.715  10.010 -0.0191 -0.0752  0.0748
    6loPI    C3   83  12.416   1.707  10.387 -0.2122 -0.0955  0.0063
    6loPI   PO4   84  12.840   2.205  10.004  0.0409 -0.0436  0.1037
    6loPI   GL1   85  13.147   2.350   9.717 -0.1162 -0.0911  0.3420
    6loPI   GL2   86  13.057   2.656   9.673 -0.1286 -0.0775  0.0614
    6loPI   C1A   87  13.343   2.294   9.339  0.2128 -0.0697 -0.1219
    6loPI   C2A   88  13.299   2.416   8.910  0.1240  0.4095  0.1792
    6loPI   C3A   89  13.300   2.498   8.501  0.3081  0.0018  0.3094
    6loPI   C4A   90  13.185   2.532   8.039  0.1174  0.0155 -0.0156
    6loPI   C5A   91  12.958   2.351   7.729 -0.0692  0.0534 -0.2918
    6loPI   C6A   92  12.951   2.149   7.425  0.3985 -0.2076 -0.1091
    6loPI   C1B   93  12.990   2.669   9.191  0.1590 -0.0279 -0.0730
    6loPI   C2B   94  12.947   2.782   8.709 -0.0025 -0.4206 -0.0065
    6loPI   C3B   95  12.904   2.926   8.291  0.1674  0.1626  0.0735
    6loPI   C4B   96  12.780   2.817   7.801  0.0494 -0.1141 -0.1491
    7loPI    C1   97  13.603   5.698  10.392 -0.1411  0.0572 -0.2439
    7loPI    C2   98  13.351   5.990  10.284 -0.2303  0.0391 -0.0877
    7loPI    C3   99  13.429   5.925  10.671 -0.0194  0.0148 -0.1326
    7loPI   PO4  100  13.822   5.831  10.182 -0.0849  0.0879  0.2116
    7loPI   GL1  101  13.794   5.983   9.789 -0.1844  0.2195 -0.0278
    7loPI   GL2  102  13.537   6.043   9.836  0.4332 -0.0449  0.0954
    7loPI   C1A  103  13.670   6.023   9.318  0.0413  0.0995 -0.0729
    7loPI   C2A  104  13.447   6.052   8.892  0.1518 -0.0479  0.0468
    7loPI   C3A  105  13.376   6.020   8.485 -0.3658 -0.1064  0.0765
    7loPI   C4A  106  13.296   5.785   8.103 -0.0802 -0.1286  0.0466
    7loPI   C5A  107  13.461   5.761   7.648  0.0730  0.2011 -0.0072
    7loPI   C6A  108  13.649   5.480   7.357  0.1304  0.2289 -0.0997
    7loPI   C1B  109  13.550   6.432   9.530  0.0969  0.2043  0.1113
    7loPI   C2B  110  13.408   6.525   9.209  0.0976 -0.1158  0.1676
    7loPI   C3B  111  13.303   6.497   8.762 -0.1273  0.1273 -0.1257
    7loPI   C4B  112  13.032   6.354   8.426  0.0456 -0.1092 -0.3891
    8loPI    C1  113   1.854  15.340  10.412 -0.0512  0.3266  0.0035
    8loPI    C2  114   2.064  15.488  10.719  0.0326 -0.0281  0.1215
    8loPI    C3  115   1.753  15.246  10.788  0.0047 -0.0485 -0.0723
    8loPI   PO4  116   1.975  15.190  10.227  0.1711  0.4386  0.2373
    8loPI   GL1  117   1.869  15.042   9.751 -0.3299 -0.1204  0.4366
    8loPI   GL2  118   2.081  14.820   9.761  0.0457  0.2968  0.1298
    8loPI   C1A  119   2.163  15.173   9.408  0.3547 -0.0887  0.3264
    8loPI   C2A  120   2.321  15.085   8.954 -0.1815 -0.1414  0.2569
    8loPI   C3A  121   2.321  15.093   8.517  0.0563  0.0656 -0.1563
    8loPI   C4A  122   2.408  15.331   8.148  0.0714 -0.0783  0.1771
    8loPI   C5A  123   2.371  15.377   7.683  0.1206 -0.1121 -0.0610
    8loPI   C6A  124   2.522  15.671   7.404 -0.3810  0.3913 -0.2990
    8loPI   C1B  125   2.035  14.761   9.236 -0.1020  0.1170 -0.1688
    8loPI   C2B  126   1.817  14.672   8.888 -0.0362 -0.0864  0.0885
    8loPI   C3B  127   1.903  14.689   8.462  0.3002 -0.1019  0.2240
    8loPI   C4B  128   2.093  14.925   8.125 -0.2690 -0.1695 -0.1549
    9loPI    C1  129   4.553   8.661  11.138 -0.3222 -0.1009 -0.1034
    9loPI    C2  130   4.326   8.339  11.208 -0.0327 -0.2353  0.2508
    9loPI    C3  131   4.425   8.583  11.509  0.0569 -0.0191  0.0492
    9loPI   PO4  132   4.802   8.453  10.954  0.3323  0.0665  0.1971
    9loPI   GL1  133   4.846   8.546  10.481 -0.4654  0.1370 -0.3879
    9loPI   GL2  134   4.787   8.270  10.316  0.1319 -0.1999  0.0130
    9loPI   C1A  135   4.922   8.813  10.018 -0.1838  0.0214  0.3573
    9loPI   C2A  136   4.675   8.952   9.662  0.1421 -0.2528 -0.2883
    9loPI   C3A  137   4.850   8.911   9.244 -0.1813 -0.3126 -0.3526
    9loPI   C4A  138   4.654   8.912   8.867 -0.1073  0.1223  0.1717
    9loPI   C5A  139   4.483   8.765   8.389 -0.0060 -0.0552 -0.1988
    9loPI   C6A  140   4.407   8.597   8.073  0.1113 -0.3965 -0.4219
    9loPI   C1B  141   4.592   8.329  10.011  0.3325  0.2107 -0.2229
    9loPI   C2B  142   4.641   8.481   9.626  0.0082  0.0026  0.0104
    9loPI   C3B  143   4.525   8.547   9.233  0.0136  0.2333 -0.0885
    9loPI   C4B  144   4.310   8.575   8.889 -0.2521 -0.0262 -0.0143
   10loPI    C1  145  14.087  17.121  10.119 -0.0261 -0.2661 -0.0663
   10loPI    C2  146  14.079  17.009  10.503  0.0362 -0.2489 -0.0598
   10loPI    C3  147  13.739  17.109  10.316  0.0420  0.0391  0.0790
   10loPI   PO4  148  14.244  16.922   9.978  0.1541  0.0292  0.0537
   10loPI   GL1  149  14.187  16.809   9.578 -0.1893 -0.1853 -0.2256
   10loPI   GL2  150  13.822  16.903   9.737  0.2926 -0.1789 -0.0877
   10loPI   C1A  151  14.193  16.757   9.153  0.1050  0.2777 -0.3313
   10loPI   C2A  152  14.423  16.852   8.700  0.0791  0.4916  0.1993
   10loPI   C3A  153  14.406  16.758   8.253  0.0199 -0.1898  0.0862
   10loPI   C4A  154  14.467  16.644   7.828 -0.2785  0.0895 -0.2750
   10loPI   C5A  155  14.286  16.885   7.569  0.0205  0.0154  0.1073
   10loPI   C6A  156  14.039  16.840   7.206 -0.2292  0.1553  0.3488
   10loPI   C1B  157  13.701  16.890   9.269  0.3359 -0.0423 -0.1328
   10loPI   C2B  158  13.741  16.646   8.895 -0.0169 -0.3238 -0.4121
   10loPI   C3B  159  13.966  16.659   8.595 -0.3898  0.1238  0.0364
   10loPI   C4B  160  13.933  16.794   8.141 -0.0404 -0.2950 -0.3243
   11loPI    C1  161   7.267  15.564  10.426 -0.2862  0.0177 -0.1169
   11loPI    C2  162   7.250  15.351  10.087 -0.2146  0.0479 -0.1397
   11loPI    C3  163   7.108  15.197  10.428  0.2409 -0.2196 -0.0639
   11loPI   PO4  164   7.479  15.701  10.345 -0.2327  0.1546 -0.1368
   11loPI   GL1  165   7.692  15.653   9.971 -0.0665  0.0702 -0.1142
   11loPI   GL2  166   7.981  15.671   9.973 -0.2068 -0.0948  0.0297
   11loPI   C1A  167   7.390  15.696   9.607  0.0852  0.1367 -0.1578
   11loPI   C2A  168   7.184  15.904   9.257 -0.0264 -0.1081 -0.2010
   11loPI   C3A  169   7.224  15.756   8.784 -0.1112  0.0041  0.1320
   11loPI   C4A  170   7.343  15.640   8.315  0.3300 -0.0054 -0.1100
   11loPI   C5A  171   7.302  15.756   8.020  0.0737 -0.1588 -0.1105
   11loPI   C6A  172   7.038  15.910   7.783  0.2975 -0.1725  0.1356
   11loPI   C1B  173   7.956  15.515   9.547 -0.1226 -0.0508 -0.2605
   11loPI   C2B  174   7.771  15.489   9.101 -0.0645 -0.1815  0.1230
   11loPI   C3B  175   7.697  15.590   8.717 -0.1359 -0.3476  0.1959
   11loPI   C4B  176   7.925  15.534   8.373  0.0509  0.0033 -0.0177
   12loPI    C1  177  12.019  17.932  10.012 -0.1076  0.0854 -0.0302
   12loPI    C2  178  11.803  17.658   9.816 -0.1289  0.0479  0.0449
   12loPI    C3  179  11.925  17.586  10.190 -0.2399  0.1919  0.1097
   12loPI   PO4  180  12.194  18.011   9.837  0.0778  0.2640  0.0897
   12loPI   GL1  181  12.217  18.183   9.489 -0.2240  0.3012 -0.0902
   12loPI   GL2  182  11.861  18.012   9.492 -0.3828  0.2104 -0.0644
   12loPI   C1A  183  12.346  17.886   9.151 -0.4414 -0.0132  0.1077
   12loPI   C2A  184  12.343  17.825   8.755 -0.0816 -0.0023  0.2436
   12loPI   C3A  185  12.277  17.527   8.465 -0.1155  0.1999  0.2062
   12loPI   C4A  186  12.023  17.608   8.099 -0.1545  0.4394 -0.0429
   12loPI   C5A  187  12.079  17.817   7.813 -0.0682  0.1206 -0.1959
   12loPI   C6A  188  12.380  18.212   7.833  0.4007  0.0717  0.0868
   12loPI   C1B  189  11.573  18.000   9.076  0.0834 -0.0271  0.1230
   12loPI   C2B  190  11.464  17.909   8.660 -0.0020  0.0385 -0.2499
   12loPI   C3B  191  11.404  17.828   8.265  0.3319 -0.0277  0.1133
   12loPI   C4B  192  11.190  17.795   8.032 -0.1748  0.1141 -0.0837
   13loPI    C1  193  17.550   0.843   9.879 -0.3976  0.0317  0.0041
   13loPI    C2  194  17.410   1.173  10.056 -0.2252  0.1211 -0.0240
   13loPI    C3  195  17.603   0.897  10.272 -0.2057  0.1272 -0.0336
   13loPI   PO4  196  17.428   0.889   9.640  0.0074 -0.0523  0.1830
   13loPI   GL1  197  17.522   1.035   9.298  0.1728 -0.0631 -0.1063
   13loPI   GL2  198  17.366   1.268   9.243  0.1435  0.0291  0.3354
   13loPI   C1A  199  17.648   0.973   8.864 -0.2225 -0.4139  0.3258
   13loPI   C2A  200  17.559   1.061   8.416 -0.2493  0.0212 -0.1088
   13loPI   C3A  201  17.311   1.143   7.957  0.0400  0.0210 -0.0401
   13loPI   C4A  202  17.142   1.389   7.515  0.2123  0.1370 -0.5223
   13loPI   C5A  203  17.191   1.545   7.168 -0.1389 -0.1151  0.2797
   13loPI   C6A  204  17.384   1.654   6.760 -0.1548  0.2557  0.1189
   13loPI   C1B  205  17.134   1.203   8.833 -0.0930  0.1018 -0.0603
   13loPI   C2B  206  16.965   1.235   8.333 -0.0838 -0.2624 -0.1415
   13loPI   C3B  207  16.726   1.378   7.908 -0.0640  0.0834  0.0226
   13loPI   C4B  208  16.417   1.608   7.644  0.0321  0.0479 -0.0251
   14loPI    C1  209  17.442   8.216  10.600 -0.0633  0.2280  0.1146
   14loPI    C2  210  17.448   7.928  10.877 -0.0796  0.0415 -0.0763
   14loPI    C3  211  17.126   8.162  10.839 -0.2072 -0.1429 -0.1491
   14loPI   PO4  212  17.372   8.161  10.276 -0.3580 -0.1892  0.1769
   14loPI   GL1  213  17.320   8.323   9.862  0.0089 -0.0507 -0.0024
   14loPI   GL2  214  17.410   8.592   9.889  0.2210 -0.0615  0.1024
   14loPI   C1A  215  17.639   8.211   9.514 -0.0293 -0.2133 -0.1286
   14loPI   C2A  216  17.695   7.969   9.075 -0.0021 -0.0025 -0.5044
   14loPI   C3A  217  17.851   7.824   8.767  0.1011  0.0025 -0.3469
   14loPI   C4A  218  18.143   7.674   8.376  0.0383 -0.2657 -0.1877
   14loPI   C5A  219  18.036   7.450   7.939 -0.1864  0.3715 -0.1634
   14loPI   C6A  220  17.918   7.227   7.604 -0.0669  0.0303  0.3137
   14loPI   C1B  221  17.289   8.640   9.396  0.0151  0.1609 -0.0289
   14loPI   C2B  222  16.923   8.575   9.139 -0.2619 -0.4563  0.1272
   14loPI   C3B  223  16.684   8.470   8.842 -0.2386  0.1173  0.1837
   14loPI   C4B  224  16.522   8.328   8.493  0.0343  0.0547  0.0754
   15loPI    C1  225  10.547  18.149  10.409  0.1661  0.1739 -0.0150
   15loPI    C2  226  10.319  18.217  10.731  0.0535  0.0938 -0.0775
   15loPI    C3  227  10.656  18.006  10.767 -0.0849 -0.1275 -0.0545
   15loPI   PO4  228  10.271  18.313  10.213 -0.4661  0.4071 -0.0511
   15loPI   GL1  229  10.304  18.593   9.774  0.2155 -0.1475  0.1525
   15loPI   GL2  230  10.180  18.324   9.617 -0.1535 -0.2830 -0.0667
   15loPI   C1A  231  10.632  18.688   9.448  0.1524  0.2108  0.1446
   15loPI   C2A  232  10.497  18.803   9.045 -0.1441  0.2539 -0.4356
   15loPI   C3A  233  10.490  18.874   8.624 -0.0068 -0.0937  0.0794
   15loPI   C4A  234  10.452  18.909   8.237 -0.1274 -0.0228  0.0252
   15loPI   C5A  235  10.302  18.635   7.917 -0.1587  0.2837 -0.1383
   15loPI   C6A  236   9.964  18.622   7.704 -0.0885  0.2639  0.1932
   15loPI   C1B  237  10.397  18.289   9.241  0.1195 -0.0782 -0.0148
   15loPI   C2B  238  10.495  18.334   8.834  0.2518 -0.0058  0.3811
   15loPI   C3B  239  10.515  18.321   8.389 -0.3935 -0.1584 -0.3122
   15loPI   C4B  240  10.663  17.935   8.114  0.1792  0.2399  0.0062
   16loPI    C1  241   2.941  10.719  10.620  0.0237  0.1563 -0.0099
   16loPI    C2  242   3.249  10.778  10.370  0.0777 -0.2169 -0.0376
   16loPI    C3  243   3.314  10.637  10.739 -0.0531 -0.2156 -0.0133
   16loPI   PO4  244   2.709  10.589  10.462 -0.1473  0.2159  0.2252
   16loPI   GL1  245   2.728  10.302   9.866  0.0476  0.0348  0.0810
   16loPI   GL2  246   3.067  10.341   9.824  0.1365  0.0048  0.0551
   16loPI   C1A  247   2.773  10.103   9.384  0.0559 -0.0626 -0.1921
   16loPI   C2A  248   3.061  10.145   9.005 -0.1167  0.0981  0.1968
   16loPI   C3A  249   3.336  10.033   8.682 -0.0454 -0.2741 -0.0679
   16loPI   C4A  250   3.605   9.698   8.442  0.2124  0.1494 -0.2287
   16loPI   C5A  251   3.920   9.427   8.317  0.5004  0.3448  0.0604
   16loPI   C6A  252   4.125   9.029   8.213  0.2606  0.1307 -0.0359
   16loPI   C1B  253   3.232  10.257   9.393 -0.1467  0.0656 -0.2670
   16loPI   C2B  254   3.116  10.660   9.191  0.2466  0.1861 -0.3909
   16loPI   C3B  255   2.805  10.720   8.893  0.0328 -0.1522 -0.0436
   16loPI   C4B  256   2.739  10.538   8.476  0.0290 -0.1221  0.0514
   17loPI    C1  257   7.811   4.226  10.263  0.2609  0.0682  0.0424
   17loPI    C2  258   7.658   4.085  10.604 -0.0697  0.0830 -0.0959
   17loPI    C3  259   7.633   4.475  10.520  0.1212  0.0989 -0.0826
   17loPI   PO4  260   7.785   4.113  10.060 -0.3284 -0.4247 -0.0271
   17loPI   GL1  261   8.027   4.329   9.698 -0.2834  0.1199  0.1502
   17loPI   GL2  262   8.283   4.239   9.560 -0.0284  0.1252  0.0758
   17loPI   C1A  263   7.806   4.456   9.425  0.2484  0.2787  0.0608
   17loPI   C2A  264   7.657   4.590   9.060  0.1816  0.0691 -0.0453
   17loPI   C3A  265   7.377   4.507   8.672 -0.0469  0.3255  0.1622
   17loPI   C4A  266   7.252   4.649   8.351 -0.0197  0.0583  0.0127
   17loPI   C5A  267   7.483   4.615   8.036  0.2005  0.1072 -0.1640
   17loPI   C6A  268   7.574   4.557   7.618 -0.0779  0.1784 -0.0268
   17loPI   C1B  269   8.445   3.930   9.275 -0.2195 -0.2048 -0.2594
   17loPI   C2B  270   8.568   3.946   8.937  0.0443  0.0867  0.2014
   17loPI   C3B  271   8.534   3.874   8.572 -0.2899 -0.0916  0.0072
   17loPI   C4B  272   8.548   3.781   8.105  0.1603 -0.0872 -0.1290
   18loPI    C1  273   0.141   0.228   9.939 -0.1116 -0.1372 -0.0036
   18loPI    C2  274   0.412   0.330  10.215 -0.0741 -0.0554 -0.0701
   18loPI    C3  275   0.084   0.128  10.323 -0.1320  0.1046  0.0577
   18loPI   PO4  276   0.410   0.163   9.709 -0.0624  0.0040  0.0841
   18loPI   GL1  277   0.414   0.224   9.303  0.0598  0.0903  0.2047
   18loPI   GL2  278   0.603   0.002   9.201 -0.0605 -0.3024  0.0946
   18loPI   C1A  279   0.659   0.573   9.146 -0.2154 -0.1558  0.0384
   18loPI   C2A  280   0.636   0.665   8.683 -0.5081  0.0320 -0.0021
   18loPI   C3A  281   0.474   0.737   8.393 -0.2090  0.0166  0.2427
   18loPI   C4A  282   0.625   0.617   7.999 -0.0920 -0.0377 -0.1879
   18loPI   C5A  283   0.648   0.889   7.602 -0.1518 -0.0582 -0.3515
   18loPI   C6A  284   0.694   0.654   7.207 -0.0764 -0.3180 -0.0592
   18loPI   C1B  285   0.589   0.178   8.787  0.0835 -0.1739 -0.1410
   18loPI   C2B  286   0.361   0.157   8.444  0.0137  0.0253  0.2611
   18loPI   C3B  287  -0.155   0.063   8.220 -0.5631 -0.0094  0.2094
   18loPI   C4B  288  -0.166  -0.173   7.856  0.2209 -0.3298  0.2288
   19loPI    C1  289  12.060  17.138  10.145 -0.1616 -0.1970 -0.0755
   19loPI    C2  290  12.432  17.005  10.084 -0.0203  0.0889  0.1374
   19loPI    C3  291  12.201  16.832  10.360 -0.0025 -0.0094  0.0914
   19loPI   PO4  292  12.001  17.178   9.874  0.0898  0.0586 -0.1201
   19loPI   GL1  293  11.745  17.183   9.596  0.1560  0.0373  0.1282
   19loPI   GL2  294  11.720  17.079   9.315 -0.2117  0.0620  0.0666
   19loPI   C1A  295  11.524  17.522   9.367  0.0816 -0.0062  0.1316
   19loPI   C2A  296  11.323  17.545   8.957 -0.2173 -0.0818 -0.2894
   19loPI   C3A  297  11.315  17.339   8.538 -0.2928 -0.0804 -0.0057
   19loPI   C4A  298  11.210  17.334   8.115  0.1040  0.2592 -0.0648
   19loPI   C5A  299  11.136  17.176   7.709  0.0541  0.1089 -0.2292
   19loPI   C6A  300  11.032  16.863   7.465 -0.0801 -0.3615  0.3990
   19loPI   C1B  301  11.423  17.014   9.221  0.0997 -0.1145 -0.0672
   19loPI   C2B  302  11.434  16.952   8.742 -0.1315  0.1202  0.5125
   19loPI   C3B  303  11.407  16.845   8.248  0.0285 -0.0373  0.0073
   19loPI   C4B  304  11.296  16.612   7.951 -0.2745  0.0572  0.1594
   20loPI    C1  305  15.280  18.071  10.059 -0.0821 -0.3110  0.3110
   20loPI    C2  306  15.201  18.361  10.322 -0.1665 -0.1783  0.1412
   20loPI    C3  307  14.904  18.201  10.106 -0.0612 -0.0988 -0.0653
   20loPI   PO4  308  15.463  18.118   9.928 -0.2263  0.0188 -0.0751
   20loPI   GL1  309  15.467  18.125   9.452 -0.0626 -0.2538  0.1368
   20loPI   GL2  310  15.585  18.414   9.578 -0.0367 -0.0346 -0.0296
   20loPI   C1A  311  15.022  18.198   9.185 -0.3245  0.0339 -0.3073
   20loPI   C2A  312  15.000  18.062   8.770 -0.0448  0.3676  0.1699
   20loPI   C3A  313  14.827  18.219   8.297  0.2509 -0.0893 -0.0209
   20loPI   C4A  314  14.672  18.240   7.954 -0.3292  0.2238 -0.1414
   20loPI   C5A  315  14.386  18.158   7.771  0.4044 -0.2620  0.0231
   20loPI   C6A  316  13.954  18.446   7.835  0.0957 -0.0147 -0.0748
   20loPI   C1B  317  15.860  18.433   9.264 -0.0588  0.3344  0.0687
   20loPI   C2B  318  15.962  18.357   8.814  0.2636  0.2608 -0.2639
   20loPI   C3B  319  15.856  18.208   8.426 -0.1926 -0.0519  0.1752
   20loPI   C4B  320  15.980  17.886   8.097 -0.1828  0.0895  0.3908
   21loPI    C1  321  10.103   9.321  10.010 -0.3550  0.2625 -0.0432
   21loPI    C2  322  10.460   9.502  10.012 -0.1525 -0.1249  0.1805
   21loPI    C3  323  10.220   9.529  10.331 -0.2137 -0.0767  0.1308
   21loPI   PO4  324  10.115   9.164   9.852  0.1553 -0.1381 -0.1291
   21loPI   GL1  325   9.954   9.238   9.525  0.1803  0.0172 -0.3047
   21loPI   GL2  326  10.143   8.877   9.364  0.1411 -0.1848 -0.3899
   21loPI   C1A  327  10.111   9.306   9.188 -0.0969 -0.1563 -0.1925
   21loPI   C2A  328  10.148   9.380   8.736  0.0810 -0.1124 -0.1881
   21loPI   C3A  329  10.118   9.428   8.196 -0.1172 -0.1439  0.1431
   21loPI   C4A  330   9.948   9.710   7.921 -0.0750 -0.0177  0.0756
   21loPI   C5A  331   9.692   9.859   7.756 -0.0470  0.2392  0.1856
   21loPI   C6A  332   9.384  10.100   7.797 -0.3464 -0.0344  0.3624
   21loPI   C1B  333   9.994   8.901   8.924  0.0872  0.0667 -0.0906
   21loPI   C2B  334  10.007   8.746   8.531 -0.4209 -0.0428 -0.2061
   21loPI   C3B  335  10.079   8.851   8.132  0.1202 -0.2950 -0.0717
   21loPI   C4B  336  10.174   9.189   7.784  0.0010  0.2620  0.2246
   22loPI    C1  337  16.445  12.931  10.444 -0.0854 -0.1050 -0.1155
   22loPI    C2  338  16.670  12.795  10.746 -0.1134 -0.2554 -0.1614
   22loPI    C3  339  16.273  12.815  10.786 -0.1106 -0.1999 -0.1601
   22loPI   PO4  340  16.646  12.885  10.276  0.2943 -0.0090 -0.2537
   22loPI   GL1  341  16.754  12.817   9.805 -0.1775 -0.1541 -0.2120
   22loPI   GL2  342  16.537  12.550   9.873 -0.3922  0.0922  0.2209
   22loPI   C1A  343  16.986  12.903   9.488  0.0931  0.1916 -0.2181
   22loPI   C2A  344  17.001  13.135   9.114  0.1250  0.0232 -0.0471
   22loPI   C3A  345  17.052  13.197   8.676  0.3146  0.2038 -0.1017
   22loPI   C4A  346  16.932  13.145   8.313 -0.0719  0.0092  0.1738
   22loPI   C5A  347  16.616  13.029   8.025 -0.1282  0.1130  0.1089
   22loPI   C6A  348  16.176  13.121   7.826  0.0120  0.2837 -0.2679
   22loPI   C1B  349  16.452  12.793   9.429 -0.2518 -0.4332  0.3196
   22loPI   C2B  350  16.453  13.028   9.061  0.0213 -0.1303  0.0884
   22loPI   C3B  351  16.120  12.918   8.808 -0.1729  0.0192  0.4136
   22loPI   C4B  352  15.906  12.622   8.561 -0.0673 -0.2272  0.1346
   23loPI    C1  353  14.452   6.424   9.929  0.0069 -0.0267 -0.1192
   23loPI    C2  354  14.291   6.077   9.810  0.0228 -0.1201  0.1266
   23loPI    C3  355  14.202   6.226  10.171 -0.1235  0.2224 -0.0465
   23loPI   PO4  356  14.687   6.453   9.852  0.2142  0.2601 -0.0339
   23loPI   GL1  357  14.877   6.337   9.587 -0.0684  0.0461 -0.2934
   23loPI   GL2  358  15.205   6.207   9.626 -0.3192 -0.0909 -0.2601
   23loPI   C1A  359  14.739   6.262   9.215 -0.2182  0.1055 -0.2125
   23loPI   C2A  360  14.786   6.385   8.789 -0.1849  0.3377 -0.2083
   23loPI   C3A  361  14.768   6.316   8.400 -0.1292 -0.3060 -0.0046
   23loPI   C4A  362  14.914   6.420   8.041 -0.0343  0.0257  0.0583
   23loPI   C5A  363  15.176   6.490   7.685  0.1368 -0.0836 -0.2100
   23loPI   C6A  364  15.271   6.245   7.194  0.0507  0.0073  0.2341
   23loPI   C1B  365  15.575   6.291   9.332  0.0483  0.1914  0.0326
   23loPI   C2B  366  15.593   6.590   9.016 -0.0691 -0.4151  0.1783
   23loPI   C3B  367  15.800   6.740   8.631  0.1210  0.0994 -0.0396
   23loPI   C4B  368  15.782   6.805   8.327 -0.2353  0.2046  0.1797
   24loPI    C1  369  17.066   0.098  10.438 -0.4193  0.0705 -0.1076
   24loPI    C2  370  16.879   0.414  10.595 -0.2465  0.1070  0.0281
   24loPI    C3  371  17.145   0.211  10.813  0.0060  0.1646 -0.2200
   24loPI   PO4  372  17.065   0.122  10.125  0.0937  0.2159  0.2012
   24loPI   GL1  373  16.679  -0.032   9.751 -0.0999 -0.0447  0.4996
   24loPI   GL2  374  16.896   0.014   9.559 -0.1386 -0.1271  0.3569
   24loPI   C1A  375  16.410  -0.261   9.505  0.3065  0.0570 -0.0972
   24loPI   C2A  376  16.410  -0.483   9.182  0.1084 -0.0007 -0.2156
   24loPI   C3A  377  16.419  -0.638   8.823  0.4506 -0.0062  0.3518
   24loPI   C4A  378  16.411  -0.657   8.337 -0.2638 -0.0957 -0.0943
   24loPI   C5A  379  16.375  -0.641   7.784 -0.0231  0.0094  0.3381
   24loPI   C6A  380  16.041  -0.848   7.587  0.0702 -0.1129  0.1850
   24loPI   C1B  381  16.848  -0.159   9.169 -0.3361  0.5254 -0.1104
   24loPI   C2B  382  16.801  -0.331   8.752  0.3436  0.0696  0.0753
   24loPI   C3B  383  16.744  -0.309   8.327  0.1642 -0.5189  0.2156
   24loPI   C4B  384  16.658  -0.167   8.034 -0.1554  0.0517  0.0171
   25loPI    C1  385   3.209  13.446  10.389 -0.1452 -0.1385  0.0703
   25loPI    C2  386   3.391  13.204  10.651 -0.3178 -0.1959  0.1389
   25loPI    C3  387   3.058  13.083  10.465 -0.2623 -0.1092 -0.0190
   25loPI   PO4  388   3.382  13.486  10.246  0.1477  0.0778  0.0238
   25loPI   GL1  389   3.334  13.561   9.776 -0.1233  0.0576 -0.2902
   25loPI   GL2  390   3.006  13.634   9.630 -0.0291  0.1616  0.0240
   25loPI   C1A  391   3.550  13.413   9.461 -0.1132 -0.0321 -0.0318
   25loPI   C2A  392   3.557  13.516   8.929  0.1030 -0.0043 -0.4198
   25loPI   C3A  393   3.540  13.428   8.586 -0.0339 -0.0016 -0.0785
   25loPI   C4A  394   3.217  13.580   8.205 -0.2439  0.1505  0.2926
   25loPI   C5A  395   3.226  13.297   7.835  0.0705  0.2651  0.3088
   25loPI   C6A  396   2.943  13.169   7.585 -0.1619  0.0486  0.0106
   25loPI   C1B  397   2.744  13.615   9.282  0.2281 -0.0354 -0.0186
   25loPI   C2B  398   2.787  13.543   8.925  0.1999  0.0537  0.1039
   25loPI   C3B  399   2.616  13.370   8.571  0.0741  0.1916 -0.1707
   25loPI   C4B  400   2.764  13.330   8.159  0.3152  0.0551  0.0058
   26loPI    C1  401   4.893   0.029   9.893 -0.1975  0.3639 -0.0474
   26loPI    C2  402   4.652   0.209  10.157  0.0884  0.3628  0.2190
   26loPI    C3  403   4.885  -0.095  10.273  0.1128  0.2687 -0.0694
   26loPI   PO4  404   4.728   0.008   9.689 -0.3917 -0.3348  0.2355
   26loPI   GL1  405   4.541   0.247   9.234 -0.2241  0.1586  0.2197
   26loPI   GL2  406   4.410  -0.010   9.335 -0.0024  0.2917  0.0761
   26loPI   C1A  407   4.642   0.489   8.901 -0.2338 -0.1416  0.1358
   26loPI   C2A  408   4.448   0.400   8.461 -0.1360 -0.2610 -0.0655
   26loPI   C3A  409   4.424   0.580   8.035 -0.3207 -0.0343  0.1115
   26loPI   C4A  410   4.075   0.709   7.836  0.1606 -0.1054 -0.0612
   26loPI   C5A  411   3.822   0.803   7.438  0.1930  0.3340 -0.0840
   26loPI   C6A  412   3.444   0.613   7.181  0.0827  0.2902  0.1432
   26loPI   C1B  413   4.351  -0.314   9.079  0.0094 -0.0076  0.0894
   26loPI   C2B  414   4.416  -0.430   8.667 -0.0447  0.1219  0.2728
   26loPI   C3B  415   4.612  -0.731   8.293 -0.0446 -0.1920  0.1449
   26loPI   C4B  416   4.807  -1.000   7.977 -0.2531  0.0937  0.0455
   27loPI    C1  417  14.650   7.860   9.999  0.1255  0.0002 -0.0170
   27loPI    C2  418  14.537   8.123  10.278  0.0599 -0.0337 -0.0114
   27loPI    C3  419  14.610   7.743  10.379 -0.0865 -0.0754 -0.0612
   27loPI   PO4  420  14.791   8.023   9.832  0.0228 -0.2933 -0.3031
   27loPI   GL1  421  14.841   8.322   9.541  0.2617  0.0649  0.0801
   27loPI   GL2  422  14.589   8.428   9.245  0.0626  0.2856 -0.1922
   27loPI   C1A  423  15.076   8.077   9.197  0.0302 -0.0665  0.5370
   27loPI   C2A  424  15.053   8.027   8.713 -0.1958  0.1980  0.1590
   27loPI   C3A  425  14.979   8.197   8.412 -0.3102  0.2806 -0.1685
   27loPI   C4A  426  15.049   8.002   8.030  0.0772 -0.0222 -0.2450
   27loPI   C5A  427  14.861   8.057   7.539 -0.0009  0.1712 -0.0222
   27loPI   C6A  428  14.915   8.123   7.072 -0.4142 -0.0129 -0.0892
   27loPI   C1B  429  14.690   8.525   8.843 -0.2815  0.0078 -0.3474
   27loPI   C2B  430  14.936   8.736   8.427 -0.0717  0.1795 -0.1769
   27loPI   C3B  431  15.202   8.913   8.217  0.1566  0.0157  0.2149
   27loPI   C4B  432  15.154   8.991   7.711 -0.2471 -0.0181  0.0520
   28loPI    C1  433  12.817   7.435  10.475  0.0134 -0.0391 -0.0232
   28loPI    C2  434  12.968   7.805  10.491 -0.1806  0.0368  0.0814
   28loPI    C3  435  12.978   7.600  10.148  0.1768  0.0313  0.0916
   28loPI   PO4  436  12.554   7.524  10.503 -0.1303 -0.1291 -0.0910
   28loPI   GL1  437  12.326   7.509  10.142  0.2768 -0.0526 -0.1520
   28loPI   GL2  438  12.444   7.272   9.952 -0.1414  0.0794 -0.0917
   28loPI   C1A  439  12.089   7.565   9.795  0.3282 -0.0282  0.0121
   28loPI   C2A  440  11.930   7.617   9.332  0.1037  0.0262  0.0535
   28loPI   C3A  441  11.844   7.780   8.976  0.1163  0.1283 -0.1033
   28loPI   C4A  442  11.787   7.806   8.538 -0.0656 -0.0734  0.0120
   28loPI   C5A  443  11.786   7.697   8.096 -0.1449 -0.2582  0.2380
   28loPI   C6A  444  11.768   7.753   7.696  0.0913  0.0437  0.3758
   28loPI   C1B  445  12.397   7.365   9.432  0.0050  0.0577 -0.1328
   28loPI   C2B  446  12.297   7.382   9.104 -0.0059  0.3467  0.4398
   28loPI   C3B  447  12.110   7.449   8.774 -0.1452 -0.2079 -0.0039
   28loPI   C4B  448  12.060   7.415   8.351  0.2494 -0.0371  0.0275
   29loPI    C1  449  16.554   2.629   9.874  0.2839  0.1848  0.0710
   29loPI    C2  450  16.743   2.780  10.192  0.2314  0.1315  0.1278
   29loPI    C3  451  16.793   2.395  10.094  0.1334  0.1109  0.1577
   29loPI   PO4  452  16.635   2.732   9.609 -0.0233 -0.2152 -0.0974
   29loPI   GL1  453  16.919   2.766   9.312  0.0603  0.2104  0.1550
   29loPI   GL2  454  17.041   3.049   9.297 -0.1467  0.3889 -0.0951
   29loPI   C1A  455  16.871   2.816   8.926  0.0729  0.1651 -0.0307
   29loPI   C2A  456  16.808   2.982   8.471  0.1545  0.3163 -0.0331
   29loPI   C3A  457  16.909   3.201   8.176  0.0597  0.0113  0.1925
   29loPI   C4A  458  16.882   3.186   7.752  0.2018 -0.0339 -0.0655
   29loPI   C5A  459  16.819   3.205   7.271 -0.3260 -0.1585  0.1751
   29loPI   C6A  460  16.883   3.343   6.860 -0.3029 -0.2253 -0.1049
   29loPI   C1B  461  17.274   3.120   8.907 -0.3484 -0.1438  0.0313
   29loPI   C2B  462  17.452   3.141   8.413 -0.1454  0.1755 -0.0282
   29loPI   C3B  463  17.390   2.967   7.939 -0.0277 -0.0182 -0.1470
   29loPI   C4B  464  17.338   3.076   7.430  0.1288  0.1708 -0.2651
   30loPI    C1  465   7.994   0.553  10.294  0.3200 -0.1269 -0.1850
   30loPI    C2  466   8.271   0.269  10.348  0.0884 -0.3008  0.1161
   30loPI    C3  467   7.953   0.288  10.590 -0.2205 -0.1693 -0.2882
   30loPI   PO4  468   8.047   0.586  10.049  0.1256  0.0677 -0.1002
   30loPI   GL1  469   8.208   0.659   9.623  0.1457  0.2822  0.1266
   30loPI   GL2  470   7.986   0.821   9.484  0.0415 -0.1118  0.0556
   30loPI   C1A  471   8.180   0.407   9.237  0.1480 -0.0143  0.3939
   30loPI   C2A  472   8.242   0.402   8.760 -0.0130 -0.3614 -0.1005
   30loPI   C3A  473   8.324   0.297   8.315 -0.0743  0.0053 -0.0717
   30loPI   C4A  474   8.232   0.345   7.987  0.1428 -0.0379  0.1172
   30loPI   C5A  475   8.264   0.273   7.559 -0.1317  0.2436  0.1382
   30loPI   C6A  476   8.365   0.361   7.173 -0.0543  0.3978  0.2777
   30loPI   C1B  477   8.023   0.866   9.044  0.1636  0.0062 -0.4940
   30loPI   C2B  478   8.058   0.893   8.589  0.2780  0.2294  0.0455
   30loPI   C3B  479   8.081   0.815   8.194 -0.2701 -0.1350 -0.1126
   30loPI   C4B  480   8.117   0.805   7.715 -0.1534  0.0072  0.1134
   31loPI    C1  481   7.772  17.408   9.888 -0.0443  0.2939  0.2260
   31loPI    C2  482   7.984  17.547   9.579 -0.4432  0.4429  0.0127
   31loPI    C3  483   8.150  17.527   9.942  0.1890 -0.1683 -0.2867
   31loPI   PO4  484   7.554  17.535   9.864  0.1836 -0.1753  0.2301
   31loPI   GL1  485   7.481  17.711   9.589  0.1224 -0.0290  0.1427
   31loPI   GL2  486   7.454  17.363   9.403 -0.1161  0.2425  0.0354
   31loPI   C1A  487   7.698  17.803   9.296 -0.2266  0.1010 -0.2430
   31loPI   C2A  488   8.007  17.708   9.042  0.3124 -0.0871 -0.1037
   31loPI   C3A  489   7.912  17.441   8.779  0.0402 -0.1357  0.1549
   31loPI   C4A  490   7.882  17.223   8.387 -0.4191 -0.3186  0.2044
   31loPI   C5A  491   7.818  17.272   8.030  0.1576 -0.2813 -0.1998
   31loPI   C6A  492   7.629  16.887   7.850 -0.2580  0.0008  0.0087
   31loPI   C1B  493   7.502  17.243   8.983 -0.0859 -0.1454 -0.3363
   31loPI   C2B  494   7.392  17.268   8.677 -0.2718  0.2063  0.0912
   31loPI   C3B  495   7.281  17.042   8.343 -0.1755  0.0857 -0.4263
   31loPI   C4B  496   7.262  17.302   7.955 -0.0584 -0.6026 -0.3876
   32loPI    C1  497  14.477  15.475  10.075  0.1069  0.0342 -0.1320
   32loPI    C2  498  14.314  15.143   9.924  0.0199  0.0723 -0.1226
   32loPI    C3  499  14.277  15.224  10.313  0.0479  0.0889 -0.1234
   32loPI   PO4  500  14.713  15.486   9.957  0.0076 -0.1343 -0.2270
   32loPI   GL1  501  14.546  15.475   9.525  0.1560  0.0810  0.1011
   32loPI   GL2  502  14.385  15.313   9.401 -0.0467  0.0133  0.0312
   32loPI   C1A  503  14.640  15.877   9.291  0.4224 -0.0455  0.1360
   32loPI   C2A  504  14.814  15.926   8.875 -0.0258 -0.2647 -0.2382
   32loPI   C3A  505  14.843  15.764   8.460  0.2773  0.0074  0.0513
   32loPI   C4A  506  14.766  15.674   8.015 -0.0691  0.1012  0.2284
   32loPI   C5A  507  14.801  15.308   7.777 -0.1112  0.0255  0.1456
   32loPI   C6A  508  15.126  15.088   7.733  0.0879 -0.1699 -0.1336
   32loPI   C1B  509  14.386  15.224   9.004  0.0857  0.0691 -0.0458
   32loPI   C2B  510  14.438  15.198   8.581  0.0117 -0.4142  0.0684
   32loPI   C3B  511  14.510  15.305   8.238  0.0301 -0.2806  0.0045
   32loPI   C4B  512  14.230  15.441   7.951 -0.0137  0.0050 -0.1053
   33loPI    C1  513  10.719   6.926  10.425 -0.0024 -0.0406 -0.1217
   33loPI    C2  514  10.406   6.869  10.183 -0.0345 -0.0110 -0.0874
   33loPI    C3  515  10.461   6.630  10.498 -0.0981  0.0676 -0.0164
   33loPI   PO4  516  10.886   6.983  10.194 -0.2106  0.3128  0.3769
   33loPI   GL1  517  10.954   7.091   9.731 -0.0616  0.1572 -0.1635
   33loPI   GL2  518  11.270   6.886   9.727  0.4176  0.1284  0.0248
   33loPI   C1A  519  10.936   7.132   9.305 -0.1216  0.3032  0.0291
   33loPI   C2A  520  11.008   7.104   8.894 -0.1115 -0.2515 -0.1553
   33loPI   C3A  521  11.099   7.190   8.493 -0.0153  0.3776  0.3967
   33loPI   C4A  522  11.002   7.161   8.040  0.2232  0.0987  0.2684
   33loPI   C5A  523  11.176   7.337   7.606  0.2513  0.1377  0.2658
   33loPI   C6A  524  11.394   7.622   7.391 -0.0988 -0.2984 -0.3785
   33loPI   C1B  525  11.384   6.791   9.359  0.1354 -0.0832  0.3919
   33loPI   C2B  526  11.439   6.767   8.951 -0.0498  0.1209  0.1568
   33loPI   C3B  527  11.477   6.715   8.592  0.0115 -0.2991 -0.2093
   33loPI   C4B  528  11.217   6.679   8.217 -0.0625  0.1463 -0.3328
   34loPI    C1  529  16.602   5.128  10.135 -0.0224 -0.1196 -0.0344
   34loPI    C2  530  16.608   5.150  10.534  0.0184  0.0400 -0.0432
   34loPI    C3  531  16.934   5.248  10.323 -0.0349  0.0533 -0.1201
   34loPI   PO4  532  16.384   5.160   9.987  0.0385  0.3763 -0.0453
   34loPI   GL1  533  16.164   5.251   9.634  0.1667  0.1736  0.0715
   34loPI   GL2  534  16.356   5.575   9.730  0.1150 -0.2002  0.4162
   34loPI   C1A  535  16.307   5.301   9.318  0.0164  0.0675 -0.1074
   34loPI   C2A  536  16.411   5.245   8.976 -0.1057 -0.1692  0.2780
   34loPI   C3A  537  16.634   5.322   8.566  0.2454 -0.0966 -0.1285
   34loPI   C4A  538  16.670   5.343   8.224 -0.2054  0.1258  0.1879
   34loPI   C5A  539  16.727   5.687   7.850 -0.0079 -0.1496  0.0058
   34loPI   C6A  540  17.171   5.931   7.847  0.2178  0.1377  0.1744
   34loPI   C1B  541  16.497   5.746   9.232 -0.0592 -0.0210  0.0690
   34loPI   C2B  542  16.606   5.784   8.747  0.2986 -0.0640  0.2223
   34loPI   C3B  543  16.636   5.920   8.340  0.2483  0.2553  0.2007
   34loPI   C4B  544  16.498   6.166   8.007 -0.1881 -0.0826 -0.2174
   35loPI    C1  545  18.366   9.756  10.210 -0.2501 -0.1874 -0.1868
   35loPI    C2  546  18.744   9.824  10.322 -0.2634 -0.0705 -0.2119
   35loPI    C3  547  18.474   9.701  10.591 -0.2218 -0.0955 -0.1814
   35loPI   PO4  548  18.428   9.624   9.975  0.1369 -0.0988 -0.2165
   35loPI   GL1  549  18.364   9.399   9.605 -0.0797 -0.0728  0.0988
   35loPI   GL2  550  17.959   9.249   9.591 -0.1291 -0.1731  0.1791
   35loPI   C1A  551  18.250   9.537   9.134  0.0975  0.2265  0.0954
   35loPI   C2A  552  18.194   9.437   8.712 -0.0146 -0.1394 -0.2986
   35loPI   C3A  553  18.131   9.479   8.375 -0.1735 -0.1786 -0.1865
   35loPI   C4A  554  18.103   9.365   7.952 -0.1047 -0.2969 -0.2848
   35loPI   C5A  555  18.128   9.424   7.544 -0.1098  0.2417 -0.0319
   35loPI   C6A  556  18.284   9.782   7.312 -0.0410 -0.0014  0.0784
   35loPI   C1B  557  17.915   9.112   9.147 -0.1394 -0.2551 -0.0126
   35loPI   C2B  558  17.780   9.032   8.666  0.1356  0.0043  0.1033
   35loPI   C3B  559  17.506   8.892   8.478 -0.1382  0.1962  0.1662
   35loPI   C4B  560  17.254   8.587   8.704  0.0611  0.2216  0.4244
   36loPI    C1  561  14.659   7.208  10.389  0.2485 -0.0228 -0.0084
   36loPI    C2  562  14.970   7.282  10.630  0.1042 -0.0561  0.1909
   36loPI    C3  563  14.600   7.378  10.746  0.0341 -0.0586 -0.0256
   36loPI   PO4  564  14.758   7.309  10.130 -0.0842  0.1714  0.4870
   36loPI   GL1  565  14.768   7.426   9.707  0.2627  0.2582 -0.0304
   36loPI   GL2  566  14.917   7.603   9.527 -0.0520 -0.1506  0.3272
   36loPI   C1A  567  14.494   7.315   9.323  0.1854 -0.2787 -0.2986
   36loPI   C2A  568  14.488   7.265   8.935  0.1682  0.1141  0.0278
   36loPI   C3A  569  14.534   7.249   8.484 -0.0025  0.0865  0.1873
   36loPI   C4A  570  14.434   7.330   8.092 -0.3801 -0.1835  0.2756
   36loPI   C5A  571  14.506   7.184   7.683 -0.0019  0.1976 -0.2904
   36loPI   C6A  572  14.626   7.543   7.468  0.0577  0.0225  0.1063
   36loPI   C1B  573  14.928   7.625   9.068 -0.1468  0.1760  0.0550
   36loPI   C2B  574  14.919   7.562   8.646 -0.0360  0.1673 -0.1900
   36loPI   C3B  575  14.683   7.719   8.245 -0.2723  0.0904 -0.0097
   36loPI   C4B  576  14.560   8.015   7.889  0.2524  0.0687 -0.2337
   37loPI    C1  577   8.901  16.366  10.432 -0.1607  0.0911 -0.0477
   37loPI    C2  578   8.634  16.392  10.729 -0.1531  0.0100 -0.0334
   37loPI    C3  579   8.907  16.681  10.678 -0.1736  0.0390  0.0197
   37loPI   PO4  580   8.773  16.170  10.206  0.3399 -0.4446  0.1755
   37loPI   GL1  581   8.756  15.942   9.794  0.1563 -0.0006  0.2446
   37loPI   GL2  582   8.655  15.644   9.783 -0.2305 -0.4084  0.0311
   37loPI   C1A  583   8.864  16.020   9.418 -0.1103  0.1687  0.1656
   37loPI   C2A  584   8.970  15.621   9.224  0.0554 -0.0966 -0.0728
   37loPI   C3A  585   9.001  15.445   8.776  0.0719  0.3096 -0.0147
   37loPI   C4A  586   8.998  15.597   8.357 -0.1660 -0.2445 -0.2766
   37loPI   C5A  587   9.260  15.451   7.954 -0.3053  0.0057 -0.2952
   37loPI   C6A  588   9.425  15.150   7.743 -0.1047  0.3920  0.3160
   37loPI   C1B  589   8.410  15.708   9.383  0.1695 -0.1877 -0.1014
   37loPI   C2B  590   8.205  15.806   9.045 -0.5178 -0.0982 -0.0937
   37loPI   C3B  591   8.165  15.827   8.689  0.2136  0.2391 -0.2755
   37loPI   C4B  592   8.221  15.986   8.287  0.1743  0.1185 -0.3681
   38loPI    C1  593  13.113  18.167   9.848 -0.1079 -0.0675  0.1834
   38loPI    C2  594  13.087  18.235  10.241 -0.0989 -0.3046  0.2260
   38loPI    C3  595  13.225  17.884  10.107 -0.2866 -0.2990  0.0118
   38loPI   PO4  596  13.026  18.309   9.713  0.0468 -0.0940  0.1250
   38loPI   GL1  597  13.149  18.553   9.379  0.1207 -0.3646 -0.0533
   38loPI   GL2  598  12.910  18.798   9.148 -0.2549  0.0287 -0.0848
   38loPI   C1A  599  13.015  18.282   9.062  0.1553  0.0579 -0.1102
   38loPI   C2A  600  13.033  18.196   8.625 -0.0432  0.1483 -0.0446
   38loPI   C3A  601  13.010  18.457   8.286 -0.0589  0.3128  0.2229
   38loPI   C4A  602  12.969  18.632   7.915 -0.0304 -0.0992 -0.1095
   38loPI   C5A  603  13.260  18.819   7.528 -0.2858  0.0990 -0.1795
   38loPI   C6A  604  13.477  18.919   7.183  0.2524 -0.0567  0.3296
   38loPI   C1B  605  13.030  18.717   8.740 -0.1191 -0.2987 -0.1769
   38loPI   C2B  606  12.994  19.021   8.406  0.1244 -0.0233  0.2031
   38loPI   C3B  607  13.126  19.089   8.005  0.2352  0.0887  0.2545
   38loPI   C4B  608  13.417  19.254   7.840  0.0625 -0.2434  0.0771
   39loPI    C1  609  14.123   7.882  10.235 -0.0273 -0.1919  0.0305
   39loPI    C2  610  13.777   8.050  10.344  0.2029  0.1270  0.2936
   39loPI    C3  611  14.063   7.989  10.616  0.2812 -0.3222  0.1188
   39loPI   PO4  612  14.158   7.996  10.010  0.2095  0.0527 -0.0401
   39loPI   GL1  613  14.323   7.796   9.626 -0.1048 -0.1936  0.0468
   39loPI   GL2  614  14.587   7.955   9.394 -0.0990 -0.0447 -0.2349
   39loPI   C1A  615  14.182   7.704   9.145 -0.1457  0.2342 -0.3871
   39loPI   C2A  616  14.278   7.662   8.701 -0.3995 -0.1040  0.1702
   39loPI   C3A  617  14.086   7.893   8.342  0.1845  0.1387  0.0972
   39loPI   C4A  618  14.149   8.247   8.088 -0.1164 -0.0499  0.3259
   39loPI   C5A  619  14.195   8.381   7.699  0.0328 -0.1158  0.3868
   39loPI   C6A  620  13.915   8.532   7.383 -0.0743 -0.1617  0.1327
   39loPI   C1B  621  14.592   7.956   8.909 -0.0322  0.1930 -0.0437
   39loPI   C2B  622  14.445   8.270   8.507 -0.0481 -0.3775  0.3329
   39loPI   C3B  623  14.600   8.486   8.198 -0.1187 -0.0563  0.1850
   39loPI   C4B  624  14.870   8.456   7.831 -0.0704  0.0806 -0.0931
   40loPI    C1  625   5.088  11.305  10.715  0.1595 -0.2095 -0.0244
   40loPI    C2  626   5.337  11.483  10.972  0.1933 -0.1934 -0.0683
   40loPI    C3  627   5.143  11.150  11.079  0.1485 -0.1439  0.0052
   40loPI   PO4  628   5.261  11.236  10.496  0.2196  0.1420  0.2048
   40loPI   GL1  629   5.111  11.356  10.124  0.3966  0.0684 -0.2920
   40loPI   GL2  630   4.909  11.168  10.127  0.0475  0.1257 -0.0093
   40loPI   C1A  631   5.210  11.530   9.713  0.1701  0.0989  0.2012
   40loPI   C2A  632   5.272  11.591   9.331 -0.2382 -0.0676  0.1174
   40loPI   C3A  633   5.242  11.576   8.916 -0.1600  0.1688 -0.1621
   40loPI   C4A  634   5.590  11.541   8.588 -0.2651 -0.2881 -0.1290
   40loPI   C5A  635   5.863  11.320   8.296  0.0252 -0.0423 -0.0268
   40loPI   C6A  636   6.408  11.310   8.188 -0.0399 -0.0509 -0.1668
   40loPI   C1B  637   4.899  11.142   9.681 -0.0101  0.2648  0.1890
   40loPI   C2B  638   4.863  11.243   9.270 -0.0985  0.1091 -0.0170
   40loPI   C3B  639   4.796  11.158   8.863  0.0748 -0.2185 -0.0108
   40loPI   C4B  640   4.966  11.423   8.430 -0.0711  0.1871 -0.3342
   41loPI    C1  641   3.687   1.078   9.803 -0.1402  0.0668  0.0143
   41loPI    C2  642   3.376   0.934  10.009 -0.0086 -0.0650  0.1225
   41loPI    C3  643   3.748   0.884  10.147  0.0720 -0.0418 -0.0828
   41loPI   PO4  644   3.687   1.319   9.748  0.4463 -0.2072  0.0505
   41loPI   GL1  645   3.824   1.498   9.300  0.0312  0.0707  0.0882
   41loPI   GL2  646   4.036   1.351   9.095  0.0084 -0.2019 -0.3334
   41loPI   C1A  647   3.597   1.399   8.899 -0.1119 -0.0561  0.0718
   41loPI   C2A  648   3.429   1.454   8.564  0.8074  0.0091  0.0397
   41loPI   C3A  649   3.180   1.799   8.310 -0.2557 -0.1010 -0.1533
   41loPI   C4A  650   3.212   1.965   7.904  0.0021 -0.2326 -0.0268
   41loPI   C5A  651   2.967   1.689   7.587  0.2297 -0.2225 -0.0594
   41loPI   C6A  652   2.764   1.372   7.190  0.0496 -0.2968  0.3476
   41loPI   C1B  653   4.247   1.385   8.710 -0.2796  0.0592 -0.2706
   41loPI   C2B  654   4.469   1.464   8.322 -0.0904 -0.0672  0.0149
   41loPI   C3B  655   4.631   1.527   7.920 -0.1042  0.0801 -0.0131
   41loPI   C4B  656   4.856   1.660   7.582 -0.1924 -0.0977  0.0359
   42loPI    C1  657  11.482  18.068  10.452  0.1711 -0.1189 -0.1047
   42loPI    C2  658  11.875  18.018  10.502  0.2053  0.0020 -0.2490
   42loPI    C3  659  11.724  18.386  10.455  0.0344 -0.0139  0.1387
   42loPI   PO4  660  11.429  17.775  10.212  0.1063 -0.0696  0.2162
   42loPI   GL1  661  11.240  17.705   9.849 -0.0758  0.0321 -0.0531
   42loPI   GL2  662  11.218  17.456   9.752 -0.2311 -0.0868 -0.1839
   42loPI   C1A  663  11.045  17.806   9.398  0.3293 -0.2326  0.3056
   42loPI   C2A  664  10.839  17.671   9.040 -0.0255  0.3209 -0.1881
   42loPI   C3A  665  10.918  17.714   8.659 -0.1891  0.0828 -0.1274
   42loPI   C4A  666  10.728  17.516   8.369 -0.0024 -0.0243  0.2094
   42loPI   C5A  667  10.575  17.222   8.006 -0.4746  0.3037  0.0265
   42loPI   C6A  668  10.497  17.159   7.542  0.1863 -0.0298  0.1012
   42loPI   C1B  669  11.046  17.294   9.375 -0.1426 -0.1386  0.1717
   42loPI   C2B  670  11.000  17.149   9.014 -0.2231  0.3297  0.1380
   42loPI   C3B  671  10.751  17.090   8.621 -0.1265  0.3656 -0.1098
   42loPI   C4B  672  10.860  16.970   8.271 -0.3485 -0.0366 -0.0441
   43loPI    C1  673   1.420  11.075  10.473  0.2503 -0.0369 -0.0693
   43loPI    C2  674   1.511  11.413  10.666 -0.0588  0.0816 -0.1255
   43loPI    C3  675   1.575  11.059  10.841 -0.0096  0.1776  0.0531
   43loPI   PO4  676   1.502  11.115  10.187 -0.1534  0.1259 -0.0064
   43loPI   GL1  677   1.557  11.041   9.727  0.0128 -0.0623  0.2266
   43loPI   GL2  678   1.534  10.809   9.797  0.1168 -0.4451  0.1094
   43loPI   C1A  679   1.532  11.151   9.222 -0.2970  0.0692 -0.2202
   43loPI   C2A  680   1.509  11.156   8.755 -0.3411 -0.2138  0.0961
   43loPI   C3A  681   1.541  11.099   8.374 -0.1888 -0.0962 -0.1782
   43loPI   C4A  682   1.569  11.190   7.873 -0.1741  0.1567  0.0603
   43loPI   C5A  683   1.741  10.866   7.575  0.2609  0.0477 -0.0497
   43loPI   C6A  684   1.970  10.917   7.144 -0.3466 -0.3474  0.2507
   43loPI   C1B  685   1.654  10.683   9.325  0.1856 -0.0466 -0.1584
   43loPI   C2B  686   1.767  10.751   8.934 -0.0663 -0.0104  0.0746
   43loPI   C3B  687   1.843  10.731   8.486  0.4146  0.1040  0.1855
   43loPI   C4B  688   1.770  10.695   8.061  0.1823  0.0414  0.0402
   44loPI    C1  689   8.384  13.250  11.004  0.1571 -0.2330 -0.0776
   44loPI    C2  690   8.442  13.644  11.044  0.0431 -0.1942 -0.2833
   44loPI    C3  691   8.730  13.388  11.152  0.1013 -0.0573 -0.1093
   44loPI   PO4  692   8.257  13.231  10.694  0.0806  0.1130  0.0210
   44loPI   GL1  693   8.477  13.134  10.318  0.0591  0.1064  0.0475
   44loPI   GL2  694   8.313  12.879  10.284  0.0448  0.2878  0.2212
   44loPI   C1A  695   8.552  13.224   9.876  0.1312  0.1511 -0.0379
   44loPI   C2A  696   8.679  13.043   9.318  0.0237  0.1404 -0.1308
   44loPI   C3A  697   8.593  12.917   8.979 -0.0847 -0.0541  0.2332
   44loPI   C4A  698   8.370  12.844   8.544  0.0846  0.1086  0.0005
   44loPI   C5A  699   8.439  12.889   8.221  0.0900 -0.0513  0.0593
   44loPI   C6A  700   8.656  12.470   7.974 -0.1670 -0.1682  0.0741
   44loPI   C1B  701   8.432  12.628   9.849  0.0891  0.2893 -0.1862
   44loPI   C2B  702   8.622  12.585   9.553  0.3077 -0.1011  0.0904
   44loPI   C3B  703   8.685  12.457   9.128 -0.0934 -0.0113  0.0874
   44loPI   C4B  704   8.646  12.327   8.662  0.0309  0.0611  0.1446
   45loPI    C1  705   5.330   0.263  10.156  0.1109 -0.1839  0.0619
   45loPI    C2  706   5.404  -0.129  10.185  0.0114 -0.2015  0.0828
   45loPI    C3  707   5.356   0.090  10.516  0.1522 -0.1548  0.0729
   45loPI   PO4  708   5.377   0.210   9.835  0.2872  0.0085  0.0656
   45loPI   GL1  709   5.285   0.370   9.411  0.2605 -0.0996  0.1023
   45loPI   GL2  710   5.085   0.093   9.374 -0.1373 -0.3280  0.0821
   45loPI   C1A  711   5.356   0.619   9.042 -0.0605  0.0518 -0.1638
   45loPI   C2A  712   5.363   0.639   8.622 -0.0407 -0.0125 -0.0733
   45loPI   C3A  713   5.260   0.423   8.322  0.0559  0.1914 -0.0030
   45loPI   C4A  714   4.875   0.356   8.178  0.1395 -0.3121  0.3502
   45loPI   C5A  715   4.717   0.297   7.746  0.4843  0.0216 -0.2478
   45loPI   C6A  716   4.981   0.217   7.470  0.0735 -0.1387  0.0273
   45loPI   C1B  717   5.075   0.273   8.943  0.1973 -0.0134 -0.0429
   45loPI   C2B  718   4.866   0.184   8.613  0.0330 -0.0968 -0.1099
   45loPI   C3B  719   4.716  -0.146   8.325 -0.0094  0.1660  0.0529
   45loPI   C4B  720   5.021  -0.548   8.140 -0.4232  0.2731  0.1602
   46loPI    C1  721  16.159   8.715  10.118  0.1179 -0.0273 -0.1665
   46loPI    C2  722  15.777   8.629  10.036  0.1359  0.0477 -0.3319
   46loPI    C3  723  15.893   8.678  10.415 -0.0347  0.1005 -0.2854
   46loPI   PO4  724  16.262   8.859   9.956 -0.2393 -0.0215  0.0953
   46loPI   GL1  725  16.506   8.741   9.630 -0.4051  0.2039  0.1580
   46loPI   GL2  726  16.490   9.016   9.462  0.0991 -0.0185  0.1369
   46loPI   C1A  727  16.805   8.377   9.561  0.1897  0.0003 -0.3164
   46loPI   C2A  728  17.149   8.172   9.315  0.2707 -0.1937  0.0564
   46loPI   C3A  729  17.230   8.178   9.006  0.0322  0.2314 -0.0796
   46loPI   C4A  730  17.512   8.187   8.616 -0.2552  0.1246 -0.1490
   46loPI   C5A  731  17.766   7.978   8.310 -0.1341  0.2277  0.2166
   46loPI   C6A  732  17.988   7.895   7.905 -0.2572  0.1065 -0.3580
   46loPI   C1B  733  16.436   8.924   9.087  0.0883 -0.0244 -0.2480
   46loPI   C2B  734  16.413   8.935   8.670  0.0997  0.0059 -0.0883
   46loPI   C3B  735  16.266   8.819   8.415 -0.2227  0.0421 -0.2499
   46loPI   C4B  736  16.146   8.697   7.974  0.0008  0.1378 -0.0457
   47loPI    C1  737   4.718  17.063  10.430  0.1088  0.0865 -0.0450
   47loPI    C2  738   4.832  16.703  10.297  0.0793  0.1378 -0.2114
   47loPI    C3  739   4.649  16.736  10.651  0.0894 -0.0098 -0.1918
   47loPI   PO4  740   4.880  17.196  10.242 -0.0259  0.2777 -0.0249
   47loPI   GL1  741   5.015  17.078   9.811  0.0824 -0.2535 -0.2024
   47loPI   GL2  742   5.037  17.383   9.561  0.3075  0.2233 -0.2347
   47loPI   C1A  743   5.082  16.769   9.475  0.1303  0.2698 -0.0299
   47loPI   C2A  744   4.997  16.653   8.942 -0.0839 -0.0024 -0.0750
   47loPI   C3A  745   4.813  16.465   8.575 -0.3048  0.1172 -0.2726
   47loPI   C4A  746   4.732  16.232   8.237 -0.0108 -0.1561 -0.4796
   47loPI   C5A  747   4.584  16.048   7.914  0.4512  0.1338 -0.2932
   47loPI   C6A  748   4.355  15.632   7.732 -0.1724  0.0108  0.0902
   47loPI   C1B  749   5.168  17.363   9.143  0.2491  0.4036  0.0179
   47loPI   C2B  750   5.168  17.243   8.706 -0.2143  0.1816 -0.5205
   47loPI   C3B  751   5.342  16.775   8.485  0.0184  0.2599  0.0384
   47loPI   C4B  752   5.684  16.825   8.204 -0.3396 -0.1166  0.3312
   48loPI    C1  753   5.842   0.155  10.225 -0.1365  0.0101  0.1546
   48loPI    C2  754   6.192   0.116  10.415 -0.0722 -0.0750  0.0204
   48loPI    C3  755   5.914  -0.170  10.447 -0.1013 -0.0414  0.0684
   48loPI   PO4  756   5.868   0.299  10.005 -0.0775  0.1843  0.0784
   48loPI   GL1  757   5.882   0.201   9.538  0.0592 -0.1108  0.0397
   48loPI   GL2  758   5.647  -0.079   9.534  0.0133 -0.0739 -0.2907
   48loPI   C1A  759   5.775   0.409   9.077 -0.2837  0.0695  0.4591
   48loPI   C2A  760   5.841   0.492   8.703 -0.1394  0.2231  0.0209
   48loPI   C3A  761   5.788   0.363   8.281 -0.0516 -0.0805  0.2289
   48loPI   C4A  762   5.667   0.137   7.945  0.0406 -0.2838  0.3647
   48loPI   C5A  763   5.920   0.033   7.643 -0.2041 -0.0448  0.0548
   48loPI   C6A  764   6.161  -0.036   7.334 -0.1613 -0.2326  0.1977
   48loPI   C1B  765   5.501   0.016   9.101  0.0835 -0.0439 -0.1132
   48loPI   C2B  766   5.452   0.035   8.683 -0.2160  0.0408  0.1574
   48loPI   C3B  767   5.632  -0.193   8.417 -0.2257 -0.1988  0.0714
   48loPI   C4B  768   5.502  -0.370   8.090 -0.0275 -0.2137 -0.0730
   49loPI    C1  769  10.256  11.302  10.552  0.1477  0.1204 -0.1616
   49loPI    C2  770  10.629  11.399  10.659  0.0106  0.2361  0.2287
   49loPI    C3  771  10.330  11.436  10.921 -0.2577  0.0210 -0.0397
   49loPI   PO4  772  10.191  11.337  10.315 -0.1212  0.0005 -0.0214
   49loPI   GL1  773  10.169  11.457   9.902  0.0365 -0.0312  0.1734
   49loPI   GL2  774  10.265  11.194   9.838 -0.0140  0.1573 -0.0287
   49loPI   C1A  775  10.098  11.747   9.607  0.0110 -0.2496  0.0577
   49loPI   C2A  776   9.920  11.810   9.291 -0.1525 -0.1041  0.5555
   49loPI   C3A  777   9.702  11.952   8.913 -0.1434 -0.1020  0.2237
   49loPI   C4A  778   9.475  12.089   8.606  0.3846 -0.1462  0.0770
   49loPI   C5A  779   9.151  12.201   8.294  0.3892  0.1529  0.1439
   49loPI   C6A  780   9.045  12.154   7.780 -0.0326  0.2185 -0.0663
   49loPI   C1B  781  10.379  11.336   9.428  0.2771  0.1121  0.0187
   49loPI   C2B  782  10.365  11.598   8.968  0.1736  0.1354  0.0304
   49loPI   C3B  783  10.456  11.600   8.554  0.0722 -0.0902 -0.3002
   49loPI   C4B  784  10.380  11.468   8.150 -0.1812  0.3027 -0.0675
   50loPI    C1  785   2.744   0.767   9.564 -0.0610 -0.2572 -0.1204
   50loPI    C2  786   2.417   0.940   9.716  0.0510 -0.1092 -0.0457
   50loPI    C3  787   2.529   0.579   9.845  0.0021 -0.0946  0.0389
   50loPI   PO4  788   2.946   0.954   9.619  0.0942 -0.0171  0.1553
   50loPI   GL1  789   3.270   1.055   9.476 -0.1795 -0.3725 -0.1278
   50loPI   GL2  790   3.545   0.985   9.307  0.0827 -0.0576  0.0887
   50loPI   C1A  791   3.159   1.322   9.078 -0.0449  0.0254 -0.5443
   50loPI   C2A  792   2.992   1.610   8.765  0.2659  0.0327  0.2920
   50loPI   C3A  793   2.750   1.654   8.511 -0.4097 -0.2701 -0.0859
   50loPI   C4A  794   2.724   1.628   8.085 -0.0284 -0.3313 -0.2020
   50loPI   C5A  795   2.806   1.257   7.777  0.0218  0.1236  0.1565
   50loPI   C6A  796   2.412   1.194   7.466  0.1896  0.2372 -0.2275
   50loPI   C1B  797   3.414   0.946   8.911 -0.3316 -0.0808 -0.1132
   50loPI   C2B  798   3.455   0.772   8.599 -0.4138  0.0818 -0.2122
   50loPI   C3B  799   3.505   0.642   8.115  0.0017  0.0331  0.0290
   50loPI   C4B  800   3.358   0.802   7.760  0.0806  0.0474  0.4028
   51loPI    C1  801   6.317   6.138  10.419 -0.1191  0.0465  0.3151
   51loPI    C2  802   6.443   5.819  10.624  0.0755  0.0661  0.2278
   51loPI    C3  803   6.444   6.180  10.796 -0.0115  0.0420  0.2794
   51loPI   PO4  804   6.499   6.156  10.192 -0.1034 -0.1625  0.2589
   51loPI   GL1  805   6.587   6.097   9.758 -0.0172 -0.1028  0.1907
   51loPI   GL2  806   6.858   5.912   9.742  0.1102 -0.1431 -0.0073
   51loPI   C1A  807   6.384   5.844   9.404  0.0251 -0.1521  0.1235
   51loPI   C2A  808   6.274   5.882   9.073  0.0794  0.0302 -0.2015
   51loPI   C3A  809   6.270   5.735   8.692 -0.1083 -0.0006 -0.1169
   51loPI   C4A  810   6.227   5.667   8.302 -0.4990 -0.0155  0.0881
   51loPI   C5A  811   6.369   5.591   7.810 -0.0236 -0.0059 -0.2807
   51loPI   C6A  812   6.749   5.524   7.774 -0.1681  0.2403  0.0883
   51loPI   C1B  813   6.875   5.611   9.396 -0.0615  0.0404  0.0999
   51loPI   C2B  814   6.771   5.624   8.952  0.0357  0.1471 -0.1600
   51loPI   C3B  815   6.717   5.596   8.594 -0.3362  0.2328  0.0026
   51loPI   C4B  816   6.697   5.381   8.297 -0.1027  0.1117 -0.2701
   52loPI    C1  817  17.774   4.055   9.877 -0.2023  0.1599  0.1264
   52loPI    C2  818  18.037   4.299  10.054 -0.0289 -0.0133  0.1107
   52loPI    C3  819  17.986   3.926  10.191 -0.0269 -0.0882 -0.0895
   52loPI   PO4  820  17.800   4.092   9.619 -0.2705  0.0493  0.2748
   52loPI   GL1  821  17.703   4.036   9.183  0.1035  0.0390 -0.1166
   52loPI   GL2  822  17.918   3.711   9.103 -0.3246  0.2557  0.1383
   52loPI   C1A  823  17.749   4.165   8.727  0.4599  0.0077 -0.1393
   52loPI   C2A  824  17.686   4.223   8.317 -0.1177  0.0568 -0.0565
   52loPI   C3A  825  17.673   4.486   7.973  0.4997  0.2665  0.1127
   52loPI   C4A  826  17.677   4.736   7.590 -0.0131  0.2836  0.0436
   52loPI   C5A  827  17.729   5.049   7.332 -0.1481 -0.0477  0.1322
   52loPI   C6A  828  17.673   5.537   7.415  0.1350  0.1626  0.0778
   52loPI   C1B  829  17.992   3.748   8.698  0.4227 -0.2716  0.1875
   52loPI   C2B  830  18.086   3.777   8.326  0.4276 -0.0853  0.0689
   52loPI   C3B  831  18.015   3.892   7.883  0.1704 -0.1697 -0.1454
   52loPI   C4B  832  17.934   4.228   7.590  0.0552 -0.1114 -0.0503
   53loPI    C1  833   1.108   0.833   9.995 -0.1035  0.1439 -0.2540
   53loPI    C2  834   0.914   0.648  10.293 -0.0509  0.0558 -0.2743
   53loPI    C3  835   1.281   0.794  10.354 -0.1241  0.2255 -0.2350
   53loPI   PO4  836   1.131   0.629   9.793 -0.1301  0.1387  0.0682
   53loPI   GL1  837   1.120   0.660   9.261 -0.0370 -0.0479  0.0369
   53loPI   GL2  838   1.208   0.332   9.126  0.0318  0.0103  0.2637
   53loPI   C1A  839   1.489   0.795   8.947  0.0842  0.3520  0.1086
   53loPI   C2A  840   1.948   0.720   8.760  0.1619 -0.0412  0.2090
   53loPI   C3A  841   2.192   0.880   8.454 -0.2876  0.1824  0.0476
   53loPI   C4A  842   2.587   0.810   8.304  0.0821  0.2922 -0.1900
   53loPI   C5A  843   2.864   0.773   7.938 -0.0842  0.1052  0.3126
   53loPI   C6A  844   2.942   0.859   7.478 -0.0201 -0.1393 -0.0338
   53loPI   C1B  845   1.112   0.484   8.679 -0.0014  0.2189  0.2503
   53loPI   C2B  846   0.830   0.321   8.367 -0.2299 -0.0558 -0.0761
   53loPI   C3B  847   0.777   0.073   8.030  0.1306  0.0283  0.1792
   53loPI   C4B  848   0.785  -0.192   7.641 -0.0931 -0.1926  0.0205
   54loPI    C1  849  15.026  16.024  10.167 -0.1142  0.5308  0.1134
   54loPI    C2  850  14.787  16.060  10.485 -0.0724 -0.3354  0.2675
   54loPI    C3  851  15.182  16.029  10.535 -0.0158  0.0367  0.0854
   54loPI   PO4  852  14.903  16.232  10.022 -0.0874  0.3519 -0.2388
   54loPI   GL1  853  14.909  16.346   9.624 -0.0786  0.2713  0.1398
   54loPI   GL2  854  14.632  16.336   9.594 -0.0036 -0.0737  0.1792
   54loPI   C1A  855  15.126  16.090   9.310  0.1126  0.3130  0.1296
   54loPI   C2A  856  15.241  15.741   9.097 -0.3571 -0.2262  0.1250
   54loPI   C3A  857  15.320  15.785   8.640  0.1656 -0.0062  0.1497
   54loPI   C4A  858  15.395  15.733   8.257 -0.2654  0.0262  0.0969
   54loPI   C5A  859  15.290  15.645   7.823  0.0225  0.1791 -0.3600
   54loPI   C6A  860  15.024  15.823   7.435  0.0689  0.2098 -0.0612
   54loPI   C1B  861  14.489  16.343   9.229 -0.0731 -0.0826 -0.3110
   54loPI   C2B  862  14.358  16.363   8.781 -0.0878  0.1066 -0.1028
   54loPI   C3B  863  14.553  16.320   8.468  0.1430  0.2073 -0.0778
   54loPI   C4B  864  14.491  16.124   8.087  0.1518 -0.1155  0.1159
   55loPI    C1  865  18.535   2.814   9.967  0.2156 -0.2326 -0.1355
   55loPI    C2  866  18.176   2.833   9.792  0.0304 -0.0817  0.2477
   55loPI    C3  867  18.375   2.486   9.803 -0.1329 -0.1822  0.0927
   55loPI   PO4  868  18.692   2.988   9.832 -0.1460  0.1969  0.0760
   55loPI   GL1  869  18.878   3.271   9.382 -0.2199  0.1794  0.2315
   55loPI   GL2  870  18.624   3.098   9.260 -0.3193  0.1878 -0.3921
   55loPI   C1A  871  19.007   3.539   8.993  0.2941 -0.1653 -0.0331
   55loPI   C2A  872  18.995   3.521   8.531  0.2869  0.0613 -0.1710
   55loPI   C3A  873  19.167   3.573   8.062 -0.0779  0.0772 -0.1976
   55loPI   C4A  874  19.303   3.330   7.744 -0.1342  0.1650  0.1732
   55loPI   C5A  875  19.120   3.130   7.379 -0.1500 -0.1468 -0.1953
   55loPI   C6A  876  19.216   2.853   7.122  0.1626  0.2611 -0.2614
   55loPI   C1B  877  18.612   3.239   8.944 -0.0373  0.0638 -0.0483
   55loPI   C2B  878  18.473   3.380   8.502 -0.1003  0.1198 -0.3093
   55loPI   C3B  879  18.252   3.384   8.096 -0.1752  0.3565 -0.1796
   55loPI   C4B  880  18.182   3.196   7.702  0.1420  0.2674 -0.2501
   56loPI    C1  881  11.019  17.208  10.239 -0.1349 -0.1495  0.0859
   56loPI    C2  882  10.918  17.587  10.316 -0.0889 -0.1724  0.2634
   56loPI    C3  883  11.234  17.423  10.498 -0.1370 -0.3108  0.2231
   56loPI   PO4  884  10.935  17.182  10.025  0.2788  0.0509 -0.2875
   56loPI   GL1  885  10.762  16.774   9.679 -0.0114  0.0582 -0.3901
   56loPI   GL2  886  10.653  17.030   9.380  0.0753 -0.0414 -0.2271
   56loPI   C1A  887  10.979  16.740   9.283 -0.1508  0.0607  0.2628
   56loPI   C2A  888  11.016  16.657   8.988 -0.3055  0.0221 -0.1507
   56loPI   C3A  889  11.042  16.564   8.582  0.4023  0.3858  0.2450
   56loPI   C4A  890  11.171  16.224   8.257 -0.0637 -0.2683  0.1241
   56loPI   C5A  891  11.354  16.042   7.975 -0.1467  0.0558  0.0845
   56loPI   C6A  892  11.477  15.901   7.540  0.0579  0.0075  0.1607
   56loPI   C1B  893  10.475  16.798   9.006  0.0456 -0.1830  0.2129
   56loPI   C2B  894  10.401  16.776   8.645  0.1554  0.3836  0.0387
   56loPI   C3B  895  10.346  16.853   8.294 -0.0389 -0.2382  0.2930
   56loPI   C4B  896  10.505  16.690   7.846 -0.0690  0.0648 -0.0626
   57loPI    C1  897  12.238   5.252  10.139 -0.0604  0.1105  0.1144
   57loPI    C2  898  12.638   5.248  10.157 -0.0306 -0.4124 -0.3707
   57loPI    C3  899  12.422   5.193  10.490  0.2915 -0.0146 -0.0859
   57loPI   PO4  900  12.136   5.142   9.999  0.1826  0.0490 -0.3212
   57loPI   GL1  901  12.371   5.054   9.672 -0.1164 -0.1133  0.1111
   57loPI   GL2  902  12.198   5.286   9.498  0.0716  0.2834 -0.3099
   57loPI   C1A  903  12.282   5.095   9.097 -0.2150  0.1234  0.0636
   57loPI   C2A  904  12.407   5.176   8.625 -0.0682 -0.2679  0.3927
   57loPI   C3A  905  12.348   5.128   8.209  0.0945 -0.0390  0.2345
   57loPI   C4A  906  12.441   5.246   7.816  0.0441  0.1318  0.1302
   57loPI   C5A  907  12.169   5.608   7.616  0.1464  0.2457  0.1728
   57loPI   C6A  908  11.869   5.774   7.595  0.0256 -0.0044  0.1488
   57loPI   C1B  909  11.943   5.441   9.194  0.0070 -0.0376 -0.1653
   57loPI   C2B  910  11.730   5.335   8.897  0.2512  0.0145 -0.3260
   57loPI   C3B  911  11.456   5.248   8.550 -0.1100  0.0347  0.2185
   57loPI   C4B  912  11.220   5.150   8.215 -0.0707 -0.1576  0.1750
   58loPI    C1  913  13.650   8.644  10.172  0.0146  0.0017 -0.0547
   58loPI    C2  914  14.025   8.510  10.137  0.0300  0.0063  0.0845
   58loPI    C3  915  13.870   8.576  10.499 -0.0061  0.2844  0.0208
   58loPI   PO4  916  13.671   8.811   9.881 -0.0846 -0.2888 -0.0703
   58loPI   GL1  917  13.729   8.787   9.488  0.1832 -0.1064  0.2420
   58loPI   GL2  918  13.987   8.511   9.506  0.1331 -0.0010 -0.1249
   58loPI   C1A  919  13.945   8.834   9.106 -0.1825  0.1413  0.0864
   58loPI   C2A  920  14.263   8.809   8.938  0.1211 -0.2675  0.0763
   58loPI   C3A  921  14.375   8.744   8.545  0.1197 -0.2231 -0.0926
   58loPI   C4A  922  14.192   8.737   8.079  0.0394 -0.4522 -0.1098
   58loPI   C5A  923  13.945   8.837   7.797 -0.0831  0.1176 -0.0294
   58loPI   C6A  924  13.484   8.906   7.660 -0.1218  0.0344  0.0047
   58loPI   C1B  925  13.633   8.389   9.162 -0.0045  0.3356 -0.0610
   58loPI   C2B  926  13.388   8.377   8.755 -0.2245  0.0266  0.3083
   58loPI   C3B  927  13.231   8.164   8.332 -0.2645 -0.0155 -0.2427
   58loPI   C4B  928  13.310   8.014   7.909  0.0530  0.2161 -0.4208
   59loPI    C1  929   6.510  12.884  10.341  0.2164 -0.1933 -0.0784
   59loPI    C2  930   6.151  12.720  10.406 -0.0290  0.2478 -0.2761
   59loPI    C3  931   6.370  12.852  10.714  0.0834 -0.2522 -0.1330
   59loPI   PO4  932   6.604  12.721  10.034 -0.1417 -0.0545  0.0354
   59loPI   GL1  933   6.658  12.804   9.631  0.0045 -0.0609  0.1546
   59loPI   GL2  934   6.892  12.601   9.615 -0.0044  0.0036 -0.1977
   59loPI   C1A  935   6.737  12.910   9.265 -0.1036  0.2164 -0.0444
   59loPI   C2A  936   6.687  13.044   8.807 -0.2777  0.0534 -0.3448
   59loPI   C3A  937   6.614  13.175   8.351 -0.1699 -0.2142  0.0397
   59loPI   C4A  938   6.462  13.021   7.944 -0.2424 -0.0351 -0.0902
   59loPI   C5A  939   6.227  12.677   7.981 -0.0095 -0.1671  0.0188
   59loPI   C6A  940   6.176  12.403   8.277  0.0297 -0.1251 -0.3952
   59loPI   C1B  941   7.163  12.547   9.292 -0.1151  0.0706 -0.0245
   59loPI   C2B  942   7.151  12.702   8.898 -0.3669 -0.1221 -0.2898
   59loPI   C3B  943   7.076  12.954   8.544  0.4206  0.3226 -0.1200
   59loPI   C4B  944   6.993  12.838   8.111 -0.1418  0.0312 -0.1285
   60loPI    C1  945   4.880  12.814  10.471  0.1810  0.0885  0.1301
   60loPI    C2  946   5.104  12.653  10.761  0.2568 -0.2222 -0.0958
   60loPI    C3  947   4.755  12.825  10.851  0.3877 -0.1073  0.2067
   60loPI   PO4  948   4.818  12.553  10.252 -0.0425 -0.4233  0.0789
   60loPI   GL1  949   4.786  12.507   9.781 -0.2470 -0.0200 -0.1029
   60loPI   GL2  950   4.643  12.873   9.936  0.4657  0.2195 -0.0884
   60loPI   C1A  951   4.773  12.523   9.314 -0.1724  0.2891 -0.0159
   60loPI   C2A  952   4.680  12.575   8.913 -0.1223  0.0186  0.2196
   60loPI   C3A  953   4.815  12.829   8.669 -0.4293 -0.0952 -0.1208
   60loPI   C4A  954   4.886  12.970   8.203  0.1910  0.0397 -0.0931
   60loPI   C5A  955   5.222  13.079   7.885  0.3352 -0.0864  0.0002
   60loPI   C6A  956   5.556  13.308   7.974 -0.3005  0.0018 -0.2022
   60loPI   C1B  957   4.797  12.947   9.525 -0.0973 -0.1634 -0.0950
   60loPI   C2B  958   4.825  13.088   9.155 -0.1707 -0.3707  0.0660
   60loPI   C3B  959   5.197  13.193   8.850  0.4664  0.0668  0.0318
   60loPI   C4B  960   5.393  13.114   8.418  0.3026  0.0748 -0.2305
   61loPI    C1  961   4.340   5.803  10.227  0.0297  0.0131  0.0659
   61loPI    C2  962   4.056   5.774  10.508 -0.2313  0.0110 -0.1933
   61loPI    C3  963   4.367   6.019  10.563 -0.2297 -0.0598  0.1363
   61loPI   PO4  964   4.359   5.876  10.010 -0.0350 -0.1980  0.1103
   61loPI   GL1  965   4.585   5.853   9.685  0.0912  0.0306  0.1133
   61loPI   GL2  966   4.305   5.661   9.485  0.2554  0.2914 -0.0874
   61loPI   C1A  967   4.617   6.047   9.270  0.1860 -0.0770  0.1793
   61loPI   C2A  968   4.547   6.207   8.811 -0.0285  0.1101  0.3664
   61loPI   C3A  969   4.517   6.336   8.461  0.1773 -0.1657  0.3071
   61loPI   C4A  970   4.359   6.476   8.007 -0.5160  0.0468 -0.0115
   61loPI   C5A  971   4.187   6.370   7.739  0.2559 -0.3861 -0.1529
   61loPI   C6A  972   3.850   6.214   7.441  0.1653  0.1765  0.1169
   61loPI   C1B  973   4.251   5.741   9.035  0.1130 -0.2772 -0.3027
   61loPI   C2B  974   4.297   5.846   8.636 -0.0557 -0.3453  0.2499
   61loPI   C3B  975   4.399   5.918   8.268 -0.4023 -0.1756 -0.1527
   61loPI   C4B  976   4.782   6.025   7.997 -0.0827  0.3001 -0.0276
   62loPI    C1  977   7.281  11.218  10.411 -0.0341  0.0063  0.1470
   62loPI    C2  978   7.092  11.309  10.751 -0.0620 -0.0941  0.1586
   62loPI    C3  979   7.486  11.244  10.753  0.0010  0.2628  0.1091
   62loPI   PO4  980   7.185  11.358  10.232  0.1346  0.0539  0.1679
   62loPI   GL1  981   7.004  11.112   9.870 -0.2006 -0.0225 -0.2455
   62loPI   GL2  982   6.712  11.116  10.033 -0.1515 -0.1369 -0.0757
   62loPI   C1A  983   7.051  10.939   9.445 -0.1576  0.0270  0.1801
   62loPI   C2A  984   6.943  10.959   9.054  0.1290 -0.4249  0.1164
   62loPI   C3A  985   7.013  11.064   8.640 -0.2673  0.2688 -0.0058
   62loPI   C4A  986   7.201  10.924   8.266 -0.0424  0.2940 -0.1775
   62loPI   C5A  987   7.403  10.643   7.958 -0.0880  0.1408  0.1102
   62loPI   C6A  988   7.504  10.326   7.828  0.3874  0.2220 -0.0863
   62loPI   C1B  989   6.622  11.267   9.586 -0.2685 -0.0400 -0.0056
   62loPI   C2B  990   6.398  11.464   9.357  0.4392 -0.4228  0.1138
   62loPI   C3B  991   6.417  11.764   9.115 -0.1307 -0.2525  0.0127
   62loPI   C4B  992   6.639  12.044   8.972 -0.1852 -0.1744 -0.1214
   63loPI    C1  993  10.621  15.169  10.310  0.2611 -0.0688 -0.1463
   63loPI    C2  994  10.695  15.419  10.613  0.0455 -0.0939 -0.0713
   63loPI    C3  995  10.878  15.064  10.598 -0.0588 -0.1569  0.1132
   63loPI   PO4  996  10.516  15.305  10.084  0.0612  0.1266  0.0274
   63loPI   GL1  997  10.763  15.328   9.728  0.4659 -0.3480  0.0279
   63loPI   GL2  998  10.971  15.533   9.498  0.3252  0.1291  0.1534
   63loPI   C1A  999  10.505  15.309   9.386  0.2681 -0.2221 -0.0576
   63loPI   C2A 1000  10.476  15.176   8.993  0.1294  0.4672  0.1810
   63loPI   C3A 1001  10.577  15.210   8.629  0.1857 -0.1009 -0.1009
   63loPI   C4A 1002  10.814  15.279   8.346 -0.1711 -0.1529  0.3932
   63loPI   C5A 1003  11.161  15.135   8.170  0.2339  0.0126  0.2735
   63loPI   C6A 1004  11.371  15.119   7.727 -0.2115 -0.0550  0.1789
   63loPI   C1B 1005  10.911  15.498   9.068 -0.0007 -0.3503 -0.1927
   63loPI   C2B 1006  10.664  15.766   8.740 -0.1171  0.0642 -0.2405
   63loPI   C3B 1007  10.660  15.828   8.280  0.0151 -0.0936 -0.2438
   63loPI   C4B 1008  10.757  15.952   7.861 -0.3876  0.1237  0.0010
   64loPI    C1 1009  14.237  13.264  10.051  0.0626  0.0434 -0.2697
   64loPI    C2 1010  14.232  13.650   9.947 -0.0428  0.1305  0.0445
   64loPI    C3 1011  14.420  13.535  10.281 -0.2112 -0.0573  0.0764
   64loPI   PO4 1012  14.057  13.194  10.016  0.2122 -0.0594  0.3404
   64loPI   GL1 1013  13.716  13.298   9.721 -0.0877  0.0492 -0.0695
   64loPI   GL2 1014  13.957  13.425   9.575  0.4233 -0.2720  0.0589
   64loPI   C1A 1015  13.497  13.558   9.325 -0.1531 -0.2463 -0.0482
   64loPI   C2A 1016  13.250  13.571   8.941  0.1518  0.0484 -0.0754
   64loPI   C3A 1017  13.096  13.567   8.536 -0.3624 -0.1205  0.1495
   64loPI   C4A 1018  13.133  13.448   8.065  0.2601 -0.0573 -0.0727
   64loPI   C5A 1019  12.943  13.114   7.851  0.1221 -0.1530 -0.0341
   64loPI   C6A 1020  12.712  12.982   7.599  0.0111 -0.1518  0.1305
   64loPI   C1B 1021  13.924  13.512   9.039 -0.2598  0.0589  0.0586
   64loPI   C2B 1022  13.965  13.628   8.586  0.4850  0.0837 -0.2807
   64loPI   C3B 1023  13.980  13.855   8.319  0.0196 -0.0488 -0.2410
   64loPI   C4B 1024  13.948  13.709   7.926  0.0435 -0.4945 -0.2037
   65loPI    C1 1025  16.151   6.760  10.190 -0.1803 -0.2217 -0.0753
   65loPI    C2 1026  16.188   6.560  10.535  0.1511  0.0358  0.0439
   65loPI    C3 1027  16.490   6.785  10.401 -0.0727  0.1490 -0.2842
   65loPI   PO4 1028  16.036   6.535  10.047  0.0227 -0.1123 -0.2477
   65loPI   GL1 1029  15.973   6.703   9.642 -0.1369  0.3845 -0.2530
   65loPI   GL2 1030  15.693   6.735   9.498  0.0248 -0.0377 -0.1464
   65loPI   C1A 1031  16.032   6.421   9.248  0.1686 -0.0318  0.0893
   65loPI   C2A 1032  16.149   6.428   8.784 -0.3405  0.0116  0.0290
   65loPI   C3A 1033  16.088   6.395   8.372 -0.1155  0.0216  0.2838
   65loPI   C4A 1034  16.167   6.583   7.972 -0.1388  0.1619  0.0571
   65loPI   C5A 1035  16.132   6.844   7.567  0.4541 -0.0144 -0.3448
   65loPI   C6A 1036  16.094   7.297   7.489  0.3558  0.1589 -0.1728
   65loPI   C1B 1037  15.994   6.971   9.223 -0.2410 -0.1890  0.3583
   65loPI   C2B 1038  16.022   7.136   8.822 -0.1295 -0.0053 -0.2942
   65loPI   C3B 1039  16.100   7.165   8.443 -0.0060  0.0347  0.0054
   65loPI   C4B 1040  16.021   7.122   8.007 -0.1201  0.1432  0.3729
   66loPI    C1 1041   7.045   1.885  10.062  0.1615 -0.1684  0.1482
   66loPI    C2 1042   6.742   2.086  10.228  0.1238  0.0648 -0.1926
   66loPI    C3 1043   6.715   1.691  10.177 -0.0504  0.0588 -0.0631
   66loPI   PO4 1044   7.059   2.126   9.830  0.4192  0.1687 -0.0060
   66loPI   GL1 1045   7.226   2.157   9.505 -0.0863  0.2010 -0.2385
   66loPI   GL2 1046   7.168   2.525   9.525 -0.3123 -0.1820 -0.1142
   66loPI   C1A 1047   7.336   2.218   9.167  0.0310  0.2754  0.1536
   66loPI   C2A 1048   7.319   2.296   8.796 -0.3099 -0.0425  0.2092
   66loPI   C3A 1049   7.321   2.618   8.514 -0.1793  0.4708  0.1090
   66loPI   C4A 1050   7.285   2.587   8.083 -0.1152 -0.1678 -0.1819
   66loPI   C5A 1051   7.497   2.787   7.799 -0.0537 -0.0424  0.3894
   66loPI   C6A 1052   7.618   3.135   7.577 -0.0636  0.2980 -0.0077
   66loPI   C1B 1053   7.263   2.672   9.069 -0.0769  0.0239  0.2450
   66loPI   C2B 1054   6.943   2.846   8.757 -0.2274  0.1082  0.3924
   66loPI   C3B 1055   6.791   2.941   8.322  0.3880 -0.3781 -0.0477
   66loPI   C4B 1056   6.500   3.038   8.054  0.0025  0.1985 -0.3004
   67loPI    C1 1057   1.846   4.853  10.081 -0.3335  0.3856 -0.2817
   67loPI    C2 1058   1.920   5.232  10.184 -0.0075  0.2673 -0.0635
   67loPI    C3 1059   1.621   5.032  10.359  0.0945  0.2897  0.1397
   67loPI   PO4 1060   1.844   4.867   9.750 -0.1357  0.0545 -0.0949
   67loPI   GL1 1061   1.611   4.904   9.499  0.3687  0.0519  0.2297
   67loPI   GL2 1062   1.430   4.693   9.508  0.0905  0.1393  0.2012
   67loPI   C1A 1063   1.650   5.022   9.180  0.1788  0.0121  0.0504
   67loPI   C2A 1064   1.836   5.037   8.790 -0.1581  0.0214  0.3436
   67loPI   C3A 1065   1.912   5.008   8.348 -0.2413 -0.1800 -0.3086
   67loPI   C4A 1066   1.788   4.961   7.967  0.0251  0.3136  0.2693
   67loPI   C5A 1067   1.759   4.913   7.495 -0.1134  0.1013  0.1493
   67loPI   C6A 1068   1.779   4.615   7.113 -0.0320 -0.0275 -0.1592
   67loPI   C1B 1069   1.182   4.779   9.143 -0.1339  0.0724  0.0035
   67loPI   C2B 1070   1.474   4.733   8.825 -0.1550  0.1900  0.2892
   67loPI   C3B 1071   1.483   4.784   8.359  0.0142  0.2354  0.1563
   67loPI   C4B 1072   1.297   4.803   7.926 -0.2370 -0.0033  0.0643
   68loPI    C1 1073   0.915  16.053  10.187 -0.1741  0.3940  0.0753
   68loPI    C2 1074   0.530  16.071  10.293 -0.1187  0.1973  0.3169
   68loPI    C3 1075   0.817  16.118  10.569  0.0289  0.0419  0.1924
   68loPI   PO4 1076   0.957  16.170   9.948  0.0544 -0.0950 -0.0655
   68loPI   GL1 1077   1.152  16.224   9.489 -0.1616  0.1819 -0.3717
   68loPI   GL2 1078   0.875  16.393   9.439 -0.0346  0.0776 -0.1831
   68loPI   C1A 1079   1.091  16.366   8.975 -0.0683 -0.0391  0.0039
   68loPI   C2A 1080   1.066  16.185   8.507  0.1603  0.3401  0.0568
   68loPI   C3A 1081   1.313  16.068   8.232  0.0293  0.0662  0.1393
   68loPI   C4A 1082   1.255  15.869   7.739 -0.0637 -0.0861  0.1384
   68loPI   C5A 1083   0.819  15.815   7.536  0.1834  0.1558  0.1482
   68loPI   C6A 1084   0.457  15.975   7.636  0.3173  0.1136  0.4671
   68loPI   C1B 1085   0.608  16.296   9.104  0.3866 -0.1633 -0.2398
   68loPI   C2B 1086   0.625  16.080   8.670 -0.1253  0.3702 -0.0116
   68loPI   C3B 1087   0.649  16.091   8.182  0.0594  0.3189 -0.0499
   68loPI   C4B 1088   0.881  16.165   7.952 -0.3886  0.2246  0.1549
   69loPI    C1 1089  11.614  10.141  10.584 -0.0741  0.0056  0.0442
   69loPI    C2 1090  11.913  10.170  10.848  0.1473  0.0023 -0.2024
   69loPI    C3 1091  11.587   9.958  10.938  0.1798  0.0780  0.1034
   69loPI   PO4 1092  11.788  10.075  10.320  0.0673 -0.1084 -0.2559
   69loPI   GL1 1093  11.838  10.015   9.909 -0.3039 -0.1315  0.2105
   69loPI   GL2 1094  12.028  10.276   9.886  0.1720 -0.3420 -0.3123
   69loPI   C1A 1095  11.871  10.012   9.460  0.0519  0.0899 -0.1777
   69loPI   C2A 1096  11.901   9.972   9.017 -0.1688  0.0134 -0.3533
   69loPI   C3A 1097  11.948  10.003   8.713  0.0295  0.0487 -0.1883
   69loPI   C4A 1098  11.826   9.765   8.228  0.1063 -0.1369  0.0007
   69loPI   C5A 1099  11.998   9.733   7.840  0.1029  0.1311 -0.0402
   69loPI   C6A 1100  12.323   9.542   7.783 -0.1686  0.2043  0.1262
   69loPI   C1B 1101  12.288  10.314   9.611  0.0212 -0.3435  0.0550
   69loPI   C2B 1102  12.215  10.350   9.168 -0.0660 -0.0191  0.4821
   69loPI   C3B 1103  12.208  10.538   8.688  0.0888  0.1742  0.1385
   69loPI   C4B 1104  12.230  10.393   8.280 -0.0022  0.1623  0.3248
   70loPI    C1 1105  17.474  15.050  10.084 -0.1494  0.1370  0.1149
   70loPI    C2 1106  17.244  14.728  10.025 -0.0201  0.0627  0.0119
   70loPI    C3 1107  17.142  14.998  10.302 -0.2345  0.0338 -0.0374
   70loPI   PO4 1108  17.509  15.276   9.856  0.0602  0.1636 -0.1025
   70loPI   GL1 1109  17.208  15.464   9.597  0.1807  0.2067 -0.2031
   70loPI   GL2 1110  17.163  15.613   9.267  0.1956  0.1357 -0.0936
   70loPI   C1A 1111  16.959  15.132   9.325  0.3440  0.0925 -0.0620
   70loPI   C2A 1112  17.024  14.863   8.956 -0.1067 -0.0549  0.0632
   70loPI   C3A 1113  17.196  14.912   8.533  0.3620  0.1802 -0.0471
   70loPI   C4A 1114  17.364  14.923   8.117 -0.1099 -0.2738 -0.0925
   70loPI   C5A 1115  17.607  15.132   7.883 -0.2352 -0.1559  0.1474
   70loPI   C6A 1116  17.787  15.131   7.514 -0.0331  0.1800  0.2201
   70loPI   C1B 1117  17.276  15.251   8.938 -0.0449 -0.0712 -0.0330
   70loPI   C2B 1118  17.270  15.378   8.456  0.2140 -0.0179  0.1564
   70loPI   C3B 1119  17.322  15.514   8.069  0.0433 -0.3072  0.2666
   70loPI   C4B 1120  17.185  15.378   7.669 -0.1860 -0.3114 -0.1339
   71loPI    C1 1121   6.186   9.154  10.510  0.0686 -0.1074 -0.0899
   71loPI    C2 1122   6.417   9.251  10.823 -0.0010  0.2130 -0.1338
   71loPI    C3 1123   6.028   9.174  10.877  0.0979 -0.2746 -0.0675
   71loPI   PO4 1124   6.299   9.080  10.356  0.1753  0.0855  0.0241
   71loPI   GL1 1125   6.340   9.067   9.941  0.0885  0.0890 -0.0806
   71loPI   GL2 1126   6.581   9.272   9.918 -0.1375  0.0612 -0.2315
   71loPI   C1A 1127   6.314   9.011   9.500 -0.2032  0.0181 -0.3013
   71loPI   C2A 1128   6.213   8.974   9.034  0.0570 -0.0828 -0.2237
   71loPI   C3A 1129   6.238   8.933   8.630  0.3044  0.0951  0.3035
   71loPI   C4A 1130   6.153   9.193   8.244  0.2416  0.2053  0.0812
   71loPI   C5A 1131   6.149   9.545   7.974  0.1789 -0.3169  0.0614
   71loPI   C6A 1132   5.759   9.889   7.948  0.0212 -0.0263  0.3764
   71loPI   C1B 1133   6.719   9.250   9.491  0.2944 -0.0633  0.0185
   71loPI   C2B 1134   6.795   9.372   9.127  0.0699 -0.1864  0.0164
   71loPI   C3B 1135   6.820   9.651   8.778 -0.1087  0.2868  0.1715
   71loPI   C4B 1136   6.693  10.036   8.504  0.1565 -0.3031 -0.1707
   72loPI    C1 1137   2.170   4.258   9.704 -0.0813  0.1253 -0.0931
   72loPI    C2 1138   2.020   4.040  10.004 -0.0795  0.0751 -0.1285
   72loPI    C3 1139   2.160   4.408  10.075  0.2659 -0.0771  0.0028
   72loPI   PO4 1140   2.302   4.051   9.563 -0.1170 -0.1366 -0.1862
   72loPI   GL1 1141   2.296   3.954   9.066  0.1490 -0.4734  0.1133
   72loPI   GL2 1142   2.018   3.921   9.123  0.0699  0.2418 -0.1120
   72loPI   C1A 1143   2.213   3.974   8.638  0.0884 -0.2211 -0.1153
   72loPI   C2A 1144   2.190   3.994   8.225 -0.2194 -0.4644  0.0205
   72loPI   C3A 1145   2.033   4.169   7.853 -0.3604  0.0999  0.1319
   72loPI   C4A 1146   1.963   4.311   7.521 -0.0265 -0.2002  0.3070
   72loPI   C5A 1147   1.493   4.482   7.497  0.0752 -0.0457 -0.2068
   72loPI   C6A 1148   1.044   4.544   7.555 -0.1146 -0.1531  0.0889
   72loPI   C1B 1149   1.733   3.939   8.753  0.2205 -0.0308 -0.0096
   72loPI   C2B 1150   1.692   3.762   8.370  0.2218  0.0308  0.2576
   72loPI   C3B 1151   1.474   3.533   7.901  0.0648 -0.0959 -0.0861
   72loPI   C4B 1152   1.153   3.570   7.513 -0.0833 -0.2701 -0.3869
   73loPI    C1 1153  10.463  10.415  10.539  0.0132  0.1418 -0.3496
   73loPI    C2 1154  10.784  10.646  10.481  0.1872  0.0175  0.0758
   73loPI    C3 1155  10.829  10.272  10.616 -0.1421  0.0410  0.2620
   73loPI   PO4 1156  10.350  10.543  10.321 -0.1600 -0.0096 -0.1385
   73loPI   GL1 1157  10.510  10.675   9.897 -0.0829 -0.0409  0.2494
   73loPI   GL2 1158  10.757  10.627   9.655  0.0546  0.2037 -0.1241
   73loPI   C1A 1159  10.327  10.846   9.468 -0.2521  0.1688 -0.2155
   73loPI   C2A 1160  10.218  10.725   8.992 -0.2378  0.2174 -0.0201
   73loPI   C3A 1161  10.312  10.761   8.494 -0.6261 -0.1405  0.1174
   73loPI   C4A 1162  10.292  10.993   8.130 -0.2887 -0.1280  0.2343
   73loPI   C5A 1163  10.111  11.125   7.736 -0.1784 -0.1361  0.0287
   73loPI   C6A 1164  10.396  11.275   7.439 -0.1300  0.1381 -0.1616
   73loPI   C1B 1165  10.692  10.695   9.171  0.5175  0.3240 -0.4208
   73loPI   C2B 1166  10.737  10.803   8.743 -0.2026  0.0367 -0.0509
   73loPI   C3B 1167  10.702  11.126   8.472 -0.0312 -0.0242 -0.0851
   73loPI   C4B 1168  10.891  11.485   8.295  0.0786  0.3238 -0.0453
   74loPI    C1 1169  16.188   3.006   9.745 -0.1891  0.1297  0.0794
   74loPI    C2 1170  15.983   2.733   9.955  0.0354 -0.1537 -0.0629
   74loPI    C3 1171  16.291   2.925  10.123 -0.0475 -0.0743 -0.0009
   74loPI   PO4 1172  16.123   3.076   9.551 -0.2866 -0.3690 -0.1098
   74loPI   GL1 1173  16.157   3.533   9.357 -0.3372  0.0051 -0.0527
   74loPI   GL2 1174  16.014   3.759   9.127  0.1267 -0.3578  0.0067
   74loPI   C1A 1175  16.283   3.246   8.948  0.2798  0.1094 -0.1735
   74loPI   C2A 1176  16.317   3.224   8.441  0.3358 -0.0274 -0.2645
   74loPI   C3A 1177  16.322   3.325   8.005 -0.4469  0.1109 -0.3093
   74loPI   C4A 1178  16.322   2.987   7.771  0.3904 -0.1436  0.1721
   74loPI   C5A 1179  16.671   2.709   7.671  0.2059 -0.0257  0.2125
   74loPI   C6A 1180  16.814   2.293   7.502 -0.1792 -0.1612 -0.2631
   74loPI   C1B 1181  15.893   3.638   8.700 -0.2116 -0.0223 -0.2791
   74loPI   C2B 1182  15.708   3.795   8.293  0.2469 -0.0246  0.2634
   74loPI   C3B 1183  15.527   3.923   7.944 -0.3727 -0.0503 -0.2685
   74loPI   C4B 1184  15.383   4.027   7.566 -0.2343 -0.2968  0.1240
   75loPI    C1 1185   1.860  17.831  10.082  0.0413  0.3000  0.2190
   75loPI    C2 1186   1.496  17.935  10.210 -0.1449 -0.1031  0.0333
   75loPI    C3 1187   1.686  17.625  10.377  0.0124 -0.0416 -0.0302
   75loPI   PO4 1188   1.874  17.858   9.788  0.0384  0.2477 -0.1410
   75loPI   GL1 1189   2.140  17.726   9.373 -0.0592  0.0572  0.4056
   75loPI   GL2 1190   2.057  17.432   9.405 -0.0636  0.1293 -0.2724
   75loPI   C1A 1191   2.134  17.951   9.039 -0.0426 -0.0011  0.0653
   75loPI   C2A 1192   2.103  18.123   8.611  0.2411  0.1250  0.2906
   75loPI   C3A 1193   2.069  18.213   8.085 -0.0582  0.0722 -0.0758
   75loPI   C4A 1194   2.127  18.295   7.683 -0.1194  0.1724  0.3638
   75loPI   C5A 1195   2.062  18.374   7.225 -0.1701 -0.3604 -0.2124
   75loPI   C6A 1196   2.078  18.549   6.975  0.2704 -0.0331  0.0151
   75loPI   C1B 1197   1.860  17.120   9.035  0.0052  0.2268 -0.1302
   75loPI   C2B 1198   2.087  17.099   8.685  0.0209 -0.0665 -0.2423
   75loPI   C3B 1199   2.460  17.066   8.497 -0.0057 -0.0905 -0.0417
   75loPI   C4B 1200   2.701  17.182   8.120 -0.1510 -0.2338  0.1743
   76loPI    C1 1201   6.952  13.728  10.339  0.1923  0.0985  0.1993
   76loPI    C2 1202   6.933  13.340  10.246  0.0785  0.1163  0.1452
   76loPI    C3 1203   6.606  13.531  10.373  0.0912  0.2372 -0.0006
   76loPI   PO4 1204   7.100  13.887  10.158  0.0462  0.0908 -0.0344
   76loPI   GL1 1205   7.227  14.016   9.719 -0.0805  0.2813  0.3224
   76loPI   GL2 1206   7.445  13.819   9.719 -0.3021 -0.1721  0.0154
   76loPI   C1A 1207   7.065  14.230   9.256  0.2976  0.1398  0.1462
   76loPI   C2A 1208   7.242  14.332   8.843  0.1046  0.1966 -0.3136
   76loPI   C3A 1209   7.370  14.350   8.424  0.0596 -0.2358 -0.0772
   76loPI   C4A 1210   7.509  14.305   8.057 -0.1514  0.0244 -0.0566
   76loPI   C5A 1211   7.498  14.523   7.685  0.1331  0.0050 -0.1226
   76loPI   C6A 1212   7.560  14.898   7.445  0.2098 -0.2086  0.1442
   76loPI   C1B 1213   7.227  13.711   9.334  0.0661  0.2830 -0.2111
   76loPI   C2B 1214   7.366  13.847   8.864  0.2059 -0.2215  0.1584
   76loPI   C3B 1215   7.384  13.786   8.438 -0.1257  0.2613 -0.0340
   76loPI   C4B 1216   7.259  13.674   8.049  0.4692  0.0736  0.2205
   77loPI    C1 1217  18.234   4.788   9.791  0.1309  0.0157 -0.0072
   77loPI    C2 1218  18.234   5.130   9.584 -0.0615  0.0539  0.0537
   77loPI    C3 1219  18.473   5.088   9.902 -0.0197  0.1228  0.0316
   77loPI   PO4 1220  18.143   4.616   9.630  0.2875 -0.1338 -0.0604
   77loPI   GL1 1221  17.835   4.499   9.311  0.0660  0.1528  0.0925
   77loPI   GL2 1222  17.807   4.840   9.341  0.0974  0.3447  0.3815
   77loPI   C1A 1223  17.752   4.637   8.874 -0.0742  0.1580 -0.2730
   77loPI   C2A 1224  17.834   4.664   8.419  0.0685  0.4025 -0.0486
   77loPI   C3A 1225  17.692   4.944   8.196  0.0290 -0.0220 -0.1810
   77loPI   C4A 1226  17.513   5.150   7.831 -0.2939  0.0529 -0.1755
   77loPI   C5A 1227  17.149   5.523   7.660  0.0963  0.2787  0.0081
   77loPI   C6A 1228  16.895   5.727   7.304 -0.2147  0.0221 -0.1207
   77loPI   C1B 1229  18.044   5.121   9.091  0.2033  0.2561  0.0869
   77loPI   C2B 1230  17.947   5.257   8.702 -0.1044 -0.2633 -0.1204
   77loPI   C3B 1231  18.090   5.213   8.251  0.0906  0.0492 -0.2463
   77loPI   C4B 1232  18.023   5.405   7.803 -0.0975  0.0363 -0.1374
   78loPI    C1 1233   6.666   8.805  10.647 -0.2194 -0.3396  0.0286
   78loPI    C2 1234   6.892   8.574  10.883  0.3509 -0.1565 -0.3178
   78loPI    C3 1235   6.792   8.944  11.000  0.0878 -0.2932 -0.0967
   78loPI   PO4 1236   6.828   8.726  10.360 -0.3946  0.0057  0.3074
   78loPI   GL1 1237   6.737   8.585  10.034 -0.1139 -0.2675 -0.0432
   78loPI   GL2 1238   6.898   8.300   9.874  0.2635 -0.1286 -0.0727
   78loPI   C1A 1239   6.736   8.781   9.655  0.2622 -0.1272  0.4001
   78loPI   C2A 1240   6.721   8.795   9.160 -0.1939 -0.3353  0.1624
   78loPI   C3A 1241   6.673   8.631   8.772 -0.0349  0.0298 -0.3087
   78loPI   C4A 1242   6.436   8.526   8.430 -0.2367  0.2643 -0.2299
   78loPI   C5A 1243   6.233   8.401   8.037 -0.1441 -0.1560  0.0159
   78loPI   C6A 1244   6.507   8.217   7.748 -0.2103  0.0291  0.0164
   78loPI   C1B 1245   7.115   8.395   9.613 -0.0938  0.1980 -0.0866
   78loPI   C2B 1246   7.171   8.470   9.314 -0.1007  0.2065  0.0342
   78loPI   C3B 1247   7.155   8.545   8.963  0.2577 -0.1010  0.0186
   78loPI   C4B 1248   7.239   8.519   8.622 -0.1302 -0.1928  0.0736
   79loPI    C1 1249  18.209  13.747  10.431 -0.0585 -0.0515 -0.2684
   79loPI    C2 1250  17.889  13.976  10.504 -0.0750 -0.0510 -0.3415
   79loPI    C3 1251  18.034  13.738  10.790  0.2086  0.3759 -0.1189
   79loPI   PO4 1252  18.205  13.755  10.180  0.0651 -0.0044  0.2155
   79loPI   GL1 1253  17.860  13.655   9.892  0.1770  0.0575 -0.1859
   79loPI   GL2 1254  17.538  13.663  10.118 -0.0782 -0.1728 -0.1287
   79loPI   C1A 1255  18.020  13.669   9.448  0.2159  0.1848  0.1230
   79loPI   C2A 1256  17.923  13.679   9.001  0.0183  0.1968 -0.2800
   79loPI   C3A 1257  17.755  13.525   8.633  0.0848  0.0963 -0.1926
   79loPI   C4A 1258  17.485  13.400   8.404 -0.0027 -0.0622  0.1990
   79loPI   C5A 1259  17.390  13.302   8.073 -0.0856 -0.0253  0.1441
   79loPI   C6A 1260  17.550  13.089   7.786 -0.1474 -0.1797  0.0587
   79loPI   C1B 1261  17.413  13.806   9.791  0.1668 -0.2650 -0.0646
   79loPI   C2B 1262  17.523  13.795   9.402 -0.0003  0.1371 -0.0776
   79loPI   C3B 1263  17.519  13.920   8.924  0.1275  0.0569  0.2161
   79loPI   C4B 1264  17.523  13.969   8.519  0.0756 -0.0413 -0.1191
   80loPI    C1 1265   1.238  11.874   9.937 -0.0179 -0.0475 -0.1659
   80loPI    C2 1266   1.280  11.479   9.886 -0.1494 -0.0708 -0.0985
   80loPI    C3 1267   1.435  11.656  10.209 -0.2638 -0.1004 -0.0267
   80loPI   PO4 1268   1.031  11.959   9.881  0.2121 -0.2021  0.4566
   80loPI   GL1 1269   1.026  11.984   9.504  0.0519 -0.0242 -0.0812
   80loPI   GL2 1270   0.986  12.291   9.522 -0.0047  0.0204 -0.0209
   80loPI   C1A 1271   1.139  11.855   8.971  0.2142 -0.0772 -0.1390
   80loPI   C2A 1272   1.167  11.925   8.469 -0.2702  0.0798  0.1358
   80loPI   C3A 1273   1.298  12.106   8.053 -0.0167 -0.0572  0.3464
   80loPI   C4A 1274   1.205  12.518   7.760 -0.2360 -0.1995 -0.0974
   80loPI   C5A 1275   1.100  12.975   7.702 -0.0811 -0.1980  0.2296
   80loPI   C6A 1276   1.027  13.476   7.751 -0.1452 -0.0156  0.3687
   80loPI   C1B 1277   1.202  12.300   9.155  0.0141 -0.1593  0.3526
   80loPI   C2B 1278   1.133  12.448   8.837 -0.1145  0.1608 -0.0316
   80loPI   C3B 1279   1.137  12.474   8.384  0.0197 -0.1039 -0.0514
   80loPI   C4B 1280   0.986  12.726   8.166 -0.2030  0.0410 -0.4604
   81loPI    C1 1281   2.491   0.059   9.782  0.0353  0.0021 -0.2580
   81loPI    C2 1282   2.617  -0.213  10.046 -0.0481  0.0951 -0.1210
   81loPI    C3 1283   2.745   0.165  10.072 -0.1362  0.1271 -0.1517
   81loPI   PO4 1284   2.539  -0.090   9.548  0.0913  0.1528  0.0850
   81loPI   GL1 1285   2.214  -0.187   9.333  0.1104 -0.0998 -0.1816
   81loPI   GL2 1286   1.922  -0.402   9.392 -0.0928  0.1556 -0.1184
   81loPI   C1A 1287   2.350  -0.289   8.975  0.0441 -0.1403  0.2725
   81loPI   C2A 1288   2.341  -0.077   8.587 -0.2329  0.2621 -0.1815
   81loPI   C3A 1289   2.301  -0.051   8.144 -0.0791 -0.1872  0.0541
   81loPI   C4A 1290   2.307   0.146   7.784 -0.4979 -0.1483 -0.1877
   81loPI   C5A 1291   2.062   0.194   7.374  0.0153  0.3423  0.2344
   81loPI   C6A 1292   1.969   0.648   7.250 -0.1899  0.2525  0.2019
   81loPI   C1B 1293   1.654  -0.540   9.082  0.0286  0.1043  0.0663
   81loPI   C2B 1294   1.595  -0.542   8.648  0.1674 -0.0428 -0.1645
   81loPI   C3B 1295   1.605  -0.573   8.280 -0.2396 -0.1198 -0.3149
   81loPI   C4B 1296   1.672  -0.724   7.786  0.3783  0.1251 -0.0329
   82loPI    C1 1297   2.272   8.777  10.409 -0.2318  0.3960 -0.1198
   82loPI    C2 1298   2.036   8.614  10.688  0.2277 -0.1883 -0.0522
   82loPI    C3 1299   2.197   8.975  10.749 -0.2746  0.0204  0.0951
   82loPI   PO4 1300   2.241   8.862  10.209  0.3079 -0.1225 -0.0642
   82loPI   GL1 1301   1.992   8.867   9.852 -0.0442  0.1085 -0.0417
   82loPI   GL2 1302   2.167   8.584   9.843  0.0574  0.0348  0.0440
   82loPI   C1A 1303   2.099   8.821   9.475  0.3464 -0.2950  0.2576
   82loPI   C2A 1304   2.294   8.848   9.190 -0.2794  0.0726 -0.1148
   82loPI   C3A 1305   2.326   8.945   8.803  0.1363  0.0359  0.0128
   82loPI   C4A 1306   2.313   9.046   8.409  0.1522 -0.5321 -0.2175
   82loPI   C5A 1307   2.367   9.215   8.055 -0.2176 -0.2575 -0.1646
   82loPI   C6A 1308   2.230   9.102   7.679  0.2284 -0.1082 -0.1208
   82loPI   C1B 1309   2.276   8.233   9.640  0.1007  0.1349  0.2506
   82loPI   C2B 1310   2.365   8.284   9.177 -0.2310 -0.2033 -0.3383
   82loPI   C3B 1311   2.465   8.424   8.759 -0.0504  0.2203  0.1791
   82loPI   C4B 1312   2.513   8.332   8.310 -0.1124  0.0981  0.2099
   83loPI    C1 1313  14.433  17.578   9.936 -0.1147  0.1136  0.0721
   83loPI    C2 1314  14.638  17.235   9.918  0.0157  0.2075 -0.3389
   83loPI    C3 1315  14.488  17.360  10.267  0.0347 -0.2247 -0.1695
   83loPI   PO4 1316  14.636  17.760   9.832 -0.3227  0.0938  0.1138
   83loPI   GL1 1317  14.802  17.534   9.526  0.1599 -0.0661 -0.0901
   83loPI   GL2 1318  14.486  17.487   9.450 -0.1024  0.1033  0.2352
   83loPI   C1A 1319  14.912  17.684   9.180 -0.0788 -0.0055  0.0553
   83loPI   C2A 1320  14.940  17.609   8.727  0.0769  0.1365  0.2828
   83loPI   C3A 1321  15.041  17.765   8.322 -0.1496  0.2262 -0.0903
   83loPI   C4A 1322  15.004  17.791   7.894 -0.0970 -0.2728  0.0346
   83loPI   C5A 1323  14.835  18.057   7.524 -0.2484  0.0403  0.1592
   83loPI   C6A 1324  14.639  18.468   7.455  0.1738  0.0644  0.0657
   83loPI   C1B 1325  14.491  17.382   9.107 -0.4386  0.1148 -0.2751
   83loPI   C2B 1326  14.512  17.332   8.683  0.1559  0.1088 -0.0136
   83loPI   C3B 1327  14.772  17.276   8.283  0.2638  0.0221 -0.1362
   83loPI   C4B 1328  14.810  17.021   7.963 -0.3717 -0.0369  0.1685
   84loPI    C1 1329  10.417  13.314  10.615 -0.2870 -0.0680 -0.0833
   84loPI    C2 1330  10.170  13.627  10.578 -0.1925  0.0716  0.3946
   84loPI    C3 1331  10.031  13.277  10.713 -0.2702 -0.0612 -0.0141
   84loPI   PO4 1332  10.619  13.334  10.388  0.0749 -0.0672  0.4602
   84loPI   GL1 1333  10.720  13.211   9.943  0.0287 -0.0590 -0.3062
   84loPI   GL2 1334  11.010  13.342   9.848 -0.0536 -0.0406  0.0862
   84loPI   C1A 1335  10.722  13.108   9.530  0.4306 -0.0938 -0.1796
   84loPI   C2A 1336  10.858  13.028   9.107  0.2207  0.0090  0.4253
   84loPI   C3A 1337  10.955  12.977   8.634 -0.3069 -0.0655  0.3010
   84loPI   C4A 1338  10.873  12.872   8.243  0.1963  0.2184  0.0847
   84loPI   C5A 1339  10.617  12.656   7.979  0.2633 -0.2456  0.0983
   84loPI   C6A 1340  10.463  12.329   7.758  0.3512 -0.2254  0.1316
   84loPI   C1B 1341  11.180  13.237   9.442  0.1537  0.0826  0.1455
   84loPI   C2B 1342  11.210  13.325   8.986 -0.3777 -0.0197 -0.2348
   84loPI   C3B 1343  11.167  13.614   8.596 -0.1368  0.1110  0.0768
   84loPI   C4B 1344  10.863  13.855   8.455  0.3375 -0.1734  0.1408
   85loPI    C1 1345  13.893   1.501  10.065 -0.1684 -0.1831  0.1869
   85loPI    C2 1346  13.991   1.635  10.428 -0.0346  0.0774  0.0570
   85loPI    C3 1347  14.218   1.359  10.249  0.0585  0.1549  0.0551
   85loPI   PO4 1348  13.916   1.654   9.833  0.1051 -0.1638 -0.0522
   85loPI   GL1 1349  14.053   1.637   9.401  0.0754  0.1127  0.0447
   85loPI   GL2 1350  13.938   1.380   9.343  0.1255 -0.2012  0.2252
   85loPI   C1A 1351  14.145   1.636   8.956  0.0436 -0.1204 -0.0204
   85loPI   C2A 1352  14.130   1.760   8.525 -0.1699 -0.0017  0.1665
   85loPI   C3A 1353  14.240   1.809   8.049 -0.0150  0.0460  0.0622
   85loPI   C4A 1354  14.201   1.532   7.776  0.1051  0.0481  0.5973
   85loPI   C5A 1355  14.127   1.058   7.700 -0.0097 -0.0518  0.2568
   85loPI   C6A 1356  13.850   0.860   7.920  0.0543  0.1229 -0.0594
   85loPI   C1B 1357  13.697   1.446   9.040 -0.1076  0.1095  0.1595
   85loPI   C2B 1358  13.708   1.495   8.676 -0.2555 -0.2117  0.4572
   85loPI   C3B 1359  13.564   1.748   8.288  0.2511 -0.3188 -0.3389
   85loPI   C4B 1360  13.494   2.145   8.128  0.1823  0.1672 -0.2220
   86loPI    C1 1361   4.136   4.774   9.822  0.0050 -0.0107  0.1501
   86loPI    C2 1362   4.197   4.643  10.195 -0.2763 -0.1762  0.1410
   86loPI    C3 1363   4.495   4.815   9.992 -0.1508  0.0165  0.4807
   86loPI   PO4 1364   3.829   4.809   9.863 -0.2399 -0.0532  0.3107
   86loPI   GL1 1365   3.838   5.053   9.489 -0.1663  0.1282  0.0973
   86loPI   GL2 1366   3.564   5.165   9.237  0.2335 -0.1578 -0.2455
   86loPI   C1A 1367   3.921   4.829   9.024  0.0170 -0.1534  0.2875
   86loPI   C2A 1368   3.923   4.913   8.542 -0.2629 -0.1926  0.2526
   86loPI   C3A 1369   3.921   5.090   8.109 -0.4812  0.0412  0.0359
   86loPI   C4A 1370   4.020   5.206   7.760 -0.1240  0.2088  0.2405
   86loPI   C5A 1371   4.463   5.297   7.558 -0.4932  0.0465 -0.1345
   86loPI   C6A 1372   4.811   5.631   7.431  0.2042  0.0763  0.0984
   86loPI   C1B 1373   3.606   5.179   8.782 -0.0646  0.0005  0.3648
   86loPI   C2B 1374   3.651   5.357   8.423  0.1526 -0.2659 -0.3636
   86loPI   C3B 1375   3.936   5.606   8.181 -0.1504 -0.4684  0.2485
   86loPI   C4B 1376   4.021   6.016   7.955 -0.1030  0.2479 -0.1308
   87loPI    C1 1377  12.436   8.452  10.255  0.1021 -0.1180 -0.1932
   87loPI    C2 1378  12.273   8.810  10.330  0.0840 -0.1308 -0.1714
   87loPI    C3 1379  12.643   8.786  10.180  0.1044 -0.1040 -0.1256
   87loPI   PO4 1380  12.243   8.343  10.079 -0.0049 -0.3186 -0.0199
   87loPI   GL1 1381  11.860   8.489   9.857 -0.1737 -0.0180  0.2709
   87loPI   GL2 1382  12.029   8.190   9.668  0.2799  0.1589  0.0078
   87loPI   C1A 1383  11.866   8.730   9.569 -0.0777  0.2192  0.0584
   87loPI   C2A 1384  11.870   8.595   9.164  0.1530 -0.1995 -0.0111
   87loPI   C3A 1385  11.901   8.653   8.685  0.2078 -0.3805 -0.1083
   87loPI   C4A 1386  12.007   8.824   8.358 -0.3397  0.2582  0.0554
   87loPI   C5A 1387  12.148   8.949   7.920  0.2699  0.1732  0.1108
   87loPI   C6A 1388  11.862   8.809   7.561  0.1316 -0.0144 -0.2727
   87loPI   C1B 1389  12.037   8.150   9.253  0.0565  0.0727 -0.0630
   87loPI   C2B 1390  12.013   8.236   8.849 -0.0255  0.0906  0.0656
   87loPI   C3B 1391  11.893   8.282   8.438 -0.1709  0.2854 -0.1138
   87loPI   C4B 1392  11.984   8.258   8.061  0.0630 -0.3495  0.3253
   88loPI    C1 1393  10.250  16.514  10.317 -0.0156 -0.2202 -0.1020
   88loPI    C2 1394  10.598  16.329  10.387 -0.0131 -0.2140 -0.0985
   88loPI    C3 1395  10.274  16.235  10.603  0.0352 -0.0759  0.0358
   88loPI   PO4 1396  10.180  16.486  10.061 -0.3488 -0.0189  0.1372
   88loPI   GL1 1397   9.984  16.489   9.670 -0.0094 -0.0132  0.1609
   88loPI   GL2 1398  10.064  16.198   9.663 -0.0725 -0.0368 -0.0119
   88loPI   C1A 1399  10.229  16.547   9.374 -0.0215 -0.2224 -0.2119
   88loPI   C2A 1400  10.172  16.432   8.960  0.0119 -0.1094  0.0271
   88loPI   C3A 1401  10.012  16.534   8.543 -0.0266  0.0036  0.0620
   88loPI   C4A 1402  10.109  16.483   8.074  0.0722  0.2142 -0.1991
   88loPI   C5A 1403  10.114  16.375   7.743  0.1576  0.0002  0.0520
   88loPI   C6A 1404  10.156  16.527   7.322  0.0413  0.1888  0.3875
   88loPI   C1B 1405  10.063  16.025   9.305 -0.1789 -0.0208 -0.1356
   88loPI   C2B 1406  10.139  15.904   8.911 -0.1510  0.0474 -0.0743
   88loPI   C3B 1407  10.232  16.040   8.451  0.0464  0.2588  0.2046
   88loPI   C4B 1408  10.262  15.980   8.058  0.1833  0.0177  0.0694
   89loPI    C1 1409  12.563   6.047  10.381 -0.1229 -0.0738 -0.0242
   89loPI    C2 1410  12.408   5.707  10.524  0.2017 -0.0919  0.2983
   89loPI    C3 1411  12.369   6.047  10.731 -0.0022  0.0426  0.0437
   89loPI   PO4 1412  12.712   5.941  10.234 -0.0261 -0.0317 -0.1541
   89loPI   GL1 1413  13.030   6.058   9.864 -0.0583  0.0632 -0.4539
   89loPI   GL2 1414  12.936   6.259   9.788  0.3154  0.1020 -0.0050
   89loPI   C1A 1415  13.133   5.896   9.453  0.1289 -0.3402 -0.1621
   89loPI   C2A 1416  12.999   5.930   9.103  0.0336 -0.0361  0.1073
   89loPI   C3A 1417  12.977   5.889   8.717 -0.2321 -0.2705  0.1621
   89loPI   C4A 1418  12.786   5.881   8.324 -0.0851  0.0471 -0.0358
   89loPI   C5A 1419  12.670   5.841   7.944  0.1843  0.0548 -0.2604
   89loPI   C6A 1420  12.992   5.558   7.686 -0.0725 -0.1063 -0.0647
   89loPI   C1B 1421  12.849   6.320   9.373 -0.2781  0.1521  0.0618
   89loPI   C2B 1422  12.636   6.435   8.943 -0.1852  0.1401 -0.0092
   89loPI   C3B 1423  12.566   6.588   8.541 -0.0930  0.3453  0.2309
   89loPI   C4B 1424  12.661   6.737   8.192 -0.0632 -0.1969  0.3132
   90loPI    C1 1425   4.201  15.457  10.328  0.1668  0.2146  0.0591
   90loPI    C2 1426   4.056  15.754  10.103 -0.1062  0.0561  0.0209
   90loPI    C3 1427   3.833  15.599  10.397  0.0175 -0.1383  0.0136
   90loPI   PO4 1428   4.471  15.464  10.215 -0.1640  0.4106 -0.1333
   90loPI   GL1 1429   4.779  15.483   9.829 -0.2586  0.0951  0.0701
   90loPI   GL2 1430   5.169  15.575   9.768  0.1372 -0.2636 -0.1163
   90loPI   C1A 1431   4.676  15.326   9.420 -0.4093 -0.0366 -0.0986
   90loPI   C2A 1432   4.408  15.105   9.054 -0.1494 -0.0579  0.2202
   90loPI   C3A 1433   4.272  14.928   8.691 -0.1224  0.0141  0.2651
   90loPI   C4A 1434   4.440  14.838   8.306  0.1734 -0.2388 -0.3097
   90loPI   C5A 1435   4.672  14.972   8.004 -0.2446  0.0232  0.0815
   90loPI   C6A 1436   4.638  15.220   7.676  0.2039  0.1146  0.0748
   90loPI   C1B 1437   5.149  15.491   9.240 -0.2108 -0.1258 -0.3022
   90loPI   C2B 1438   5.173  15.428   8.778  0.0495 -0.2699  0.0402
   90loPI   C3B 1439   5.077  15.337   8.376 -0.0682 -0.1828 -0.2094
   90loPI   C4B 1440   4.683  15.436   8.129  0.1649  0.0950  0.1371
   91loPI    C1 1441   8.496   5.424  10.133  0.2859  0.0107  0.0279
   91loPI    C2 1442   8.301   5.187  10.390 -0.0097  0.1273 -0.0837
   91loPI    C3 1443   8.481   5.519  10.521  0.0165  0.0792  0.0029
   91loPI   PO4 1444   8.342   5.391   9.957 -0.0995 -0.1907  0.0470
   91loPI   GL1 1445   8.091   5.497   9.642  0.0728  0.1173  0.0903
   91loPI   GL2 1446   7.824   5.627   9.517  0.0610 -0.1218  0.0867
   91loPI   C1A 1447   8.143   5.380   9.220  0.3773  0.2703  0.2433
   91loPI   C2A 1448   8.179   5.466   8.774 -0.0641  0.0908  0.1139
   91loPI   C3A 1449   8.104   5.706   8.623 -0.3937  0.2060  0.0747
   91loPI   C4A 1450   8.101   5.988   8.253  0.0291 -0.4261  0.2333
   91loPI   C5A 1451   8.171   5.731   7.941  0.1402 -0.1096  0.1483
   91loPI   C6A 1452   8.212   5.730   7.538  0.1162 -0.0031 -0.2032
   91loPI   C1B 1453   7.671   5.741   9.079 -0.0535 -0.1915  0.0376
   91loPI   C2B 1454   7.625   5.894   8.567 -0.3549 -0.0211 -0.0931
   91loPI   C3B 1455   7.631   6.007   8.107  0.1198  0.0915  0.1243
   91loPI   C4B 1456   7.837   6.055   7.781  0.1885  0.0611 -0.2590
   92loPI    C1 1457   9.106  17.091   9.924  0.1849 -0.0249  0.0387
   92loPI    C2 1458   9.134  16.721  10.074 -0.1164 -0.1540 -0.2121
   92loPI    C3 1459   9.065  17.031  10.317  0.2811 -0.2389  0.0175
   92loPI   PO4 1460   8.856  17.074   9.727  0.1634 -0.2389 -0.2049
   92loPI   GL1 1461   8.786  17.036   9.345 -0.1184 -0.1962  0.2021
   92loPI   GL2 1462   9.002  17.265   9.155 -0.1751  0.3085 -0.0375
   92loPI   C1A 1463   8.827  16.580   9.257  0.1701  0.1029  0.0124
   92loPI   C2A 1464   8.910  16.416   8.808  0.0311 -0.0470 -0.0314
   92loPI   C3A 1465   8.933  16.530   8.398  0.0789 -0.2929  0.1821
   92loPI   C4A 1466   9.087  16.419   7.995 -0.1821  0.1394 -0.0339
   92loPI   C5A 1467   9.160  16.561   7.531  0.2423 -0.0104 -0.2813
   92loPI   C6A 1468   8.869  16.511   7.236 -0.2171  0.0952  0.1415
   92loPI   C1B 1469   8.907  17.260   8.756 -0.2755  0.0703  0.1299
   92loPI   C2B 1470   9.028  17.417   8.291 -0.1049 -0.0959  0.2309
   92loPI   C3B 1471   8.995  17.698   7.876 -0.2670 -0.4874  0.0703
   92loPI   C4B 1472   8.804  18.061   7.557 -0.0885  0.4719  0.0104
   93loPI    C1 1473  14.826   3.404  10.165  0.0550 -0.0213 -0.1221
   93loPI    C2 1474  14.821   3.022  10.280 -0.0944 -0.0158 -0.1087
   93loPI    C3 1475  15.106   3.267  10.414 -0.3053  0.0089  0.3117
   93loPI   PO4 1476  14.745   3.381   9.919 -0.1555  0.0882 -0.2985
   93loPI   GL1 1477  14.879   3.336   9.554  0.0102  0.0709  0.0234
   93loPI   GL2 1478  15.153   3.505   9.440 -0.1301  0.3425  0.1178
   93loPI   C1A 1479  14.788   2.987   9.231  0.0754 -0.3952  0.2216
   93loPI   C2A 1480  14.717   2.928   8.785 -0.1897  0.2920 -0.1271
   93loPI   C3A 1481  14.604   2.907   8.268  0.3979 -0.0062  0.0583
   93loPI   C4A 1482  14.473   3.097   7.823  0.0454 -0.1041 -0.0837
   93loPI   C5A 1483  14.227   3.232   7.500 -0.2543 -0.4027  0.0434
   93loPI   C6A 1484  13.749   3.310   7.310  0.2510  0.1388 -0.3528
   93loPI   C1B 1485  15.003   3.489   8.917  0.3177 -0.0020  0.2158
   93loPI   C2B 1486  14.884   3.249   8.508 -0.0684 -0.3086 -0.1578
   93loPI   C3B 1487  14.916   3.179   7.984  0.0748 -0.2742 -0.1098
   93loPI   C4B 1488  14.858   2.915   7.588  0.0051 -0.0118  0.1235
   94loPI    C1 1489  17.492  17.572   9.690  0.0836 -0.4001 -0.0389
   94loPI    C2 1490  17.840  17.520   9.500  0.0634 -0.2651 -0.1146
   94loPI    C3 1491  17.835  17.582   9.895  0.1302 -0.2030 -0.1232
   94loPI   PO4 1492  17.391  17.754   9.547 -0.1872 -0.4038 -0.1925
   94loPI   GL1 1493  17.522  17.709   9.158 -0.0833 -0.2435  0.3111
   94loPI   GL2 1494  17.431  18.106   9.169 -0.0774  0.1693 -0.1628
   94loPI   C1A 1495  17.479  17.711   8.731  0.0225  0.1803  0.1349
   94loPI   C2A 1496  17.410  17.748   8.398  0.0745 -0.3126  0.3056
   94loPI   C3A 1497  17.554  17.652   8.082  0.3523 -0.2007  0.0102
   94loPI   C4A 1498  17.684  17.527   7.741 -0.2475 -0.1233 -0.0865
   94loPI   C5A 1499  17.514  17.596   7.312  0.0441  0.4048 -0.4036
   94loPI   C6A 1500  17.015  17.637   7.180 -0.0690 -0.1186 -0.3083
   94loPI   C1B 1501  17.236  18.126   8.830 -0.0914  0.0344  0.0224
   94loPI   C2B 1502  17.282  18.260   8.427 -0.0683  0.1809 -0.1930
   94loPI   C3B 1503  17.590  18.286   8.016 -0.1875 -0.0065 -0.1523
   94loPI   C4B 1504  17.780  18.042   7.642 -0.2403  0.2498 -0.0553
   95loPI    C1 1505  14.191  12.298  10.380 -0.1021  0.1799 -0.0322
   95loPI    C2 1506  14.026  12.325  10.744  0.2779 -0.2086  0.1792
   95loPI    C3 1507  14.321  12.574  10.639 -0.0712  0.1390 -0.0040
   95loPI   PO4 1508  13.931  12.139  10.300  0.1743  0.1070  0.0118
   95loPI   GL1 1509  13.792  12.015   9.897  0.3129  0.2849 -0.0191
   95loPI   GL2 1510  13.322  12.001   9.891 -0.0418  0.0799 -0.1827
   95loPI   C1A 1511  13.664  12.117   9.526  0.1637  0.0561  0.0783
   95loPI   C2A 1512  13.802  12.036   9.043 -0.0948  0.2952  0.0814
   95loPI   C3A 1513  13.774  12.119   8.717  0.1521  0.0251  0.1151
   95loPI   C4A 1514  13.773  12.448   8.374 -0.0571  0.0085 -0.0614
   95loPI   C5A 1515  13.530  12.452   8.046 -0.2066  0.0401  0.1202
   95loPI   C6A 1516  13.269  12.182   7.850 -0.1192  0.0148  0.1717
   95loPI   C1B 1517  13.160  12.223   9.563 -0.1080 -0.1868  0.0503
   95loPI   C2B 1518  13.285  12.284   9.185 -0.0136 -0.0554 -0.0467
   95loPI   C3B 1519  13.301  12.293   8.818 -0.2033  0.0606  0.0214
   95loPI   C4B 1520  13.240  12.392   8.456  0.0119  0.0530  0.1087
   96loPI    C1 1521   3.017  11.248  10.626 -0.2786  0.0833 -0.1680
   96loPI    C2 1522   2.738  11.161  10.900  0.1514 -0.1246  0.2177
   96loPI    C3 1523   2.928  11.513  10.913 -0.0808  0.0137 -0.0398
   96loPI   PO4 1524   2.978  11.200  10.443  0.1644 -0.1043  0.1308
   96loPI   GL1 1525   2.885  11.371   9.971 -0.1733  0.0920 -0.0997
   96loPI   GL2 1526   3.111  11.740   9.928  0.1279  0.0668  0.3435
   96loPI   C1A 1527   2.972  11.163   9.608  0.0155 -0.2480 -0.1768
   96loPI   C2A 1528   3.038  11.185   9.083  0.0906  0.2412  0.2088
   96loPI   C3A 1529   3.096  11.414   8.596 -0.1142  0.1162 -0.1717
   96loPI   C4A 1530   3.053  11.714   8.254  0.1100  0.1667  0.0010
   96loPI   C5A 1531   2.777  11.932   8.068 -0.1716  0.0067 -0.0926
   96loPI   C6A 1532   2.364  12.170   7.975 -0.2071 -0.4976  0.1132
   96loPI   C1B 1533   3.328  11.894   9.566  0.2953  0.3663 -0.1140
   96loPI   C2B 1534   3.479  12.127   9.250  0.2605 -0.1762  0.2833
   96loPI   C3B 1535   3.477  12.413   8.934  0.0983 -0.0259 -0.1657
   96loPI   C4B 1536   3.336  12.728   8.606  0.0587  0.1673 -0.0417
   97loPI    C1 1537   7.619   8.757  10.665  0.0126 -0.0778  0.0971
   97loPI    C2 1538   7.860   8.642  10.963 -0.0857 -0.3262  0.0829
   97loPI    C3 1539   7.473   8.712  11.034  0.0297  0.3025  0.1548
   97loPI   PO4 1540   7.840   8.538  10.333  0.0702 -0.0392  0.1523
   97loPI   GL1 1541   7.883   8.858  10.020  0.0009  0.5106  0.1623
   97loPI   GL2 1542   7.613   9.058   9.820  0.0447 -0.4298 -0.1365
   97loPI   C1A 1543   7.853   8.734   9.550 -0.1043 -0.0134  0.0652
   97loPI   C2A 1544   7.627   8.711   9.153 -0.0790  0.1881 -0.3678
   97loPI   C3A 1545   7.564   8.977   8.752  0.3205 -0.3666 -0.0491
   97loPI   C4A 1546   7.364   8.983   8.381  0.1855 -0.1286 -0.2494
   97loPI   C5A 1547   7.083   8.943   7.983 -0.4532 -0.1565  0.0741
   97loPI   C6A 1548   6.944   8.986   7.503 -0.0098 -0.4142  0.2172
   97loPI   C1B 1549   7.286   8.940   9.626 -0.0411  0.0375 -0.2992
   97loPI   C2B 1550   7.224   9.014   9.232  0.1510  0.0306 -0.1490
   97loPI   C3B 1551   7.036   9.013   8.816  0.0112 -0.1948 -0.1298
   97loPI   C4B 1552   6.761   8.956   8.390 -0.2708 -0.0774 -0.4760
   98loPI    C1 1553  15.626   3.575   9.933  0.0549 -0.0003  0.0855
   98loPI    C2 1554  15.595   3.332   9.617  0.1901  0.0584  0.0261
   98loPI    C3 1555  15.784   3.208   9.947  0.0515 -0.0017  0.0841
   98loPI   PO4 1556  15.325   3.674   9.918  0.0567  0.0787 -0.1128
   98loPI   GL1 1557  14.965   3.859   9.749 -0.2036  0.0066  0.0251
   98loPI   GL2 1558  15.071   4.036   9.595 -0.1567  0.0234 -0.0596
   98loPI   C1A 1559  14.727   3.945   9.261  0.1995  0.1955 -0.2083
   98loPI   C2A 1560  14.707   4.119   8.881  0.0734 -0.0587  0.0664
   98loPI   C3A 1561  14.909   4.285   8.600  0.0246 -0.1145  0.1335
   98loPI   C4A 1562  14.986   4.487   8.150  0.1106 -0.0285 -0.1851
   98loPI   C5A 1563  15.012   4.708   7.777  0.1257  0.0933 -0.0018
   98loPI   C6A 1564  14.728   4.851   7.428 -0.3449 -0.0534  0.3531
   98loPI   C1B 1565  15.167   3.905   9.118  0.2439  0.2761  0.0906
   98loPI   C2B 1566  15.108   3.853   8.628  0.1168 -0.0855 -0.0450
   98loPI   C3B 1567  15.027   3.973   8.191  0.2711 -0.0070  0.2939
   98loPI   C4B 1568  14.890   4.168   7.812  0.1855 -0.0118 -0.0047
   99loPI    C1 1569  11.223  10.707  10.343 -0.0049 -0.0023  0.1803
   99loPI    C2 1570  11.479  10.976  10.194 -0.0075 -0.1118 -0.0256
   99loPI    C3 1571  11.603  10.714  10.470 -0.0064  0.1017  0.1800
   99loPI   PO4 1572  11.118  10.687  10.012  0.2351 -0.0639 -0.0960
   99loPI   GL1 1573  11.111  10.270   9.694  0.1818 -0.0707 -0.1852
   99loPI   GL2 1574  11.354  10.170   9.748 -0.1700 -0.1254  0.2808
   99loPI   C1A 1575  11.167  10.668   9.360 -0.1272 -0.1570 -0.0031
   99loPI   C2A 1576  11.117  10.984   8.998  0.2744 -0.0915 -0.5674
   99loPI   C3A 1577  11.190  11.134   8.602 -0.1667 -0.1518 -0.0756
   99loPI   C4A 1578  11.150  11.006   8.313 -0.2026 -0.3133  0.0430
   99loPI   C5A 1579  11.047  11.148   7.942 -0.0734  0.1466  0.0785
   99loPI   C6A 1580  11.238  11.012   7.528  0.0863  0.1184 -0.0412
   99loPI   C1B 1581  11.391  10.113   9.309  0.1626  0.1321  0.1485
   99loPI   C2B 1582  11.404  10.029   8.869 -0.0605  0.0972 -0.1324
   99loPI   C3B 1583  11.416  10.099   8.457  0.1134  0.0249  0.0547
   99loPI   C4B 1584  11.670  10.245   8.208  0.1642 -0.0871  0.0517
  100loPI    C1 1585   7.012   1.318   9.901 -0.0229  0.1067  0.0018
  100loPI    C2 1586   7.341   1.126  10.024 -0.0031  0.0471 -0.1423
  100loPI    C3 1587   7.225   1.463  10.207  0.0014 -0.0630  0.0659
  100loPI   PO4 1588   7.032   1.278   9.641  0.1436 -0.1086 -0.1301
  100loPI   GL1 1589   7.142   1.430   9.286  0.0483  0.1802 -0.1906
  100loPI   GL2 1590   6.769   1.327   9.231 -0.0183 -0.0244  0.1280
  100loPI   C1A 1591   7.288   1.360   8.863 -0.6364  0.0010  0.3240
  100loPI   C2A 1592   7.324   1.402   8.401 -0.1973 -0.2264  0.1876
  100loPI   C3A 1593   7.615   1.527   8.115  0.1333 -0.1626  0.2061
  100loPI   C4A 1594   7.613   1.924   7.910  0.1738  0.3052 -0.1697
  100loPI   C5A 1595   7.487   2.299   7.753  0.0069  0.1018  0.3261
  100loPI   C6A 1596   7.244   2.473   7.419 -0.1401  0.1241 -0.0386
  100loPI   C1B 1597   6.750   1.287   8.765 -0.2080 -0.1736 -0.1612
  100loPI   C2B 1598   6.747   1.377   8.287  0.0099 -0.0674  0.1852
  100loPI   C3B 1599   6.807   1.200   7.871  0.2295  0.2955  0.1642
  100loPI   C4B 1600   6.684   1.325   7.493  0.1364 -0.1899 -0.2007
  101loPI    C1 1601  16.047  14.400   9.994 -0.3732  0.0151 -0.0275
  101loPI    C2 1602  15.874  14.610  10.287  0.0340  0.1396  0.1314
  101loPI    C3 1603  16.014  14.797   9.963  0.0265  0.0614  0.0825
  101loPI   PO4 1604  15.955  14.160   9.908  0.1783 -0.0198 -0.1652
  101loPI   GL1 1605  15.539  14.137   9.645 -0.1895 -0.1584  0.1141
  101loPI   GL2 1606  15.801  13.914   9.516  0.0493 -0.1455 -0.1902
  101loPI   C1A 1607  15.326  13.951   9.353  0.1133 -0.0162 -0.1026
  101loPI   C2A 1608  15.271  13.966   8.950  0.1545 -0.0715  0.1345
  101loPI   C3A 1609  15.260  13.988   8.508 -0.0996  0.4066  0.3480
  101loPI   C4A 1610  14.880  14.019   8.308  0.0659 -0.1393 -0.0421
  101loPI   C5A 1611  14.765  14.292   7.861 -0.2210  0.4729  0.0187
  101loPI   C6A 1612  14.676  14.234   7.501  0.3222  0.1708 -0.1357
  101loPI   C1B 1613  15.919  13.958   9.065  0.0573 -0.0998  0.0486
  101loPI   C2B 1614  16.358  13.913   8.823 -0.1475 -0.1041 -0.1371
  101loPI   C3B 1615  16.668  14.067   8.569 -0.2469  0.0419  0.0202
  101loPI   C4B 1616  17.057  13.808   8.313 -0.2096  0.3381  0.1903
  102loPI    C1 1617   3.394   9.922  10.470  0.1671  0.0999  0.0106
  102loPI    C2 1618   3.640  10.234  10.515  0.2364  0.0666 -0.1313
  102loPI    C3 1619   3.357  10.162  10.788  0.1998  0.2714 -0.1133
  102loPI   PO4 1620   3.416   9.888  10.200 -0.4642 -0.2483  0.4138
  102loPI   GL1 1621   3.543   9.457  10.006 -0.1026  0.3471 -0.2870
  102loPI   GL2 1622   3.842   9.416   9.879  0.3098 -0.1933 -0.1100
  102loPI   C1A 1623   3.487   9.270   9.560  0.1174  0.0032 -0.0929
  102loPI   C2A 1624   3.706   9.210   9.207  0.1328 -0.1665  0.1288
  102loPI   C3A 1625   3.831   9.180   8.867 -0.1484 -0.1416 -0.0455
  102loPI   C4A 1626   3.704   9.031   8.516 -0.0606 -0.1236  0.1415
  102loPI   C5A 1627   3.841   8.650   8.322  0.5519  0.1237 -0.0400
  102loPI   C6A 1628   3.862   8.379   7.951  0.4044  0.1856  0.0230
  102loPI   C1B 1629   3.906   9.615   9.470 -0.3099 -0.1747 -0.3311
  102loPI   C2B 1630   3.995   9.570   9.074  0.1792  0.2030  0.2346
  102loPI   C3B 1631   4.037   9.713   8.721 -0.2957  0.0159 -0.1925
  102loPI   C4B 1632   4.182   9.861   8.386  0.2822  0.2874  0.2601
  103loPI    C1 1633  17.377   9.374  10.489 -0.0683 -0.1058 -0.0700
  103loPI    C2 1634  17.745   9.218  10.495  0.0380  0.1463  0.1545
  103loPI    C3 1635  17.455   9.054  10.717  0.0358  0.0014  0.0462
  103loPI   PO4 1636  17.435   9.649  10.235 -0.0767  0.1769  0.1067
  103loPI   GL1 1637  17.492   9.582   9.783  0.1379 -0.1829  0.1328
  103loPI   GL2 1638  17.125   9.636   9.518  0.1395 -0.0354 -0.1744
  103loPI   C1A 1639  17.702   9.598   9.385 -0.0995 -0.0272 -0.0119
  103loPI   C2A 1640  17.767   9.565   8.966  0.0315 -0.0625  0.2925
  103loPI   C3A 1641  17.593   9.509   8.554 -0.1079 -0.0773  0.0812
  103loPI   C4A 1642  17.361   9.518   8.257 -0.3535  0.2090  0.2338
  103loPI   C5A 1643  16.994   9.634   8.089 -0.1016 -0.1385  0.0171
  103loPI   C6A 1644  16.768   9.969   7.813 -0.0654  0.1266 -0.0348
  103loPI   C1B 1645  17.264   9.524   9.048 -0.0464 -0.0853 -0.2410
  103loPI   C2B 1646  17.070   9.463   8.661  0.2284  0.1220  0.3045
  103loPI   C3B 1647  17.007   9.176   8.287  0.1580 -0.5091 -0.3582
  103loPI   C4B 1648  16.709   8.927   7.985 -0.3391 -0.0684  0.1101
  104loPI    C1 1649  16.066  15.883  10.135  0.0467  0.0172  0.1259
  104loPI    C2 1650  16.012  15.619  10.431 -0.1139  0.1274  0.1957
  104loPI    C3 1651  16.170  15.978  10.509  0.1033  0.0540  0.1010
  104loPI   PO4 1652  15.859  15.809   9.922 -0.0387  0.3807  0.0355
  104loPI   GL1 1653  15.619  15.652   9.605  0.2376  0.1146 -0.0520
  104loPI   GL2 1654  15.711  15.956   9.411  0.2341 -0.0328 -0.0831
  104loPI   C1A 1655  15.578  15.380   9.256 -0.1811  0.0317 -0.0465
  104loPI   C2A 1656  15.584  15.403   8.882 -0.1476  0.1510  0.1716
  104loPI   C3A 1657  15.504  15.286   8.510 -0.0189  0.2587  0.0204
  104loPI   C4A 1658  15.596  15.331   8.042  0.0784  0.2108  0.0280
  104loPI   C5A 1659  15.792  15.411   7.657 -0.2229  0.1250  0.1455
  104loPI   C6A 1660  15.822  15.327   7.310  0.0432 -0.2116  0.0961
  104loPI   C1B 1661  15.721  15.952   8.978  0.1821  0.0735 -0.1273
  104loPI   C2B 1662  15.932  15.814   8.604 -0.0199  0.1176 -0.2599
  104loPI   C3B 1663  15.964  15.490   8.386 -0.1151 -0.3494 -0.1495
  104loPI   C4B 1664  16.208  15.349   7.999  0.1452  0.2009 -0.1567
  105loPI    C1 1665   3.769  12.867  10.153  0.1106  0.0480  0.1865
  105loPI    C2 1666   3.567  12.540  10.265  0.1285 -0.1077 -0.2185
  105loPI    C3 1667   3.375  12.888  10.220  0.0390 -0.1479 -0.1514
  105loPI   PO4 1668   4.017  12.622   9.977  0.0456 -0.0934 -0.2303
  105loPI   GL1 1669   4.324  12.595   9.633  0.0514  0.2133  0.2306
  105loPI   GL2 1670   4.191  12.940   9.676  0.2622  0.1259 -0.1525
  105loPI   C1A 1671   4.250  12.492   9.224 -0.2484  0.3048  0.0015
  105loPI   C2A 1672   4.209  12.441   8.772  0.0270 -0.1215  0.3203
  105loPI   C3A 1673   4.220  12.253   8.315 -0.1104 -0.0968  0.3805
  105loPI   C4A 1674   4.368  12.082   7.888  0.5364 -0.2037 -0.3060
  105loPI   C5A 1675   4.454  11.612   7.782 -0.2396 -0.1311 -0.3251
  105loPI   C6A 1676   4.572  11.236   7.483  0.1936 -0.4073  0.1560
  105loPI   C1B 1677   4.289  13.003   9.249 -0.0950  0.0509  0.2746
  105loPI   C2B 1678   4.286  12.946   8.799 -0.2165  0.0003  0.2467
  105loPI   C3B 1679   4.459  12.721   8.375  0.0334  0.2120  0.0508
  105loPI   C4B 1680   4.742  12.449   8.162  0.1402 -0.3135  0.2575
  106loPI    C1 1681   0.735   4.876  10.125 -0.0786 -0.0024  0.0166
  106loPI    C2 1682   1.019   4.718  10.359 -0.1455 -0.0610  0.0586
  106loPI    C3 1683   0.723   4.488  10.220 -0.0138 -0.0644 -0.2224
  106loPI   PO4 1684   0.854   5.022   9.908 -0.2670  0.3559 -0.1140
  106loPI   GL1 1685   1.126   5.156   9.487  0.2943  0.1695  0.1899
  106loPI   GL2 1686   0.906   5.378   9.376  0.0817  0.0353  0.2695
  106loPI   C1A 1687   1.212   5.200   8.982 -0.0614 -0.0209 -0.1423
  106loPI   C2A 1688   1.365   5.192   8.614  0.0196  0.1063 -0.3694
  106loPI   C3A 1689   1.473   5.247   8.243 -0.0973 -0.1358  0.0015
  106loPI   C4A 1690   1.671   5.341   7.743 -0.2029  0.1179 -0.2028
  106loPI   C5A 1691   1.562   5.359   7.325  0.0735 -0.2492 -0.4320
  106loPI   C6A 1692   1.582   5.625   6.976 -0.1682  0.0343  0.1313
  106loPI   C1B 1693   0.790   5.457   9.042  0.2526  0.2961  0.0213
  106loPI   C2B 1694   0.944   5.480   8.585  0.3145 -0.1885 -0.1406
  106loPI   C3B 1695   1.035   5.538   8.195 -0.3093  0.2884 -0.0164
  106loPI   C4B 1696   1.143   5.336   7.840 -0.1783 -0.1802 -0.1953
  107loPI    C1 1697  14.143   0.630   9.828 -0.0939  0.0804 -0.0300
  107loPI    C2 1698  13.944   0.775  10.142  0.0764 -0.0574  0.1442
  107loPI    C3 1699  14.284   0.948  10.024 -0.0320  0.0465 -0.0192
  107loPI   PO4 1700  14.001   0.556   9.641 -0.3307  0.1068 -0.0828
  107loPI   GL1 1701  14.092   0.360   9.306  0.3585 -0.1658 -0.0714
  107loPI   GL2 1702  13.907   0.038   9.221 -0.0277 -0.1444 -0.3542
  107loPI   C1A 1703  14.345   0.512   8.993  0.0939 -0.1112 -0.1956
  107loPI   C2A 1704  14.517   0.356   8.744 -0.2109  0.2035 -0.0084
  107loPI   C3A 1705  14.783   0.473   8.478  0.3636 -0.0112 -0.0750
  107loPI   C4A 1706  14.775   0.474   8.017 -0.1017  0.0205 -0.1529
  107loPI   C5A 1707  15.079   0.596   7.629  0.1033  0.0978 -0.0165
  107loPI   C6A 1708  15.466   0.665   7.593  0.2557  0.0075  0.0254
  107loPI   C1B 1709  14.036  -0.006   8.748 -0.0306  0.0528 -0.1595
  107loPI   C2B 1710  13.980   0.082   8.280 -0.1974 -0.0117 -0.3001
  107loPI   C3B 1711  13.708   0.461   8.226  0.0407  0.1006 -0.0144
  107loPI   C4B 1712  13.467   0.531   8.591  0.1702 -0.1575  0.2126
  108loPI    C1 1713   3.467  16.399   9.993  0.0074  0.1465  0.0908
  108loPI    C2 1714   3.827  16.224  10.000 -0.0286  0.0697  0.0318
  108loPI    C3 1715   3.618  16.266  10.339 -0.0951 -0.1600  0.0212
  108loPI   PO4 1716   3.590  16.630   9.817 -0.0504 -0.0417 -0.0274
  108loPI   GL1 1717   3.478  16.777   9.397 -0.2374  0.0350  0.0807
  108loPI   GL2 1718   3.132  16.838   9.350  0.1702 -0.0164  0.1430
  108loPI   C1A 1719   3.849  16.680   9.200 -0.1939  0.0291 -0.2127
  108loPI   C2A 1720   3.934  16.703   8.783 -0.2610  0.3976 -0.2172
  108loPI   C3A 1721   3.964  16.440   8.407 -0.0460 -0.3664  0.1954
  108loPI   C4A 1722   4.181  16.169   8.141  0.2308  0.1162  0.0418
  108loPI   C5A 1723   4.119  16.101   7.735  0.1618 -0.1133 -0.0406
  108loPI   C6A 1724   3.930  15.578   7.455  0.1122  0.1181 -0.1714
  108loPI   C1B 1725   3.265  16.893   8.913 -0.0099 -0.0877 -0.0567
  108loPI   C2B 1726   3.453  16.796   8.587 -0.0609 -0.1652  0.1146
  108loPI   C3B 1727   3.540  16.694   8.345  0.1889 -0.2863 -0.0961
  108loPI   C4B 1728   3.320  16.547   8.024 -0.0894 -0.0855  0.1070
  109loPI    C1 1729  16.443   3.490   9.769  0.0925  0.0505 -0.0552
  109loPI    C2 1730  16.582   3.368  10.124 -0.1051  0.1016  0.0411
  109loPI    C3 1731  16.197   3.469  10.084 -0.1125 -0.0227 -0.2186
  109loPI   PO4 1732  16.598   3.631   9.695  0.0666 -0.1765  0.0601
  109loPI   GL1 1733  16.514   3.997   9.347  0.1108 -0.1747 -0.2220
  109loPI   GL2 1734  16.561   3.714   9.210  0.0800 -0.1566 -0.0224
  109loPI   C1A 1735  16.759   4.112   9.022  0.4798  0.3079  0.0344
  109loPI   C2A 1736  16.794   4.109   8.578  0.2854  0.3407  0.1247
  109loPI   C3A 1737  16.585   4.152   8.209  0.0729  0.0929  0.1057
  109loPI   C4A 1738  16.910   4.366   7.949 -0.1172 -0.1794  0.1832
  109loPI   C5A 1739  17.086   3.932   7.812  0.0794 -0.0045 -0.0672
  109loPI   C6A 1740  17.235   3.486   7.966  0.0607 -0.0642 -0.0462
  109loPI   C1B 1741  16.415   3.825   8.781  0.1031  0.2012  0.0507
  109loPI   C2B 1742  16.242   3.816   8.425  0.1530  0.1078 -0.2509
  109loPI   C3B 1743  16.170   3.801   8.069 -0.1737 -0.3226 -0.2418
  109loPI   C4B 1744  16.383   4.087   7.740 -0.1878  0.3494 -0.0214
  110loPI    C1 1745  10.945  14.132  10.482  0.3466 -0.0221  0.0286
  110loPI    C2 1746  10.697  13.822  10.529  0.3220  0.0110  0.1190
  110loPI    C3 1747  10.943  13.928  10.827  0.3433  0.0668  0.0817
  110loPI   PO4 1748  10.877  14.137  10.150  0.0148  0.0577 -0.0995
  110loPI   GL1 1749  10.616  14.003   9.808 -0.1371 -0.4878 -0.0600
  110loPI   GL2 1750  10.685  13.707  10.079  0.1466  0.2205  0.2766
  110loPI   C1A 1751  10.467  14.130   9.350 -0.1035  0.2597 -0.0497
  110loPI   C2A 1752  10.510  14.194   8.892  0.0101 -0.2636  0.3981
  110loPI   C3A 1753  10.672  14.303   8.587  0.0937  0.0536 -0.1644
  110loPI   C4A 1754  10.752  14.289   8.194  0.0171  0.0937  0.0365
  110loPI   C5A 1755  10.754  14.389   7.858 -0.4716  0.1199  0.2394
  110loPI   C6A 1756  11.121  14.446   7.629  0.0726 -0.2540 -0.3799
  110loPI   C1B 1757  10.570  13.556   9.673 -0.2500 -0.0229 -0.3131
  110loPI   C2B 1758  10.235  13.725   9.508  0.0395 -0.1066  0.1067
  110loPI   C3B 1759  10.210  13.752   9.065  0.0016 -0.2603 -0.0568
  110loPI   C4B 1760  10.152  13.840   8.693 -0.2566 -0.0556 -0.0722
  111loPI    C1 1761   3.728  14.659  10.396  0.1870  0.0350  0.0235
  111loPI    C2 1762   3.594  14.296  10.498  0.2546  0.0186  0.0542
  111loPI    C3 1763   3.561  14.601  10.755  0.1704  0.0412  0.0169
  111loPI   PO4 1764   3.584  14.699  10.117 -0.3369  0.2927  0.1372
  111loPI   GL1 1765   3.603  15.015   9.701  0.1481 -0.3646  0.0358
  111loPI   GL2 1766   3.634  15.338   9.782  0.1527 -0.0952 -0.1565
  111loPI   C1A 1767   3.790  14.913   9.346  0.0871  0.0232 -0.1999
  111loPI   C2A 1768   3.807  14.754   8.958 -0.3817 -0.1350  0.1133
  111loPI   C3A 1769   3.798  14.824   8.523  0.2561  0.0425  0.3448
  111loPI   C4A 1770   4.050  14.774   8.030  0.4066  0.2132  0.3332
  111loPI   C5A 1771   4.156  15.122   7.772  0.2036  0.0855 -0.0818
  111loPI   C6A 1772   4.226  15.206   7.230  0.1308  0.2316 -0.2915
  111loPI   C1B 1773   3.594  15.398   9.275  0.1235 -0.0069  0.2734
  111loPI   C2B 1774   3.685  15.224   8.817 -0.1198  0.0106 -0.4365
  111loPI   C3B 1775   3.757  15.287   8.302 -0.1461  0.1220 -0.0757
  111loPI   C4B 1776   3.728  15.293   7.898  0.0334  0.3419  0.0343
  112loPI    C1 1777   6.563   3.184  10.064  0.0581  0.0378  0.2257
  112loPI    C2 1778   6.958   3.161  10.127  0.1118 -0.2244 -0.1709
  112loPI    C3 1779   6.805   3.474   9.930  0.0812  0.0204  0.2294
  112loPI   PO4 1780   6.477   2.998   9.989  0.1279  0.1575  0.4840
  112loPI   GL1 1781   6.267   2.764   9.663 -0.2244  0.1832 -0.1626
  112loPI   GL2 1782   6.311   2.414   9.460 -0.0830 -0.0348  0.0547
  112loPI   C1A 1783   6.362   2.867   9.296 -0.0067 -0.1603  0.2523
  112loPI   C2A 1784   6.419   2.699   8.872 -0.0089  0.1445  0.0955
  112loPI   C3A 1785   6.242   2.893   8.517 -0.3248  0.4595 -0.0179
  112loPI   C4A 1786   6.032   2.945   8.154 -0.2253  0.3811  0.1506
  112loPI   C5A 1787   5.583   2.872   8.060 -0.0131  0.1104 -0.3406
  112loPI   C6A 1788   5.295   3.114   8.023 -0.1312  0.0321  0.1785
  112loPI   C1B 1789   6.393   2.205   9.051 -0.0712 -0.1495  0.1108
  112loPI   C2B 1790   6.517   2.013   8.614  0.0886 -0.1346  0.0647
  112loPI   C3B 1791   6.460   1.913   8.311  0.1562 -0.1480  0.2891
  112loPI   C4B 1792   6.478   2.057   7.896 -0.0645 -0.2626 -0.4429
  113loPI    C1 1793  13.205   5.163  10.325 -0.1845 -0.0804 -0.0330
  113loPI    C2 1794  13.297   4.872  10.583 -0.0839 -0.0294 -0.0110
  113loPI    C3 1795  13.434   5.243  10.643 -0.1893  0.0168 -0.0539
  113loPI   PO4 1796  13.170   5.062  10.123  0.0028 -0.0497  0.1297
  113loPI   GL1 1797  13.404   5.034   9.696  0.0483 -0.0643  0.0950
  113loPI   GL2 1798  13.328   5.266   9.594  0.1298 -0.3097 -0.0464
  113loPI   C1A 1799  13.234   5.027   9.221 -0.1246 -0.0353 -0.1111
  113loPI   C2A 1800  13.419   5.049   8.823 -0.1302  0.0950  0.1339
  113loPI   C3A 1801  13.571   4.955   8.427  0.0513  0.0448  0.0500
  113loPI   C4A 1802  13.598   4.830   8.032  0.2056 -0.2344 -0.1018
  113loPI   C5A 1803  13.728   4.903   7.613 -0.2343  0.0625 -0.2373
  113loPI   C6A 1804  13.767   4.943   7.145  0.0956 -0.1542  0.1499
  113loPI   C1B 1805  13.412   5.580   9.188  0.1285 -0.0563 -0.0504
  113loPI   C2B 1806  13.362   5.591   8.733  0.2659  0.0014  0.1342
  113loPI   C3B 1807  13.273   5.283   8.283  0.1680  0.0830  0.2055
  113loPI   C4B 1808  13.377   5.233   7.788  0.1741 -0.0381  0.2155
  114loPI    C1 1809  17.399  13.099  10.545  0.0606 -0.0129 -0.0454
  114loPI    C2 1810  17.667  12.804  10.577  0.1587  0.0803  0.0038
  114loPI    C3 1811  17.693  13.123  10.815  0.0430  0.1211 -0.0375
  114loPI   PO4 1812  17.442  13.214  10.293 -0.0688  0.1829 -0.3308
  114loPI   GL1 1813  17.053  13.292  10.011  0.2671 -0.5640 -0.4553
  114loPI   GL2 1814  17.371  13.304   9.795 -0.1415  0.1432 -0.0455
  114loPI   C1A 1815  16.706  13.295   9.736  0.1246  0.1058  0.1783
  114loPI   C2A 1816  16.692  13.434   9.366 -0.3063 -0.1900 -0.4850
  114loPI   C3A 1817  16.680  13.422   8.907  0.1100  0.2305 -0.1648
  114loPI   C4A 1818  16.644  13.550   8.420 -0.1667  0.3691  0.1859
  114loPI   C5A 1819  16.357  13.563   8.011 -0.0913 -0.0947 -0.0487
  114loPI   C6A 1820  15.991  13.715   7.951  0.0113  0.3295 -0.0113
  114loPI   C1B 1821  17.184  13.465   9.521  0.2445  0.0557  0.1666
  114loPI   C2B 1822  16.980  13.897   9.446  0.0969  0.0260 -0.2640
  114loPI   C3B 1823  16.577  13.965   9.283  0.1009  0.1735  0.2886
  114loPI   C4B 1824  16.258  13.693   9.322 -0.4115 -0.2992 -0.1859
  115loPI    C1 1825   4.501  11.009  10.573 -0.0293  0.0851 -0.0872
  115loPI    C2 1826   4.244  11.094  10.868 -0.0112 -0.2149  0.0179
  115loPI    C3 1827   4.608  11.259  10.867 -0.1223  0.0338 -0.0091
  115loPI   PO4 1828   4.349  10.803  10.494 -0.3390  0.0976  0.1228
  115loPI   GL1 1829   4.362  10.822  10.100 -0.1859  0.0509 -0.0353
  115loPI   GL2 1830   4.383  11.182   9.995  0.0943  0.1565 -0.0048
  115loPI   C1A 1831   4.287  10.492   9.808 -0.0272  0.1448 -0.0770
  115loPI   C2A 1832   4.030  10.515   9.457 -0.2731 -0.1516 -0.1311
  115loPI   C3A 1833   4.024  10.621   9.070 -0.0131  0.0832 -0.0672
  115loPI   C4A 1834   3.821  10.699   8.701  0.1506  0.0677  0.1142
  115loPI   C5A 1835   3.966  10.721   8.291  0.0550 -0.2910  0.2595
  115loPI   C6A 1836   3.813  10.761   7.816 -0.3404  0.0117 -0.0523
  115loPI   C1B 1837   4.369  11.242   9.568 -0.3688  0.2380 -0.0686
  115loPI   C2B 1838   4.371  10.929   9.230  0.1452  0.1055 -0.0706
  115loPI   C3B 1839   4.304  10.887   8.778  0.0588  0.1755 -0.1245
  115loPI   C4B 1840   4.409  10.972   8.285 -0.0145  0.0259  0.0011
  116loPI    C1 1841  10.825   1.842  10.147  0.0296  0.0905  0.2970
  116loPI    C2 1842  10.481   1.639  10.162 -0.0219  0.1751  0.2693
  116loPI    C3 1843  10.820   1.468  10.287  0.0081 -0.0797 -0.1418
  116loPI   PO4 1844  10.844   1.933   9.970 -0.2271  0.2309 -0.3077
  116loPI   GL1 1845  10.979   1.768   9.619 -0.1234  0.0070  0.0606
  116loPI   GL2 1846  11.233   1.879   9.508  0.2922  0.0449  0.0079
  116loPI   C1A 1847  11.059   1.474   9.335  0.0910 -0.2644 -0.1412
  116loPI   C2A 1848  10.985   1.455   8.868 -0.5252  0.0428  0.2208
  116loPI   C3A 1849  11.053   1.493   8.487  0.0460  0.2509 -0.1481
  116loPI   C4A 1850  11.019   1.556   7.973  0.0112  0.0370 -0.2753
  116loPI   C5A 1851  10.912   1.564   7.539  0.0711  0.0506  0.0530
  116loPI   C6A 1852  10.700   1.479   7.159  0.0767  0.0632  0.1875
  116loPI   C1B 1853  11.023   1.917   9.136  0.1156 -0.1760 -0.2930
  116loPI   C2B 1854  11.120   1.954   8.774  0.2602 -0.2565  0.1649
  116loPI   C3B 1855  11.007   1.929   8.388  0.0938  0.0672 -0.0243
  116loPI   C4B 1856  10.868   2.041   8.059  0.3200 -0.1754  0.0781
  117loPI    C1 1857  13.662  13.557  10.220 -0.0301  0.1481 -0.1352
  117loPI    C2 1858  13.991  13.696  10.400 -0.0267  0.0906 -0.0967
  117loPI    C3 1859  13.795  13.383  10.555 -0.0603  0.0813 -0.1575
  117loPI   PO4 1860  13.637  13.720   9.989  0.3147  0.0944  0.0305
  117loPI   GL1 1861  13.938  13.920   9.679  0.0325  0.1433 -0.0339
  117loPI   GL2 1862  13.560  14.029   9.530 -0.1294 -0.0371 -0.1951
  117loPI   C1A 1863  14.191  13.816   9.357 -0.0352  0.1985 -0.0681
  117loPI   C2A 1864  14.224  13.869   8.955  0.1023  0.1256 -0.1179
  117loPI   C3A 1865  14.446  13.885   8.458  0.0928 -0.4554  0.1039
  117loPI   C4A 1866  14.458  13.788   7.994 -0.2897  0.0355  0.0811
  117loPI   C5A 1867  14.875  13.791   7.791  0.1121 -0.2201 -0.1178
  117loPI   C6A 1868  15.223  13.670   7.944 -0.0316  0.1268 -0.0363
  117loPI   C1B 1869  13.614  13.937   9.035 -0.2119  0.0840 -0.1574
  117loPI   C2B 1870  13.553  13.850   8.642  0.2197 -0.2397 -0.0356
  117loPI   C3B 1871  13.512  13.987   8.294 -0.0557 -0.2928 -0.2439
  117loPI   C4B 1872  13.515  14.301   7.974  0.0453  0.1419 -0.0370
  118loPI    C1 1873   2.479   9.703  10.572  0.0792  0.1648  0.0570
  118loPI    C2 1874   2.562   9.378  10.789 -0.2899  0.0129 -0.0228
  118loPI    C3 1875   2.583   9.740  10.956 -0.1484 -0.0710  0.1443
  118loPI   PO4 1876   2.542   9.681  10.280  0.1717 -0.2400  0.2408
  118loPI   GL1 1877   2.497   9.543   9.904 -0.0817  0.0773 -0.0636
  118loPI   GL2 1878   2.408   9.902   9.796  0.1403 -0.0949  0.3541
  118loPI   C1A 1879   2.783   9.619   9.525 -0.1597  0.0034 -0.3587
  118loPI   C2A 1880   2.790   9.620   9.113 -0.0675  0.2863  0.3768
  118loPI   C3A 1881   2.733   9.410   8.662 -0.2964  0.0190  0.1683
  118loPI   C4A 1882   2.794   9.245   8.289 -0.0347 -0.0890  0.0392
  118loPI   C5A 1883   3.123   9.303   7.958 -0.0255 -0.0142 -0.0632
  118loPI   C6A 1884   3.478   9.396   7.957 -0.1333 -0.1577 -0.1132
  118loPI   C1B 1885   2.313   9.841   9.315  0.1216  0.3687 -0.1070
  118loPI   C2B 1886   2.404   9.872   8.911 -0.2525  0.5948 -0.1757
  118loPI   C3B 1887   2.429  10.109   8.549  0.2751  0.0707  0.1184
  118loPI   C4B 1888   2.237  10.387   8.267 -0.1192  0.1765 -0.1711
  119loPI    C1 1889  14.485  11.271  10.301 -0.3728 -0.2389 -0.1839
  119loPI    C2 1890  14.449  10.950  10.537 -0.0490  0.1244  0.3843
  119loPI    C3 1891  14.806  11.048  10.386 -0.1761  0.1353  0.0837
  119loPI   PO4 1892  14.219  11.296  10.174 -0.2220 -0.0227 -0.2400
  119loPI   GL1 1893  13.988  11.575   9.949 -0.3553 -0.1528  0.4566
  119loPI   GL2 1894  14.332  11.609   9.808 -0.1477 -0.1257  0.2887
  119loPI   C1A 1895  13.915  11.496   9.467  0.1197 -0.2285 -0.2109
  119loPI   C2A 1896  14.021  11.616   9.115 -0.0937 -0.0514  0.0643
  119loPI   C3A 1897  14.105  11.651   8.682  0.1177  0.1431 -0.2220
  119loPI   C4A 1898  13.917  11.858   8.352  0.0213 -0.1224  0.2437
  119loPI   C5A 1899  13.753  11.933   7.884 -0.0971 -0.1052 -0.1160
  119loPI   C6A 1900  13.595  11.939   7.529  0.1751  0.0513 -0.2324
  119loPI   C1B 1901  14.115  11.949   9.476  0.1036  0.1280  0.1481
  119loPI   C2B 1902  14.323  12.057   9.019  0.3544 -0.1016 -0.2042
  119loPI   C3B 1903  14.376  12.094   8.665 -0.1089 -0.2130  0.2389
  119loPI   C4B 1904  14.442  12.063   8.138 -0.1328 -0.3205  0.3350
  120loPI    C1 1905  11.711  16.850  10.240  0.0369 -0.1322  0.0675
  120loPI    C2 1906  11.532  16.553  10.439 -0.1389 -0.1398 -0.0987
  120loPI    C3 1907  11.438  16.934  10.521  0.0911 -0.1275  0.1189
  120loPI   PO4 1908  11.705  16.705  10.007 -0.0340 -0.0302  0.0798
  120loPI   GL1 1909  11.681  16.640   9.581 -0.0691 -0.2890 -0.0046
  120loPI   GL2 1910  11.404  16.589   9.386 -0.0378  0.1863  0.3528
  120loPI   C1A 1911  11.876  16.628   9.225  0.1798  0.3499  0.2488
  120loPI   C2A 1912  11.888  16.732   8.842 -0.0990 -0.1186  0.1504
  120loPI   C3A 1913  12.061  16.686   8.494 -0.2394  0.1278  0.2666
  120loPI   C4A 1914  11.996  16.718   8.102 -0.1393 -0.0818 -0.1745
  120loPI   C5A 1915  12.129  16.986   7.757  0.2030 -0.1350 -0.2560
  120loPI   C6A 1916  12.339  17.412   7.769 -0.0082 -0.0434 -0.2686
  120loPI   C1B 1917  11.465  16.429   8.962 -0.2486 -0.0514  0.0573
  120loPI   C2B 1918  11.529  16.376   8.519 -0.0524  0.1944 -0.0456
  120loPI   C3B 1919  11.802  16.305   8.211 -0.0866 -0.0228  0.3460
  120loPI   C4B 1920  11.693  16.343   7.727 -0.0177 -0.0259  0.4260
  121loPI    C1 1921   9.984   3.346  10.493 -0.0392  0.0331 -0.0962
  121loPI    C2 1922   9.732   3.620  10.347 -0.1545  0.0635  0.1537
  121loPI    C3 1923   9.813   3.612  10.738  0.1621 -0.0060  0.0895
  121loPI   PO4 1924  10.180   3.283  10.278  0.0966  0.1091 -0.0876
  121loPI   GL1 1925  10.213   3.383   9.835 -0.0105  0.0856  0.0195
  121loPI   GL2 1926  10.009   3.487   9.648 -0.2233 -0.0786  0.1812
  121loPI   C1A 1927  10.382   3.239   9.387 -0.2942  0.1908 -0.0268
  121loPI   C2A 1928  10.649   3.223   9.076  0.4000  0.1106  0.1211
  121loPI   C3A 1929  11.005   3.084   8.764 -0.1359  0.3650  0.0405
  121loPI   C4A 1930  11.130   2.626   8.700  0.2289  0.1614 -0.0565
  121loPI   C5A 1931  10.957   2.478   8.282  0.1858  0.0653 -0.0866
  121loPI   C6A 1932  10.940   2.515   7.948 -0.0647 -0.0507 -0.1021
  121loPI   C1B 1933   9.970   3.433   9.223  0.1135 -0.0299  0.0573
  121loPI   C2B 1934   9.828   3.380   8.767 -0.2335 -0.1991 -0.3877
  121loPI   C3B 1935   9.841   3.340   8.268 -0.0431  0.0402  0.1167
  121loPI   C4B 1936   9.609   3.179   7.875  0.1311  0.4558  0.1785
  122loPI    C1 1937  14.754  11.773  10.083  0.2527  0.0916 -0.1783
  122loPI    C2 1938  14.678  12.086  10.320 -0.2451 -0.2037  0.0696
  122loPI    C3 1939  14.984  11.842  10.404 -0.2057 -0.1090  0.2063
  122loPI   PO4 1940  14.756  11.823   9.880 -0.0228  0.2512  0.1663
  122loPI   GL1 1941  14.686  11.823   9.524 -0.1108 -0.2093 -0.0807
  122loPI   GL2 1942  14.532  12.193   9.575 -0.4574 -0.0225  0.3411
  122loPI   C1A 1943  14.448  11.590   9.290 -0.0954  0.0495 -0.1849
  122loPI   C2A 1944  14.576  11.581   8.852 -0.0175 -0.1963 -0.0586
  122loPI   C3A 1945  14.513  11.547   8.443 -0.2772  0.1199 -0.1798
  122loPI   C4A 1946  14.711  11.385   8.107  0.0898 -0.1513 -0.2329
  122loPI   C5A 1947  15.049  11.314   7.783 -0.0582  0.0958  0.0067
  122loPI   C6A 1948  15.486  11.544   7.694  0.0204  0.1213  0.1133
  122loPI   C1B 1949  14.728  12.221   9.209 -0.1224  0.3328  0.2516
  122loPI   C2B 1950  14.929  11.975   8.790 -0.2092  0.0141  0.0116
  122loPI   C3B 1951  14.953  11.687   8.416  0.2375  0.0534  0.1413
  122loPI   C4B 1952  15.163  11.704   8.115  0.0073  0.1385  0.1153
  123loPI    C1 1953  14.742   2.537  10.100 -0.1580 -0.0194 -0.2508
  123loPI    C2 1954  14.421   2.444   9.879 -0.0638 -0.3221 -0.2646
  123loPI    C3 1955  14.433   2.345  10.267 -0.0376 -0.1997 -0.2335
  123loPI   PO4 1956  14.926   2.358   9.927 -0.0298  0.0515  0.1927
  123loPI   GL1 1957  15.202   2.444   9.464  0.0764 -0.1677 -0.1565
  123loPI   GL2 1958  15.386   2.177   9.400 -0.4770 -0.0143 -0.1194
  123loPI   C1A 1959  15.234   2.772   9.105  0.3242  0.0446 -0.2084
  123loPI   C2A 1960  15.274   3.000   8.734  0.3155 -0.1940  0.2650
  123loPI   C3A 1961  15.216   3.013   8.307  0.0815 -0.3270 -0.4131
  123loPI   C4A 1962  15.370   3.010   7.915  0.2405 -0.0710  0.0581
  123loPI   C5A 1963  15.249   3.176   7.423 -0.0838  0.2833  0.1400
  123loPI   C6A 1964  15.315   3.278   7.061 -0.2902 -0.1379  0.1709
  123loPI   C1B 1965  15.232   2.074   9.037 -0.2214 -0.1924  0.3030
  123loPI   C2B 1966  15.208   2.083   8.600 -0.0075 -0.4583 -0.3359
  123loPI   C3B 1967  15.275   2.061   8.237  0.1143 -0.0647 -0.1493
  123loPI   C4B 1968  15.456   2.090   7.816  0.1011  0.0766  0.1217
  124loPI    C1 1969   3.096   4.038   9.824  0.3243  0.2856 -0.2216
  124loPI    C2 1970   3.282   4.050  10.178 -0.0774 -0.3177  0.0275
  124loPI    C3 1971   3.038   4.348  10.069  0.1992 -0.0352  0.1661
  124loPI   PO4 1972   2.942   3.880   9.747 -0.2528  0.1216 -0.3225
  124loPI   GL1 1973   2.724   3.632   9.434 -0.2749 -0.1622 -0.1638
  124loPI   GL2 1974   2.606   3.548   9.167  0.0928 -0.3514  0.1035
  124loPI   C1A 1975   2.767   3.989   9.063  0.2709  0.0288 -0.1744
  124loPI   C2A 1976   2.672   3.956   8.705  0.0973  0.0529 -0.1716
  124loPI   C3A 1977   2.664   3.827   8.266 -0.1349  0.0956 -0.1964
  124loPI   C4A 1978   2.402   3.711   7.842  0.0559 -0.2998 -0.0331
  124loPI   C5A 1979   2.223   3.330   7.801  0.1409  0.1933 -0.3996
  124loPI   C6A 1980   1.963   2.956   7.611  0.2713 -0.1018 -0.2070
  124loPI   C1B 1981   2.603   3.486   8.676  0.0143 -0.0570  0.2620
  124loPI   C2B 1982   2.672   3.354   8.204  0.0572 -0.1170  0.1875
  124loPI   C3B 1983   2.429   3.019   8.122 -0.2027 -0.0789  0.1289
  124loPI   C4B 1984   2.093   2.673   8.050  0.1252  0.1327  0.1292
  125loPI    C1 1985  12.414   4.345  10.057 -0.0667 -0.1183 -0.0072
  125loPI    C2 1986  12.520   4.043  10.297 -0.1281 -0.2031 -0.0857
  125loPI    C3 1987  12.562   4.421  10.421 -0.0445 -0.2433  0.0105
  125loPI   PO4 1988  12.526   4.319   9.831  0.3445 -0.1362 -0.1768
  125loPI   GL1 1989  12.487   4.563   9.533  0.0665  0.0069  0.2248
  125loPI   GL2 1990  12.190   4.693   9.368 -0.0545  0.3694  0.0882
  125loPI   C1A 1991  12.759   4.708   9.205  0.1258 -0.1676 -0.0245
  125loPI   C2A 1992  12.806   4.716   8.777 -0.0486 -0.1146 -0.2627
  125loPI   C3A 1993  13.037   4.898   8.471 -0.0626  0.4354 -0.3480
  125loPI   C4A 1994  13.039   4.912   7.997 -0.0923 -0.1333 -0.0176
  125loPI   C5A 1995  13.258   4.727   7.587  0.0523  0.1435 -0.0195
  125loPI   C6A 1996  13.316   4.676   7.075  0.1023 -0.0240  0.1048
  125loPI   C1B 1997  12.254   4.455   9.039 -0.0381 -0.1163 -0.0050
  125loPI   C2B 1998  12.292   4.421   8.658 -0.1007 -0.0733 -0.2066
  125loPI   C3B 1999  12.124   4.619   8.267  0.1467  0.0209  0.1999
  125loPI   C4B 2000  12.061   4.826   7.878 -0.2928  0.3989 -0.0571
  126loPI    C1 2001   7.149   9.509  10.547 -0.0847  0.0999 -0.1278
  126loPI    C2 2002   6.904   9.753  10.748 -0.2117 -0.0678 -0.0765
  126loPI    C3 2003   6.958   9.377  10.872  0.3328  0.0611  0.1088
  126loPI   PO4 2004   7.136   9.523  10.244  0.0445  0.0368 -0.2600
  126loPI   GL1 2005   7.251   9.466   9.842  0.5368  0.1857 -0.1031
  126loPI   GL2 2006   7.562   9.571   9.873  0.3601  0.0436 -0.1453
  126loPI   C1A 2007   7.102   9.583   9.426 -0.5473  0.3082  0.0185
  126loPI   C2A 2008   7.139   9.893   9.100  0.0448 -0.3786 -0.2875
  126loPI   C3A 2009   7.212   9.915   8.619 -0.1557 -0.2801 -0.0135
  126loPI   C4A 2010   7.219   9.989   8.127 -0.2546  0.1364 -0.0079
  126loPI   C5A 2011   6.781   9.776   7.927  0.3280  0.0129  0.0503
  126loPI   C6A 2012   6.647   9.322   7.779 -0.4709  0.2168 -0.0435
  126loPI   C1B 2013   7.586   9.787   9.524 -0.1105 -0.2027  0.1768
  126loPI   C2B 2014   7.635   9.783   8.991  0.1529  0.4337 -0.0551
  126loPI   C3B 2015   7.841   9.397   8.655 -0.0025  0.0589  0.1250
  126loPI   C4B 2016   7.938   9.052   8.332 -0.0229  0.1785 -0.2750
  127loPI    C1 2017   7.372  17.991   9.998  0.0407  0.0177  0.1346
  127loPI    C2 2018   7.077  17.770  10.154  0.1292 -0.1955  0.0047
  127loPI    C3 2019   7.281  18.024  10.386 -0.1743 -0.0236  0.0892
  127loPI   PO4 2020   7.280  18.109   9.776  0.3082  0.0941  0.0533
  127loPI   GL1 2021   7.546  18.205   9.443 -0.0453  0.1899  0.1530
  127loPI   GL2 2022   7.375  18.523   9.352 -0.2958 -0.1341 -0.1159
  127loPI   C1A 2023   7.470  18.250   8.934 -0.0168  0.2238  0.0855
  127loPI   C2A 2024   7.264  18.283   8.606 -0.0133  0.1735 -0.1583
  127loPI   C3A 2025   7.318  18.191   8.243  0.0703  0.0394 -0.1288
  127loPI   C4A 2026   7.252  18.046   7.862 -0.0412  0.3961 -0.1379
  127loPI   C5A 2027   7.166  17.658   7.560 -0.1300  0.2272 -0.0212
  127loPI   C6A 2028   7.004  17.291   7.507 -0.0632  0.1861  0.0610
  127loPI   C1B 2029   7.455  18.725   8.817 -0.2905 -0.1635 -0.0500
  127loPI   C2B 2030   7.410  18.684   8.387  0.2262  0.1610 -0.1228
  127loPI   C3B 2031   7.410  18.521   7.908 -0.2451 -0.1118  0.0706
  127loPI   C4B 2032   7.478  18.374   7.532  0.1651  0.0175 -0.1586
  128loPI    C1 2033  17.045   8.936  10.252 -0.1935  0.0950 -0.0593
  128loPI    C2 2034  16.844   9.225  10.442 -0.2090  0.0482 -0.0038
  128loPI    C3 2035  17.027   8.938  10.652  0.0090  0.1514 -0.0491
  128loPI   PO4 2036  17.191   9.002  10.113  0.0862 -0.3942  0.1878
  128loPI   GL1 2037  17.259   9.121   9.714 -0.1783 -0.1101 -0.1252
  128loPI   GL2 2038  17.007   8.938   9.654  0.1879 -0.0866 -0.0841
  128loPI   C1A 2039  17.493   9.157   9.345 -0.3123 -0.0200 -0.2881
  128loPI   C2A 2040  17.358   9.058   8.932  0.1775  0.3435 -0.2118
  128loPI   C3A 2041  16.993   8.998   8.771  0.1012  0.2033 -0.1812
  128loPI   C4A 2042  16.890   8.734   8.416 -0.2076  0.2899 -0.0052
  128loPI   C5A 2043  16.839   8.446   8.071 -0.0193  0.2995  0.1236
  128loPI   C6A 2044  17.009   8.101   7.861  0.0492 -0.0219 -0.2182
  128loPI   C1B 2045  16.975   9.143   9.320 -0.0711 -0.0031  0.1336
  128loPI   C2B 2046  16.699   9.385   8.962  0.3258 -0.2737  0.3264
  128loPI   C3B 2047  16.573   9.377   8.476 -0.0972  0.1754  0.0538
  128loPI   C4B 2048  16.539   9.442   8.065 -0.0638 -0.0629 -0.0818
  129loPI    C1 2049  13.896   7.515  10.445 -0.0121  0.0955 -0.2591
  129loPI    C2 2050  14.182   7.243  10.508  0.0417  0.2144  0.0261
  129loPI    C3 2051  14.125   7.537  10.772 -0.3726  0.1681 -0.0060
  129loPI   PO4 2052  13.827   7.457  10.172 -0.1922 -0.0663  0.0360
  129loPI   GL1 2053  13.712   7.816   9.907  0.1661 -0.0075  0.3173
  129loPI   GL2 2054  13.899   7.550   9.688 -0.3723  0.0057 -0.3443
  129loPI   C1A 2055  13.724   7.917   9.403  0.0794  0.2641  0.0441
  129loPI   C2A 2056  13.688   7.937   8.974 -0.2511  0.0405  0.0235
  129loPI   C3A 2057  13.663   7.758   8.640  0.2064  0.0996 -0.1784
  129loPI   C4A 2058  13.567   7.802   8.275 -0.0302 -0.1458  0.1507
  129loPI   C5A 2059  13.586   7.612   7.846  0.1784  0.4703 -0.2668
  129loPI   C6A 2060  13.694   7.500   7.462 -0.1151 -0.5891 -0.0752
  129loPI   C1B 2061  13.873   7.402   9.363 -0.1763  0.1455 -0.0255
  129loPI   C2B 2062  13.879   7.396   8.891  0.1252 -0.0205 -0.1491
  129loPI   C3B 2063  13.894   7.382   8.453  0.0110 -0.1390  0.0787
  129loPI   C4B 2064  13.892   7.263   8.043 -0.0831  0.3909  0.0427
  130loPI    C1 2065  17.254   3.364  10.124  0.0563  0.0195  0.1214
  130loPI    C2 2066  17.343   2.981  10.195  0.1965  0.0239 -0.0239
  130loPI    C3 2067  17.054   3.161  10.404  0.0726 -0.1847 -0.0123
  130loPI   PO4 2068  17.232   3.439   9.797 -0.0245 -0.1670 -0.2673
  130loPI   GL1 2069  17.404   3.783   9.630  0.0969  0.1049 -0.1959
  130loPI   GL2 2070  17.507   3.601   9.399  0.0124 -0.0422  0.0250
  130loPI   C1A 2071  17.233   3.904   9.101  0.0556  0.1239 -0.3239
  130loPI   C2A 2072  17.261   3.982   8.724 -0.0365 -0.0402  0.2301
  130loPI   C3A 2073  17.248   4.023   8.252 -0.1211 -0.0547 -0.1413
  130loPI   C4A 2074  17.532   3.985   7.870 -0.3820 -0.1861 -0.1477
  130loPI   C5A 2075  17.673   3.768   7.599  0.4227  0.1933  0.2782
  130loPI   C6A 2076  18.076   3.658   7.458 -0.1135  0.2062  0.3747
  130loPI   C1B 2077  17.545   3.486   8.951 -0.0244 -0.4250  0.0220
  130loPI   C2B 2078  17.522   3.660   8.499 -0.1009  0.3104  0.1773
  130loPI   C3B 2079  17.728   3.507   8.106 -0.2211 -0.2929 -0.4729
  130loPI   C4B 2080  17.665   3.331   7.729  0.0337 -0.1871 -0.3692
  131loPI    C1 2081  18.296  14.293  10.460 -0.0755  0.0789 -0.0460
  131loPI    C2 2082  18.398  14.643  10.296 -0.3563  0.1128 -0.1532
  131loPI    C3 2083  18.262  14.631  10.672  0.0850  0.0605  0.0103
  131loPI   PO4 2084  18.537  14.146  10.381  0.1061  0.1108  0.1554
  131loPI   GL1 2085  18.489  14.184   9.919  0.2297 -0.0142  0.1144
  131loPI   GL2 2086  18.683  14.283   9.900  0.0325  0.0454 -0.1527
  131loPI   C1A 2087  18.356  14.364   9.502 -0.2090  0.0840 -0.0469
  131loPI   C2A 2088  18.338  14.365   9.073 -0.2789  0.0703  0.2782
  131loPI   C3A 2089  18.348  14.375   8.610 -0.1521 -0.0963  0.0942
  131loPI   C4A 2090  18.323  14.537   8.197 -0.0962  0.0231  0.0275
  131loPI   C5A 2091  18.568  14.577   7.810  0.2685  0.0693  0.0201
  131loPI   C6A 2092  19.040  14.711   7.923  0.3126  0.1455 -0.0001
  131loPI   C1B 2093  18.890  14.166   9.485  0.0570 -0.0467 -0.1598
  131loPI   C2B 2094  18.906  14.105   9.090  0.2779 -0.0709  0.1048
  131loPI   C3B 2095  18.828  14.213   8.620 -0.1329 -0.0439 -0.0087
  131loPI   C4B 2096  18.614  14.086   8.301  0.0967  0.1735 -0.0099
  132loPI    C1 2097   9.766  11.799  10.693 -0.0208 -0.1506 -0.0643
  132loPI    C2 2098   9.473  12.040  10.567 -0.0292 -0.1247  0.0042
  132loPI    C3 2099   9.457  11.881  10.933  0.1818  0.1027  0.1158
  132loPI   PO4 2100   9.842  11.727  10.383 -0.0365 -0.3803 -0.1800
  132loPI   GL1 2101  10.158  11.883  10.062  0.0796  0.3038  0.2522
  132loPI   GL2 2102   9.912  12.090  10.022  0.0925 -0.3626 -0.0144
  132loPI   C1A 2103  10.432  12.057   9.705 -0.1977  0.1954 -0.2496
  132loPI   C2A 2104  10.363  11.991   9.226 -0.1145 -0.1318 -0.1903
  132loPI   C3A 2105  10.180  12.092   8.923 -0.0400 -0.1287  0.1245
  132loPI   C4A 2106  10.041  12.349   8.692 -0.0527 -0.3062 -0.0968
  132loPI   C5A 2107   9.839  12.344   8.348 -0.0860 -0.0626 -0.1503
  132loPI   C6A 2108   9.511  12.386   7.958 -0.0021 -0.3033  0.2226
  132loPI   C1B 2109   9.987  12.305   9.617 -0.1600  0.0342  0.1011
  132loPI   C2B 2110   9.915  12.344   9.268  0.0222 -0.2309 -0.1465
  132loPI   C3B 2111   9.666  12.527   8.936  0.2091  0.1809  0.3252
  132loPI   C4B 2112   9.435  12.665   8.533  0.0454 -0.2698  0.0148
  133loPI    C1 2113  11.047   9.260  10.221 -0.1047 -0.0129 -0.1557
  133loPI    C2 2114  10.808   9.524  10.405  0.0852  0.2163 -0.2323
  133loPI    C3 2115  11.099   9.340  10.609 -0.0195  0.0971 -0.1891
  133loPI   PO4 2116  10.995   9.382   9.953 -0.0790 -0.0013 -0.0116
  133loPI   GL1 2117  10.738   9.620   9.610  0.1683 -0.1678  0.2846
  133loPI   GL2 2118  10.439   9.344   9.514 -0.3240  0.0210  0.3501
  133loPI   C1A 2119  10.980   9.677   9.223  0.1673  0.3592 -0.1291
  133loPI   C2A 2120  10.993   9.704   8.824  0.4089  0.1482 -0.0300
  133loPI   C3A 2121  10.790   9.939   8.545 -0.1153  0.0673  0.3260
  133loPI   C4A 2122  10.957  10.114   8.177  0.0853  0.2466 -0.1651
  133loPI   C5A 2123  11.284  10.070   7.887  0.1937  0.3483 -0.1209
  133loPI   C6A 2124  11.682  10.119   7.686  0.0428 -0.1006  0.1849
  133loPI   C1B 2125  10.567   9.406   8.964 -0.1477  0.0844 -0.2937
  133loPI   C2B 2126  10.608   9.466   8.452 -0.1651  0.0895 -0.1740
  133loPI   C3B 2127  10.583   9.413   7.953 -0.0226 -0.1228 -0.1262
  133loPI   C4B 2128  10.346   9.643   7.620 -0.0674  0.2819 -0.4595
  134loPI    C1 2129   8.406  15.647  10.242 -0.5505 -0.0067  0.0996
  134loPI    C2 2130   8.389  15.620  10.641  0.3993  0.1765  0.1765
  134loPI    C3 2131   8.425  15.978  10.466  0.0962  0.0885 -0.0754
  134loPI   PO4 2132   8.343  15.370  10.168  0.2243 -0.1809 -0.0980
  134loPI   GL1 2133   8.318  15.147   9.794  0.1713  0.0863 -0.1991
  134loPI   GL2 2134   8.099  14.977   9.603 -0.5655 -0.1879 -0.1226
  134loPI   C1A 2135   8.558  15.257   9.414 -0.3517  0.0985  0.0309
  134loPI   C2A 2136   8.517  15.403   9.008  0.1215  0.0994 -0.0830
  134loPI   C3A 2137   8.446  15.481   8.594 -0.1162 -0.1681 -0.0397
  134loPI   C4A 2138   8.403  15.568   8.095  0.1554  0.1957 -0.1285
  134loPI   C5A 2139   8.188  15.704   7.633  0.2222  0.2327  0.3278
  134loPI   C6A 2140   8.025  16.058   7.340 -0.2448 -0.0991 -0.0753
  134loPI   C1B 2141   8.154  15.080   9.162  0.0040  0.2066 -0.0145
  134loPI   C2B 2142   8.076  15.230   8.766  0.0294  0.1112  0.2150
  134loPI   C3B 2143   8.081  15.085   8.396 -0.1973 -0.2726 -0.0588
  134loPI   C4B 2144   8.223  15.078   8.017 -0.1203  0.1769  0.0426
  135loPI    C1 2145  15.579   6.274   9.972  0.0044  0.0898 -0.0248
  135loPI    C2 2146  15.215   6.218  10.128  0.0368 -0.0672 -0.0037
  135loPI    C3 2147  15.321   6.579   9.991 -0.0577  0.0266  0.1677
  135loPI   PO4 2148  15.632   5.994   9.936  0.3200 -0.1248  0.1035
  135loPI   GL1 2149  15.531   5.804   9.511 -0.1901  0.2472  0.0992
  135loPI   GL2 2150  15.733   5.522   9.659  0.1142  0.1807  0.1528
  135loPI   C1A 2151  15.651   5.880   9.133 -0.0895  0.0270 -0.1480
  135loPI   C2A 2152  15.649   6.177   8.735  0.0949  0.0595 -0.0121
  135loPI   C3A 2153  15.633   6.329   8.324  0.1017 -0.0257 -0.0969
  135loPI   C4A 2154  15.635   6.424   7.955  0.1778  0.1194 -0.1733
  135loPI   C5A 2155  15.995   6.154   7.846  0.2807  0.2376  0.0088
  135loPI   C6A 2156  16.039   5.833   7.619  0.3402  0.0949  0.0559
  135loPI   C1B 2157  16.024   5.776   9.405 -0.0931  0.2123  0.1688
  135loPI   C2B 2158  16.104   5.971   8.961 -0.0005  0.1175  0.0030
  135loPI   C3B 2159  16.032   5.960   8.505  0.0303  0.0354 -0.2534
  135loPI   C4B 2160  16.177   5.753   8.114 -0.1156  0.0558  0.1590
  136loPI    C1 2161   8.065  18.506  10.214  0.2259 -0.1635 -0.1307
  136loPI    C2 2162   7.770  18.236  10.223 -0.0952  0.1825  0.0141
  136loPI    C3 2163   8.033  18.255  10.524  0.0678 -0.1127 -0.1050
  136loPI   PO4 2164   8.125  18.489   9.990  0.3579 -0.1301 -0.3174
  136loPI   GL1 2165   8.094  18.405   9.640 -0.1589  0.1225  0.0564
  136loPI   GL2 2166   8.030  18.189   9.329 -0.0664  0.4181 -0.1786
  136loPI   C1A 2167   7.869  18.671   9.314  0.2255 -0.1932  0.0605
  136loPI   C2A 2168   7.973  18.760   8.954  0.1637  0.0688 -0.0974
  136loPI   C3A 2169   7.931  18.652   8.525  0.1315  0.1741  0.0433
  136loPI   C4A 2170   7.889  18.580   8.054 -0.2260  0.1773  0.3866
  136loPI   C5A 2171   8.046  18.533   7.618  0.1204 -0.4546  0.1007
  136loPI   C6A 2172   8.242  18.489   7.204 -0.3844 -0.0060  0.3885
  136loPI   C1B 2173   7.952  18.260   8.946  0.4386 -0.0503  0.2310
  136loPI   C2B 2174   7.815  18.160   8.534  0.1367  0.0196 -0.0920
  136loPI   C3B 2175   7.802  18.100   8.083 -0.0605 -0.0242  0.0599
  136loPI   C4B 2176   7.803  18.080   7.695 -0.0484 -0.2730 -0.0659
  137loPI    C1 2177  11.774   8.842  10.485 -0.0674 -0.1429 -0.3707
  137loPI    C2 2178  11.996   9.174  10.508  0.2210 -0.3380 -0.2992
  137loPI    C3 2179  11.699   9.115  10.769  0.2851 -0.2199 -0.1981
  137loPI   PO4 2180  11.715   8.787  10.247 -0.1958 -0.0576  0.0046
  137loPI   GL1 2181  11.424   9.067   9.955  0.2826  0.0284 -0.0804
  137loPI   GL2 2182  11.388   8.776   9.795 -0.2001 -0.0342 -0.1809
  137loPI   C1A 2183  11.637   9.148   9.589  0.0354 -0.0624  0.1348
  137loPI   C2A 2184  11.724   9.051   9.155 -0.1144 -0.2061  0.0382
  137loPI   C3A 2185  11.734   9.124   8.673 -0.0294 -0.3691  0.0590
  137loPI   C4A 2186  11.706   9.225   8.273 -0.4127 -0.2736 -0.0252
  137loPI   C5A 2187  11.757   9.309   7.853  0.0778  0.1997 -0.3286
  137loPI   C6A 2188  11.990   9.289   7.592  0.1776 -0.2097 -0.0045
  137loPI   C1B 2189  11.417   8.722   9.350  0.2022 -0.1138 -0.1960
  137loPI   C2B 2190  11.427   8.730   8.956  0.0917  0.2635  0.0712
  137loPI   C3B 2191  11.442   8.781   8.487 -0.0441  0.1396 -0.1570
  137loPI   C4B 2192  11.618   8.802   8.026 -0.2181 -0.4352  0.1494
  138loPI    C1 2193  15.546   3.830  10.390 -0.1328  0.0352 -0.0115
  138loPI    C2 2194  15.372   4.087  10.643  0.0718  0.0922  0.0738
  138loPI    C3 2195  15.266   3.701  10.646 -0.2691  0.1805 -0.0859
  138loPI   PO4 2196  15.641   4.137  10.132 -0.0026  0.0264 -0.0040
  138loPI   GL1 2197  15.607   4.141   9.631 -0.0017  0.1085 -0.1173
  138loPI   GL2 2198  15.572   3.924   9.454 -0.1753 -0.1717  0.1862
  138loPI   C1A 2199  15.327   4.385   9.372  0.0368  0.1173 -0.2447
  138loPI   C2A 2200  15.247   4.484   9.012 -0.0229  0.1068 -0.2222
  138loPI   C3A 2201  15.239   4.645   8.552  0.0568 -0.0890  0.0649
  138loPI   C4A 2202  15.302   4.893   8.227 -0.0273 -0.2748 -0.1663
  138loPI   C5A 2203  15.092   5.157   7.989  0.1095  0.1904 -0.0350
  138loPI   C6A 2204  14.880   5.425   7.778 -0.1255  0.1867 -0.1900
  138loPI   C1B 2205  15.638   4.118   9.074 -0.1744 -0.3367  0.0696
  138loPI   C2B 2206  15.531   4.273   8.662 -0.0336  0.2903  0.4562
  138loPI   C3B 2207  15.433   4.312   8.214 -0.4608 -0.0136  0.2415
  138loPI   C4B 2208  15.464   4.524   7.742 -0.0892  0.3505  0.0779
  139loPI    C1 2209   5.919   7.029  10.654 -0.0929  0.4797 -0.1140
  139loPI    C2 2210   5.639   7.236  10.852 -0.3098  0.0470  0.0433
  139loPI    C3 2211   5.551   6.877  10.698  0.1143 -0.0215 -0.0505
  139loPI   PO4 2212   6.043   7.221  10.510 -0.1491  0.2501 -0.1405
  139loPI   GL1 2213   6.082   7.119  10.141 -0.0764 -0.1737  0.3478
  139loPI   GL2 2214   5.919   7.408  10.034 -0.1621  0.0747  0.1922
  139loPI   C1A 2215   5.698   7.107   9.795  0.1109 -0.0036  0.0901
  139loPI   C2A 2216   5.440   7.265   9.377 -0.0151 -0.5421 -0.1957
  139loPI   C3A 2217   5.431   7.246   8.993  0.0385  0.2009 -0.1280
  139loPI   C4A 2218   5.661   7.136   8.635 -0.2252  0.0398  0.0221
  139loPI   C5A 2219   5.736   6.936   8.293  0.0130  0.0881 -0.0279
  139loPI   C6A 2220   5.981   6.917   8.000 -0.0707 -0.2965  0.0231
  139loPI   C1B 2221   5.882   7.446   9.566 -0.2466 -0.2822  0.1133
  139loPI   C2B 2222   5.877   7.373   9.115  0.0858 -0.0989  0.1790
  139loPI   C3B 2223   6.106   7.368   8.832 -0.1788  0.0188  0.3663
  139loPI   C4B 2224   6.184   7.058   8.550 -0.3842  0.0524  0.1334
  140loPI    C1 2225  15.137   8.101  10.321 -0.3457 -0.1391  0.0366
  140loPI    C2 2226  15.156   7.762  10.533 -0.0925 -0.1720 -0.0355
  140loPI    C3 2227  14.896   8.049  10.636 -0.0005 -0.2039  0.2945
  140loPI   PO4 2228  15.363   8.113  10.162 -0.1006  0.2582  0.3529
  140loPI   GL1 2229  15.753   8.118   9.833  0.0457  0.3552 -0.0745
  140loPI   GL2 2230  15.997   8.299   9.721  0.1765  0.0069  0.1889
  140loPI   C1A 2231  15.787   7.762   9.502  0.2698 -0.0588 -0.0678
  140loPI   C2A 2232  15.436   7.745   9.265 -0.2925 -0.0877  0.0737
  140loPI   C3A 2233  15.384   7.684   8.806  0.1470  0.2489  0.2500
  140loPI   C4A 2234  15.304   7.662   8.372  0.4403 -0.0478 -0.2516
  140loPI   C5A 2235  15.523   7.760   7.970 -0.0958 -0.4348 -0.3980
  140loPI   C6A 2236  15.900   7.785   7.679 -0.0032 -0.1119 -0.0209
  140loPI   C1B 2237  16.217   8.140   9.420 -0.0994  0.0001 -0.1953
  140loPI   C2B 2238  16.292   7.937   9.195 -0.0292  0.1743 -0.4113
  140loPI   C3B 2239  16.226   7.903   8.882  0.1314  0.0659 -0.2032
  140loPI   C4B 2240  16.145   7.985   8.455 -0.0788  0.0205  0.0100
  141loPI    C1 2241   0.309   2.148  10.141  0.1460  0.3315 -0.0018
  141loPI    C2 2242  -0.002   2.392  10.206  0.0832  0.2236  0.1067
  141loPI    C3 2243   0.264   2.323  10.497  0.0441  0.0825  0.1098
  141loPI   PO4 2244   0.475   2.280   9.949  0.0252 -0.0297  0.0475
  141loPI   GL1 2245   0.535   2.364   9.497 -0.0459  0.2998  0.0663
  141loPI   GL2 2246   0.157   2.385   9.567 -0.0093 -0.2724  0.5049
  141loPI   C1A 2247   0.531   2.470   9.158 -0.2906 -0.0535 -0.3372
  141loPI   C2A 2248   0.557   2.530   8.692  0.1897 -0.0707 -0.0152
  141loPI   C3A 2249   0.495   2.489   8.225  0.1228 -0.0613  0.2509
  141loPI   C4A 2250   0.346   2.222   7.874  0.2467 -0.2400  0.1348
  141loPI   C5A 2251   0.453   2.136   7.530  0.0777 -0.0320 -0.0471
  141loPI   C6A 2252   0.834   2.031   7.309  0.1342 -0.1872  0.0831
  141loPI   C1B 2253   0.066   2.651   9.155  0.2736  0.1000  0.0413
  141loPI   C2B 2254  -0.021   2.553   8.755 -0.0378 -0.2966  0.1871
  141loPI   C3B 2255  -0.003   2.524   8.406  0.2045 -0.2279  0.0335
  141loPI   C4B 2256  -0.011   2.705   7.973 -0.1457 -0.2626 -0.1786
  142loPI    C1 2257   8.668   6.063  10.668 -0.1107 -0.1214 -0.0021
  142loPI    C2 2258   8.795   5.996  11.041 -0.1599 -0.1114  0.0164
  142loPI    C3 2259   8.433   5.870  10.928 -0.1709 -0.0572 -0.0088
  142loPI   PO4 2260   8.865   5.896  10.484 -0.2297 -0.2498  0.1548
  142loPI   GL1 2261   9.107   5.937  10.051  0.0505  0.4180  0.2194
  142loPI   GL2 2262   8.941   5.645  10.007 -0.3118  0.1351 -0.0844
  142loPI   C1A 2263   8.902   6.179   9.750 -0.2665 -0.2357  0.2853
  142loPI   C2A 2264   8.877   6.378   9.321  0.0561  0.0113 -0.0534
  142loPI   C3A 2265   8.957   6.416   8.924  0.3945 -0.1373 -0.2642
  142loPI   C4A 2266   9.167   6.536   8.547  0.2715 -0.1598  0.2629
  142loPI   C5A 2267   9.360   6.493   8.109  0.1558  0.0291  0.2654
  142loPI   C6A 2268   9.431   6.149   7.732 -0.0532  0.1506  0.0452
  142loPI   C1B 2269   9.081   5.632   9.592  0.0570  0.4829 -0.0244
  142loPI   C2B 2270   9.038   5.730   9.103 -0.1589 -0.1381 -0.1352
  142loPI   C3B 2271   9.059   5.812   8.708  0.0037  0.1708  0.0515
  142loPI   C4B 2272   9.061   6.090   8.424  0.2374 -0.0034  0.1197
  143loPI    C1 2273  15.977  11.532  10.302 -0.0717  0.0059 -0.0007
  143loPI    C2 2274  16.135  11.754  10.595  0.0080 -0.3656  0.2432
  143loPI    C3 2275  15.781  11.853  10.438 -0.1089 -0.2482  0.5723
  143loPI   PO4 2276  16.154  11.433  10.112 -0.0466  0.1036 -0.1065
  143loPI   GL1 2277  16.276  11.658   9.747 -0.1236  0.2118  0.2160
  143loPI   GL2 2278  16.042  11.724   9.712  0.0579 -0.2026 -0.2629
  143loPI   C1A 2279  16.496  11.565   9.362 -0.3347  0.3012  0.2043
  143loPI   C2A 2280  16.480  11.824   9.055  0.1528 -0.1123  0.4137
  143loPI   C3A 2281  16.377  11.851   8.594  0.1425 -0.0312 -0.0222
  143loPI   C4A 2282  16.488  11.860   8.121  0.0356  0.2012  0.1418
  143loPI   C5A 2283  16.527  12.271   7.941 -0.1275  0.1010 -0.0341
  143loPI   C6A 2284  16.623  12.475   7.578 -0.1929 -0.1477  0.3828
  143loPI   C1B 2285  15.992  11.735   9.340  0.2140  0.0537 -0.0334
  143loPI   C2B 2286  15.974  11.705   8.927 -0.0365 -0.0084  0.1164
  143loPI   C3B 2287  15.844  11.678   8.443 -0.2907  0.1437  0.1800
  143loPI   C4B 2288  15.608  11.510   8.140 -0.0326 -0.3057 -0.2901
  144loPI    C1 2289  18.238   3.418   9.924 -0.0637  0.0636 -0.1506
  144loPI    C2 2290  18.301   3.145  10.210  0.0848 -0.0915 -0.3291
  144loPI    C3 2291  18.435   3.519  10.257  0.1682 -0.1341 -0.2248
  144loPI   PO4 2292  18.320   3.306   9.697  0.0275  0.0658  0.1563
  144loPI   GL1 2293  18.083   3.233   9.278  0.2630  0.3130  0.1852
  144loPI   GL2 2294  17.871   2.903   9.303  0.0113 -0.1524  0.0715
  144loPI   C1A 2295  18.096   3.285   8.873 -0.0063  0.1580  0.0202
  144loPI   C2A 2296  17.903   3.287   8.526 -0.0497  0.2750 -0.1856
  144loPI   C3A 2297  17.862   3.008   8.109  0.1399  0.0030 -0.2016
  144loPI   C4A 2298  18.143   2.666   7.908 -0.1487 -0.0698 -0.1891
  144loPI   C5A 2299  18.354   2.606   7.503  0.0567  0.0328  0.0119
  144loPI   C6A 2300  18.541   2.571   7.019  0.1720  0.0214 -0.0523
  144loPI   C1B 2301  17.724   3.021   8.914  0.0387 -0.0004 -0.4449
  144loPI   C2B 2302  17.785   2.763   8.573 -0.1281  0.1601 -0.0643
  144loPI   C3B 2303  17.678   2.557   8.210 -0.2237  0.1991  0.1600
  144loPI   C4B 2304  17.738   2.407   7.787  0.0163 -0.1640  0.0444
  145loPI    C1 2305   7.338   0.255   9.985 -0.0607  0.1955  0.0587
  145loPI    C2 2306   7.680   0.145  10.162 -0.2023 -0.0256  0.2007
  145loPI    C3 2307   7.493   0.479  10.278  0.0064  0.1409  0.0654
  145loPI   PO4 2308   7.400   0.260   9.689  0.4003  0.2263  0.2465
  145loPI   GL1 2309   7.514   0.520   9.363  0.0927 -0.0762 -0.1640
  145loPI   GL2 2310   7.154   0.462   9.272  0.0364 -0.0177  0.0479
  145loPI   C1A 2311   7.709   0.462   8.942 -0.0461  0.2873 -0.1238
  145loPI   C2A 2312   7.810   0.471   8.481 -0.1990  0.2404  0.1774
  145loPI   C3A 2313   7.734   0.341   8.147 -0.1621  0.1567  0.3825
  145loPI   C4A 2314   7.655   0.211   7.670 -0.0143  0.2191  0.1020
  145loPI   C5A 2315   7.308   0.202   7.492  0.1689 -0.1810 -0.3543
  145loPI   C6A 2316   6.850   0.181   7.468  0.0326 -0.0564 -0.1089
  145loPI   C1B 2317   7.241   0.482   8.846  0.3611 -0.0224  0.0070
  145loPI   C2B 2318   7.314   0.441   8.402  0.2163 -0.3978  0.1295
  145loPI   C3B 2319   7.255   0.469   7.993 -0.1570 -0.0299  0.2638
  145loPI   C4B 2320   7.176   0.667   7.641 -0.3667 -0.0318  0.0205
  146loPI    C1 2321   9.125   1.648  10.112 -0.1524  0.1106  0.1207
  146loPI    C2 2322   9.123   1.439  10.453  0.0529 -0.0593  0.0203
  146loPI    C3 2323   9.469   1.564  10.297 -0.0294 -0.0929 -0.1923
  146loPI   PO4 2324   8.960   1.820  10.096 -0.0034 -0.0402  0.1522
  146loPI   GL1 2325   8.891   2.022   9.761  0.2968  0.2001  0.2371
  146loPI   GL2 2326   9.084   1.775   9.588  0.1636  0.3494 -0.0623
  146loPI   C1A 2327   8.695   2.089   9.365 -0.3405  0.1932  0.2730
  146loPI   C2A 2328   8.568   2.013   8.888 -0.1625 -0.0040 -0.0930
  146loPI   C3A 2329   8.496   1.971   8.465  0.1449  0.0326 -0.0776
  146loPI   C4A 2330   8.655   1.908   7.982  0.2412 -0.0220 -0.0504
  146loPI   C5A 2331   8.796   1.743   7.574 -0.2891 -0.2876 -0.2580
  146loPI   C6A 2332   8.965   1.703   7.172  0.0705  0.1672  0.0287
  146loPI   C1B 2333   8.962   1.649   9.184 -0.0374 -0.0262  0.0547
  146loPI   C2B 2334   8.991   1.614   8.626 -0.0175  0.0236 -0.0275
  146loPI   C3B 2335   9.077   1.638   8.225 -0.3617  0.0764 -0.0196
  146loPI   C4B 2336   9.028   1.409   7.927  0.0027  0.0037 -0.0997
  147loPI    C1 2337  15.486   7.194  10.259 -0.1835 -0.1008 -0.0159
  147loPI    C2 2338  15.695   6.925  10.050  0.2241  0.0242  0.2193
  147loPI    C3 2339  15.760   6.967  10.442 -0.0109  0.2970  0.2318
  147loPI   PO4 2340  15.267   7.171  10.175  0.1144 -0.2895  0.0380
  147loPI   GL1 2341  15.018   6.962   9.774 -0.2031 -0.1677 -0.0131
  147loPI   GL2 2342  15.191   6.733   9.536  0.0771 -0.0351  0.0455
  147loPI   C1A 2343  14.970   7.175   9.322  0.1743 -0.3062 -0.1269
  147loPI   C2A 2344  14.885   6.946   8.932  0.1761  0.1331 -0.2497
  147loPI   C3A 2345  15.020   7.095   8.564  0.1690 -0.1047  0.1903
  147loPI   C4A 2346  15.007   7.292   8.196 -0.0035 -0.4112  0.3789
  147loPI   C5A 2347  15.078   7.254   7.737 -0.2406 -0.0063  0.3921
  147loPI   C6A 2348  15.069   7.168   7.334 -0.1230  0.0982  0.1234
  147loPI   C1B 2349  15.131   6.562   9.153  0.2125  0.1251  0.1015
  147loPI   C2B 2350  15.235   6.629   8.627 -0.0717  0.2647 -0.0937
  147loPI   C3B 2351  15.291   6.666   8.230 -0.2891  0.1504 -0.0720
  147loPI   C4B 2352  15.176   6.866   7.963  0.1268 -0.1617 -0.3249
  148loPI    C1 2353  16.957   0.945   9.977  0.1733  0.0577  0.0839
  148loPI    C2 2354  17.103   0.612  10.145 -0.1731 -0.0545  0.1717
  148loPI    C3 2355  17.030   0.934  10.371  0.1684  0.0883  0.0856
  148loPI   PO4 2356  16.966   0.912   9.807 -0.0820  0.1297  0.2665
  148loPI   GL1 2357  16.803   1.073   9.457 -0.0519  0.2589 -0.0179
  148loPI   GL2 2358  16.835   1.343   9.221  0.1198  0.0185 -0.3159
  148loPI   C1A 2359  16.631   0.922   9.088 -0.1269 -0.0654 -0.0194
  148loPI   C2A 2360  16.574   0.845   8.647  0.0722  0.4248  0.0466
  148loPI   C3A 2361  16.593   0.719   8.268 -0.1472 -0.1602  0.0031
  148loPI   C4A 2362  16.770   0.838   7.990 -0.2965  0.1553  0.1667
  148loPI   C5A 2363  16.864   0.987   7.591  0.4577 -0.1737  0.0649
  148loPI   C6A 2364  16.643   1.312   7.304  0.2495  0.2091 -0.0725
  148loPI   C1B 2365  16.624   1.380   8.802 -0.1445  0.2811  0.0432
  148loPI   C2B 2366  16.384   1.219   8.445  0.0608 -0.1052  0.0884
  148loPI   C3B 2367  16.364   1.118   7.978  0.1948  0.2386  0.1513
  148loPI   C4B 2368  16.188   1.219   7.518 -0.2430  0.1011  0.0648
  149loPI    C1 2369   2.012   0.722   9.898 -0.0154 -0.1014  0.2102
  149loPI    C2 2370   1.622   0.795   9.948  0.0248  0.1576  0.1623
  149loPI    C3 2371   1.851   0.706  10.263 -0.0307  0.2202  0.2206
  149loPI   PO4 2372   1.988   0.540   9.677  0.2494 -0.3048 -0.0142
  149loPI   GL1 2373   2.339   0.402   9.399  0.1267  0.2141  0.3133
  149loPI   GL2 2374   2.525   0.418   9.334  0.1250  0.0921  0.0503
  149loPI   C1A 2375   2.180   0.308   8.917  0.0142 -0.0405 -0.2521
  149loPI   C2A 2376   2.069   0.353   8.456  0.0671 -0.2268  0.4823
  149loPI   C3A 2377   2.146   0.588   8.023  0.2708 -0.0314  0.0178
  149loPI   C4A 2378   2.417   0.656   7.623 -0.1690 -0.4050  0.1768
  149loPI   C5A 2379   2.495   0.413   7.229 -0.3933 -0.1138 -0.0952
  149loPI   C6A 2380   2.520   0.071   6.947 -0.1564 -0.2165  0.2404
  149loPI   C1B 2381   2.825   0.383   9.076 -0.1403 -0.2557 -0.0268
  149loPI   C2B 2382   3.122   0.569   8.865 -0.2890 -0.0205 -0.0866
  149loPI   C3B 2383   3.093   0.559   8.367  0.3831  0.0319 -0.1425
  149loPI   C4B 2384   3.145   0.354   7.947 -0.0771 -0.1621  0.1663
  150loPI    C1 2385  12.775  11.483  10.357  0.1875  0.0288 -0.0461
  150loPI    C2 2386  13.110  11.672  10.244  0.0973  0.1565 -0.1024
  150loPI    C3 2387  12.956  11.737  10.608  0.0081  0.2736 -0.1605
  150loPI   PO4 2388  12.674  11.486  10.015 -0.1894 -0.1524  0.0505
  150loPI   GL1 2389  12.979  11.614   9.740  0.2160  0.3673  0.2230
  150loPI   GL2 2390  12.845  11.251   9.589  0.0499  0.3094 -0.2285
  150loPI   C1A 2391  12.873  11.739   9.355 -0.0399 -0.2692  0.1313
  150loPI   C2A 2392  12.886  11.936   8.944 -0.0868  0.0136  0.0328
  150loPI   C3A 2393  12.854  11.928   8.534 -0.0345 -0.0263 -0.1850
  150loPI   C4A 2394  12.864  12.037   8.159  0.1029  0.2834  0.1727
  150loPI   C5A 2395  12.774  11.948   7.770  0.2183  0.1578  0.0827
  150loPI   C6A 2396  12.564  11.636   7.415  0.1329 -0.1414 -0.3739
  150loPI   C1B 2397  13.069  11.322   9.198 -0.0722  0.0266  0.1192
  150loPI   C2B 2398  13.037  11.453   8.671  0.1051 -0.2278  0.0379
  150loPI   C3B 2399  13.218  11.416   8.279 -0.0093  0.3529 -0.4198
  150loPI   C4B 2400  13.451  11.512   8.032 -0.2465 -0.1295  0.1017
  151loPI    C1 2401  15.580  11.424  10.027 -0.1871  0.2279  0.1114
  151loPI    C2 2402  15.181  11.444  10.004 -0.1736  0.0938 -0.3151
  151loPI    C3 2403  15.365  11.512  10.352 -0.5844 -0.1090 -0.0515
  151loPI   PO4 2404  15.620  11.498   9.785  0.2069 -0.4157  0.0201
  151loPI   GL1 2405  15.435  11.638   9.430 -0.3387  0.0123 -0.2100
  151loPI   GL2 2406  15.118  11.527   9.508  0.4298  0.2583 -0.2631
  151loPI   C1A 2407  15.541  11.569   9.110 -0.2432  0.2285  0.0104
  151loPI   C2A 2408  15.656  11.324   8.802 -0.1331  0.1782 -0.1398
  151loPI   C3A 2409  15.765  11.048   8.441  0.0929 -0.1949  0.0801
  151loPI   C4A 2410  16.106  11.068   8.101 -0.2812 -0.0687 -0.0462
  151loPI   C5A 2411  16.175  10.876   7.644 -0.1503  0.2192 -0.0686
  151loPI   C6A 2412  16.407  10.998   7.414 -0.0379  0.0782  0.0667
  151loPI   C1B 2413  14.983  11.627   9.145 -0.0500 -0.0622  0.1619
  151loPI   C2B 2414  15.120  11.433   8.822 -0.1558  0.2114  0.1752
  151loPI   C3B 2415  15.212  11.263   8.459 -0.0798  0.0368  0.1492
  151loPI   C4B 2416  15.303  11.007   8.157  0.1124 -0.0851 -0.2053
  152loPI    C1 2417  17.204  10.485  10.300  0.2470 -0.0753  0.0016
  152loPI    C2 2418  17.014  10.157  10.428 -0.0511  0.0756 -0.0445
  152loPI    C3 2419  17.190  10.402  10.691 -0.1659  0.0835  0.0255
  152loPI   PO4 2420  17.093  10.535  10.019  0.1698 -0.2493  0.1271
  152loPI   GL1 2421  16.829  10.401   9.737 -0.4241  0.0248  0.0998
  152loPI   GL2 2422  16.988  10.200   9.535  0.2685 -0.3265  0.0035
  152loPI   C1A 2423  16.467  10.634   9.452  0.2255 -0.1109 -0.1154
  152loPI   C2A 2424  16.338  10.635   8.988  0.0781 -0.0827  0.0021
  152loPI   C3A 2425  16.443  10.792   8.718 -0.0677  0.1319  0.0355
  152loPI   C4A 2426  16.497  10.910   8.253 -0.1260 -0.1726 -0.0971
  152loPI   C5A 2427  16.549  11.188   7.866  0.2052  0.1248 -0.1993
  152loPI   C6A 2428  16.579  11.520   7.605 -0.2721 -0.2379  0.1670
  152loPI   C1B 2429  16.873  10.463   9.269  0.3565  0.0302  0.2591
  152loPI   C2B 2430  16.959  10.778   8.828  0.0218 -0.1933 -0.3069
  152loPI   C3B 2431  16.930  10.672   8.340 -0.2492  0.3943 -0.0757
  152loPI   C4B 2432  16.866  10.786   7.932 -0.1558 -0.0684 -0.0724
  153loPI    C1 2433   3.021  15.112  10.231 -0.0738 -0.1477 -0.1289
  153loPI    C2 2434   3.418  15.127  10.191 -0.0686  0.0501 -0.0138
  153loPI    C3 2435   3.252  14.858  10.436 -0.0127 -0.1018 -0.1408
  153loPI   PO4 2436   2.915  15.153  10.058  0.0677 -0.2605  0.0963
  153loPI   GL1 2437   2.914  15.096   9.617 -0.1798 -0.0229  0.0479
  153loPI   GL2 2438   3.145  15.361   9.652  0.0311  0.1267  0.0550
  153loPI   C1A 2439   2.845  15.017   9.089  0.1745 -0.1245  0.1954
  153loPI   C2A 2440   2.787  14.849   8.773  0.0314  0.1877 -0.0056
  153loPI   C3A 2441   2.754  14.942   8.309  0.0827  0.0380 -0.0664
  153loPI   C4A 2442   2.695  14.831   7.861 -0.2991  0.0328 -0.0349
  153loPI   C5A 2443   2.514  14.927   7.386 -0.0601 -0.0671  0.0186
  153loPI   C6A 2444   2.511  15.115   7.064  0.0562 -0.1645 -0.4862
  153loPI   C1B 2445   3.070  15.447   9.234 -0.0486 -0.3230 -0.3114
  153loPI   C2B 2446   3.213  15.502   8.856  0.0819  0.0754 -0.2468
  153loPI   C3B 2447   3.365  15.495   8.499  0.1688  0.0984  0.0674
  153loPI   C4B 2448   3.373  15.604   8.055  0.0711  0.0714 -0.3458
  154loPI    C1 2449  14.233   9.744  10.318  0.1166  0.1048  0.3273
  154loPI    C2 2450  14.288   9.405  10.524 -0.0455 -0.0650  0.0961
  154loPI    C3 2451  14.016   9.671  10.647 -0.0354 -0.0955  0.1853
  154loPI   PO4 2452  14.213   9.656  10.048 -0.0496  0.4706  0.0460
  154loPI   GL1 2453  14.320   9.459   9.671  0.0892 -0.0846 -0.2257
  154loPI   GL2 2454  14.466   9.678   9.615 -0.0727  0.1569  0.2377
  154loPI   C1A 2455  14.250   9.399   9.265 -0.1899 -0.1899  0.0261
  154loPI   C2A 2456  14.537   9.214   8.872 -0.2121  0.0529 -0.0091
  154loPI   C3A 2457  14.686   9.235   8.383  0.0088 -0.1450 -0.3942
  154loPI   C4A 2458  14.499   9.556   8.085  0.0380 -0.1183  0.0960
  154loPI   C5A 2459  14.697   9.799   7.793 -0.2200  0.0746 -0.1683
  154loPI   C6A 2460  14.611  10.075   7.344  0.0686  0.2324  0.2199
  154loPI   C1B 2461  14.559   9.781   9.177  0.1679  0.0855  0.1192
  154loPI   C2B 2462  14.541   9.678   8.689  0.1783  0.1323 -0.1835
  154loPI   C3B 2463  14.171   9.436   8.638 -0.1539  0.1316 -0.2074
  154loPI   C4B 2464  14.044   9.173   8.399  0.1094  0.3042  0.0471
  155loPI    C1 2465  18.407  17.258   9.798  0.0230  0.0531 -0.0958
  155loPI    C2 2466  18.627  17.556   9.946 -0.1477 -0.0418  0.3669
  155loPI    C3 2467  18.290  17.446  10.131 -0.3922 -0.1436 -0.1231
  155loPI   PO4 2468  18.391  17.293   9.603  0.3200 -0.0049 -0.1313
  155loPI   GL1 2469  18.312  17.262   9.214  0.0549  0.1056  0.0023
  155loPI   GL2 2470  18.196  17.571   9.069  0.2350 -0.0267 -0.0069
  155loPI   C1A 2471  18.309  17.249   8.771 -0.1372  0.3230 -0.2997
  155loPI   C2A 2472  18.471  17.252   8.438  0.3470  0.1604 -0.1860
  155loPI   C3A 2473  18.518  17.445   8.081  0.1219  0.0795  0.0333
  155loPI   C4A 2474  18.686  17.434   7.684  0.0921 -0.2036  0.3511
  155loPI   C5A 2475  19.070  17.755   7.561 -0.3955  0.1575  0.0156
  155loPI   C6A 2476  19.071  18.168   7.673  0.0632  0.0634 -0.2990
  155loPI   C1B 2477  18.395  17.749   8.662 -0.0319 -0.3933  0.1807
  155loPI   C2B 2478  18.688  17.882   8.310 -0.0691  0.0273  0.4526
  155loPI   C3B 2479  18.673  17.976   7.908  0.0313  0.1519  0.0664
  155loPI   C4B 2480  18.554  18.032   7.510  0.0318  0.2939  0.0238
  156loPI    C1 2481   4.291  11.748  10.311  0.0273  0.0455 -0.1596
  156loPI    C2 2482   4.618  11.541  10.413  0.1138  0.2790  0.0478
  156loPI    C3 2483   4.350  11.643  10.693 -0.1243  0.1154 -0.1159
  156loPI   PO4 2484   4.231  11.638  10.091  0.0257 -0.0274  0.2690
  156loPI   GL1 2485   4.242  11.724   9.716 -0.1400 -0.0073  0.1259
  156loPI   GL2 2486   4.179  12.019   9.736  0.0357  0.0946 -0.1966
  156loPI   C1A 2487   4.337  11.677   9.334  0.4329 -0.4862 -0.3794
  156loPI   C2A 2488   4.397  11.424   9.047  0.4196  0.5346 -0.0740
  156loPI   C3A 2489   4.380  11.397   8.626 -0.0770 -0.1202 -0.1169
  156loPI   C4A 2490   4.474  11.492   8.277  0.2593  0.1008  0.1943
  156loPI   C5A 2491   4.788  11.197   7.981 -0.0861  0.0874  0.0143
  156loPI   C6A 2492   5.129  11.346   7.720  0.5591  0.0965 -0.1250
  156loPI   C1B 2493   4.524  12.105   9.448  0.2782 -0.1484 -0.1935
  156loPI   C2B 2494   4.502  12.074   9.003  0.3376 -0.1817 -0.0871
  156loPI   C3B 2495   4.190  11.868   8.638  0.0763 -0.0016 -0.2502
  156loPI   C4B 2496   4.070  11.712   8.376 -0.3048 -0.0323 -0.3012
  157loPI    C1 2497  17.978  15.022  10.478  0.0965  0.1204  0.1732
  157loPI    C2 2498  17.835  15.381  10.375 -0.0571  0.0167  0.0195
  157loPI    C3 2499  17.625  15.145  10.619  0.0204  0.0101  0.0804
  157loPI   PO4 2500  18.266  15.087  10.383 -0.0084 -0.0667 -0.3433
  157loPI   GL1 2501  18.417  15.111   9.932 -0.0480 -0.2567  0.1189
  157loPI   GL2 2502  18.280  14.755   9.841  0.3270 -0.2569  0.0801
  157loPI   C1A 2503  18.357  15.100   9.461  0.5993 -0.1492 -0.3011
  157loPI   C2A 2504  18.366  14.997   9.095  0.3240 -0.3317  0.2778
  157loPI   C3A 2505  18.401  14.975   8.651 -0.2204 -0.0090 -0.0964
  157loPI   C4A 2506  18.610  14.979   8.189 -0.0673 -0.3637  0.0679
  157loPI   C5A 2507  18.598  15.101   7.785  0.1912 -0.3464  0.1595
  157loPI   C6A 2508  18.283  15.257   7.561 -0.0702 -0.2556  0.1738
  157loPI   C1B 2509  18.689  14.720   9.624 -0.0741 -0.1784  0.1981
  157loPI   C2B 2510  18.820  14.591   9.252 -0.2011  0.1545 -0.1413
  157loPI   C3B 2511  18.712  14.605   8.850  0.3404 -0.0723 -0.0424
  157loPI   C4B 2512  18.890  14.671   8.472  0.3011 -0.0039 -0.2808
  158loPI    C1 2513   9.612  14.109  10.417  0.0354 -0.0035  0.3900
  158loPI    C2 2514   9.684  13.941  10.773 -0.1154 -0.2025  0.3290
  158loPI    C3 2515   9.314  14.060  10.680 -0.0452 -0.0033  0.2992
  158loPI   PO4 2516   9.816  13.886  10.231  0.0649  0.2031 -0.0851
  158loPI   GL1 2517  10.146  13.635  10.042 -0.0382  0.2864  0.0091
  158loPI   GL2 2518  10.211  13.322  10.098 -0.2234  0.1899 -0.0520
  158loPI   C1A 2519   9.791  13.431   9.785 -0.1346 -0.3058  0.1121
  158loPI   C2A 2520   9.840  13.515   9.275  0.1742 -0.0293  0.0653
  158loPI   C3A 2521   9.741  13.556   8.822  0.2656  0.0665 -0.1246
  158loPI   C4A 2522   9.768  13.441   8.418 -0.1336 -0.1971  0.1248
  158loPI   C5A 2523   9.564  13.446   8.004 -0.1986 -0.4795 -0.0083
  158loPI   C6A 2524   9.219  13.219   7.788 -0.0995  0.0027 -0.0212
  158loPI   C1B 2525  10.202  13.264   9.603 -0.1584 -0.0551 -0.0776
  158loPI   C2B 2526  10.386  13.243   9.159 -0.1196  0.0971  0.0921
  158loPI   C3B 2527  10.217  13.280   8.751 -0.0450  0.0559  0.3239
  158loPI   C4B 2528  10.269  13.463   8.392  0.2168  0.2036 -0.2065
  159loPI    C1 2529  13.302   8.285  10.002  0.1977  0.1591  0.1939
  159loPI    C2 2530  13.682   8.284   9.877  0.1331  0.1464 -0.0048
  159loPI    C3 2531  13.391   8.409   9.632 -0.0192 -0.0773  0.0597
  159loPI   PO4 2532  13.254   8.051  10.047  0.1687 -0.0545 -0.0476
  159loPI   GL1 2533  13.246   7.851   9.705 -0.2073  0.2302 -0.3569
  159loPI   GL2 2534  12.988   8.005   9.585  0.0996 -0.1023 -0.0569
  159loPI   C1A 2535  13.259   7.833   9.235  0.1585 -0.6614  0.2964
  159loPI   C2A 2536  13.228   7.894   8.809  0.4880 -0.1163  0.1613
  159loPI   C3A 2537  13.093   7.689   8.417 -0.1490  0.0893  0.0610
  159loPI   C4A 2538  13.007   7.605   7.900 -0.0652  0.0322  0.0544
  159loPI   C5A 2539  12.589   7.461   7.714  0.1123  0.1286  0.0243
  159loPI   C6A 2540  12.213   7.350   7.347  0.1213 -0.0481 -0.1244
  159loPI   C1B 2541  12.836   8.059   9.124 -0.2142  0.1984 -0.1476
  159loPI   C2B 2542  12.746   8.103   8.603  0.0464  0.0772 -0.2222
  159loPI   C3B 2543  12.783   8.012   8.125  0.2765 -0.0410  0.1544
  159loPI   C4B 2544  12.845   8.009   7.634  0.1768  0.0124  0.0444
  160loPI    C1 2545  10.923   0.835  10.396  0.1358 -0.0811  0.0437
  160loPI    C2 2546  10.771   1.084  10.670  0.1078  0.0984 -0.1322
  160loPI    C3 2547  10.655   0.701  10.661  0.1044  0.0924  0.1014
  160loPI   PO4 2548  10.954   0.992  10.128  0.4398  0.4530  0.3608
  160loPI   GL1 2549  10.766   0.647   9.757 -0.1007 -0.0447 -0.0062
  160loPI   GL2 2550  10.662   0.314   9.802  0.0895 -0.0517 -0.1319
  160loPI   C1A 2551  10.749   0.915   9.475 -0.0027  0.2101  0.2734
  160loPI   C2A 2552  10.953   1.015   9.132  0.1648  0.1222 -0.0182
  160loPI   C3A 2553  10.923   1.029   8.693  0.4107  0.4174  0.0979
  160loPI   C4A 2554  11.112   1.037   8.266  0.1942 -0.0680 -0.2747
  160loPI   C5A 2555  11.183   1.014   7.930  0.0697  0.1123 -0.3795
  160loPI   C6A 2556  11.399   1.408   7.644  0.2136 -0.1946 -0.3102
  160loPI   C1B 2557  10.781   0.501   9.267 -0.0207  0.1159  0.1243
  160loPI   C2B 2558  10.598   0.667   8.871 -0.1074 -0.0282 -0.0069
  160loPI   C3B 2559  10.613   0.792   8.403  0.0713 -0.1119  0.2028
  160loPI   C4B 2560  10.465   0.738   7.989  0.3016  0.0356 -0.4623
  161loPI    C1 2561  12.721   6.672  10.324 -0.4066  0.0452  0.0822
  161loPI    C2 2562  12.377   6.498  10.433 -0.3266  0.0642  0.3756
  161loPI    C3 2563  12.684   6.511  10.689 -0.0017 -0.2189  0.0123
  161loPI   PO4 2564  12.737   6.624  10.064 -0.0447  0.0506  0.1539
  161loPI   GL1 2565  12.881   6.798   9.664  0.0201  0.0274  0.0319
  161loPI   GL2 2566  13.097   6.951   9.585 -0.0699  0.0613 -0.2277
  161loPI   C1A 2567  12.680   6.851   9.290  0.2429 -0.1809 -0.1845
  161loPI   C2A 2568  12.597   7.009   8.926  0.1918  0.1428  0.0450
  161loPI   C3A 2569  12.465   7.066   8.588  0.0006  0.1189 -0.2389
  161loPI   C4A 2570  12.299   7.084   8.026 -0.1238 -0.1298  0.0555
  161loPI   C5A 2571  12.018   7.320   7.815  0.0367 -0.2372 -0.3977
  161loPI   C6A 2572  11.641   7.291   7.712 -0.0401 -0.0657 -0.0754
  161loPI   C1B 2573  13.244   6.987   9.063 -0.0283 -0.0115 -0.1201
  161loPI   C2B 2574  13.019   6.911   8.696  0.1182  0.4463 -0.1756
  161loPI   C3B 2575  12.944   7.080   8.362 -0.1264  0.0306 -0.0298
  161loPI   C4B 2576  12.914   7.116   7.923 -0.0901  0.1514 -0.3938
  162loPI    C1 2577   1.281  17.117   9.897 -0.4780  0.0606  0.0351
  162loPI    C2 2578   1.209  16.947  10.252 -0.0554 -0.4960 -0.1309
  162loPI    C3 2579   1.517  17.199  10.210 -0.3644 -0.0861 -0.0112
  162loPI   PO4 2580   1.074  17.165   9.746 -0.1104 -0.0659 -0.2624
  162loPI   GL1 2581   1.021  17.103   9.360  0.1336  0.1871  0.0261
  162loPI   GL2 2582   0.998  17.297   9.197 -0.1035 -0.0319 -0.2495
  162loPI   C1A 2583   0.878  16.841   9.055  0.2616  0.1935 -0.2808
  162loPI   C2A 2584   0.768  16.538   8.670  0.0310  0.1075  0.0245
  162loPI   C3A 2585   0.821  16.548   8.332 -0.1008  0.1546 -0.1207
  162loPI   C4A 2586   0.614  16.598   8.027  0.0655 -0.1427  0.3363
  162loPI   C5A 2587   0.577  16.582   7.564  0.1658 -0.1128  0.3059
  162loPI   C6A 2588   0.546  16.511   7.188  0.3776  0.1583 -0.1314
  162loPI   C1B 2589   1.320  17.159   8.895 -0.1232  0.3241  0.1797
  162loPI   C2B 2590   1.556  17.104   8.554  0.0581  0.0881 -0.0089
  162loPI   C3B 2591   1.851  17.102   8.258 -0.1962  0.3213  0.1253
  162loPI   C4B 2592   2.168  17.229   8.135  0.4631  0.1150  0.0373
  163loPI    C1 2593  10.503   8.083  10.332 -0.0511  0.1551 -0.1976
  163loPI    C2 2594  10.509   7.757  10.564  0.2765  0.1110 -0.2622
  163loPI    C3 2595  10.249   8.052  10.640  0.1488 -0.0526 -0.0499
  163loPI   PO4 2596  10.545   7.946   9.986 -0.1089 -0.2761  0.1527
  163loPI   GL1 2597  10.449   8.043   9.582 -0.1410  0.3383 -0.1485
  163loPI   GL2 2598  10.180   7.895   9.460  0.0544 -0.0761 -0.0900
  163loPI   C1A 2599  10.740   8.068   9.293  0.0979 -0.0435 -0.0469
  163loPI   C2A 2600  10.921   8.145   8.917  0.3038 -0.0923  0.2114
  163loPI   C3A 2601  10.861   8.145   8.463  0.3228  0.1352 -0.1137
  163loPI   C4A 2602  11.008   8.052   8.024  0.1406  0.2734  0.0771
  163loPI   C5A 2603  11.395   8.116   7.710  0.0295 -0.1281 -0.2122
  163loPI   C6A 2604  11.684   8.365   7.644 -0.3414 -0.1059 -0.1058
  163loPI   C1B 2605   9.995   7.806   9.041  0.0843  0.3101  0.0867
  163loPI   C2B 2606  10.007   7.752   8.606  0.0882 -0.1713 -0.0560
  163loPI   C3B 2607   9.985   7.669   8.142 -0.2410 -0.0741 -0.0337
  163loPI   C4B 2608  10.124   7.519   7.735  0.1090  0.1801  0.0278
  164loPI    C1 2609   2.456  12.234  10.444  0.0135  0.0062  0.0978
  164loPI    C2 2610   2.643  11.982  10.692 -0.0447 -0.0740  0.0609
  164loPI    C3 2611   2.393  12.258  10.838  0.2146  0.1322  0.1238
  164loPI   PO4 2612   2.652  12.135  10.230  0.0125 -0.1483 -0.0079
  164loPI   GL1 2613   2.777  12.237   9.900  0.1714  0.1263 -0.3730
  164loPI   GL2 2614   3.089  12.282   9.781  0.1845  0.3952  0.1910
  164loPI   C1A 2615   2.471  12.180   9.487  0.1036  0.0605 -0.0246
  164loPI   C2A 2616   2.301  12.087   9.091 -0.1161  0.0790  0.2260
  164loPI   C3A 2617   2.096  12.099   8.703  0.0652  0.0139 -0.0923
  164loPI   C4A 2618   2.020  11.833   8.428  0.1719 -0.6005  0.2468
  164loPI   C5A 2619   2.142  11.748   8.036 -0.0035  0.2460 -0.0196
  164loPI   C6A 2620   1.848  11.640   7.695 -0.1429  0.1561 -0.4307
  164loPI   C1B 2621   2.929  12.238   9.353 -0.2223 -0.0536 -0.1847
  164loPI   C2B 2622   2.886  12.231   8.914  0.0467  0.0136  0.0785
  164loPI   C3B 2623   2.848  12.357   8.422 -0.2536 -0.3266  0.1746
  164loPI   C4B 2624   2.827  12.426   7.977 -0.2338 -0.1935  0.0125
  165loPI    C1 2625  11.774   4.662  10.394 -0.2595  0.2848 -0.1413
  165loPI    C2 2626  12.150   4.778  10.328 -0.1932  0.1098 -0.0791
  165loPI    C3 2627  11.962   4.892  10.661  0.0161 -0.2971  0.1865
  165loPI   PO4 2628  11.644   4.680  10.138 -0.1443  0.3273  0.1255
  165loPI   GL1 2629  11.643   4.578   9.726  0.1206 -0.2360 -0.2046
  165loPI   GL2 2630  11.705   4.949   9.739  0.0521 -0.0516  0.0307
  165loPI   C1A 2631  11.299   4.789   9.562  0.1283  0.2197 -0.0073
  165loPI   C2A 2632  11.175   4.830   9.212  0.3591  0.0518 -0.0592
  165loPI   C3A 2633  11.206   4.780   8.734 -0.1446  0.1070  0.0493
  165loPI   C4A 2634  11.282   4.467   8.330 -0.2853  0.1951  0.1455
  165loPI   C5A 2635  10.998   4.068   8.113 -0.1251  0.3734  0.1055
  165loPI   C6A 2636  10.700   3.729   8.032  0.0427 -0.0683 -0.1453
  165loPI   C1B 2637  11.732   4.888   9.276 -0.1161 -0.1263  0.0774
  165loPI   C2B 2638  11.892   4.895   8.840 -0.1311 -0.1254 -0.2084
  165loPI   C3B 2639  11.867   5.006   8.402 -0.0086  0.0956  0.2183
  165loPI   C4B 2640  11.601   4.954   7.981  0.1121 -0.1479  0.1657
  166loPI    C1 2641  12.590  16.555  10.304 -0.0765  0.0626 -0.0169
  166loPI    C2 2642  12.595  16.191  10.470  0.0590  0.0096 -0.1352
  166loPI    C3 2643  12.391  16.488  10.644  0.0152 -0.1016  0.0052
  166loPI   PO4 2644  12.535  16.550  10.077 -0.1476  0.3522  0.2177
  166loPI   GL1 2645  12.608  16.512   9.714 -0.1995  0.2426  0.1728
  166loPI   GL2 2646  12.628  16.768   9.591  0.0448 -0.0404 -0.0598
  166loPI   C1A 2647  12.718  16.248   9.384  0.0806  0.1354  0.0294
  166loPI   C2A 2648  12.807  16.307   8.954 -0.1196 -0.0673  0.1171
  166loPI   C3A 2649  12.993  16.297   8.648 -0.0648 -0.0427  0.2563
  166loPI   C4A 2650  12.991  16.400   8.164  0.2579  0.0924 -0.3038
  166loPI   C5A 2651  12.721  16.449   7.709 -0.0502 -0.0468 -0.0766
  166loPI   C6A 2652  12.383  16.628   7.472  0.1702 -0.3742  0.0624
  166loPI   C1B 2653  12.649  16.924   9.101 -0.0300  0.2517  0.0753
  166loPI   C2B 2654  12.684  16.810   8.705  0.0861  0.2760  0.2131
  166loPI   C3B 2655  12.822  16.818   8.390  0.0338  0.1119 -0.2321
  166loPI   C4B 2656  12.993  16.897   7.982 -0.2676 -0.0172  0.2381
  167loPI    C1 2657   6.017   8.643  10.709 -0.1156  0.1598 -0.0628
  167loPI    C2 2658   6.027   8.545  11.097 -0.2607 -0.2672 -0.1605
  167loPI    C3 2659   6.309   8.783  10.943 -0.1444 -0.1771  0.1828
  167loPI   PO4 2660   5.802   8.576  10.623 -0.0948 -0.1416 -0.0567
  167loPI   GL1 2661   5.783   8.638  10.199  0.0581  0.0690 -0.1937
  167loPI   GL2 2662   5.904   8.839  10.184 -0.0225 -0.1406  0.1887
  167loPI   C1A 2663   5.624   8.349   9.990  0.1499  0.2071  0.3258
  167loPI   C2A 2664   5.629   8.143   9.581 -0.2553 -0.1056 -0.1147
  167loPI   C3A 2665   5.732   7.843   9.239  0.0200 -0.1862  0.0490
  167loPI   C4A 2666   5.770   7.739   8.779 -0.1404  0.0952  0.1281
  167loPI   C5A 2667   5.605   7.727   8.335 -0.1425 -0.0995  0.4738
  167loPI   C6A 2668   5.254   7.863   8.140  0.1318  0.0466 -0.2322
  167loPI   C1B 2669   5.967   8.683   9.718  0.0293 -0.0424  0.4006
  167loPI   C2B 2670   5.938   8.633   9.287  0.2215 -0.0694 -0.0515
  167loPI   C3B 2671   5.748   8.782   8.932 -0.1609 -0.1758  0.3078
  167loPI   C4B 2672   5.496   8.658   8.612 -0.0289  0.0631 -0.2727
  168loPI    C1 2673  17.166  11.724  10.472  0.1309 -0.0901  0.0053
  168loPI    C2 2674  17.047  11.974  10.761  0.2584  0.1437 -0.1413
  168loPI    C3 2675  17.134  11.594  10.849 -0.1979  0.0745  0.0381
  168loPI   PO4 2676  17.134  11.909  10.299  0.0829 -0.0692  0.0006
  168loPI   GL1 2677  17.330  12.258  10.016  0.1043  0.0952 -0.0967
  168loPI   GL2 2678  17.284  12.004   9.846 -0.2710 -0.0920 -0.1194
  168loPI   C1A 2679  17.014  12.402   9.709  0.1195 -0.1030 -0.2039
  168loPI   C2A 2680  16.785  12.417   9.416  0.0279 -0.0694  0.1406
  168loPI   C3A 2681  16.751  12.570   8.993  0.1559  0.0375  0.0011
  168loPI   C4A 2682  16.712  12.838   8.670  0.4724  0.1060  0.3873
  168loPI   C5A 2683  16.445  13.121   8.510 -0.0264  0.0666  0.0473
  168loPI   C6A 2684  16.163  13.164   8.335 -0.2120  0.0726  0.0014
  168loPI   C1B 2685  17.564  12.184   9.557  0.5413 -0.0588 -0.0723
  168loPI   C2B 2686  17.679  12.316   9.102  0.1310  0.0606  0.2304
  168loPI   C3B 2687  17.769  12.433   8.750  0.0473  0.2168  0.1307
  168loPI   C4B 2688  17.693  12.516   8.372  0.2352 -0.2911 -0.0638
  169loPI    C1 2689  15.292  12.454  10.146 -0.0126  0.0589 -0.0586
  169loPI    C2 2690  15.628  12.304  10.304 -0.0656 -0.1093 -0.1027
  169loPI    C3 2691  15.276  12.240  10.484 -0.0880 -0.0306 -0.1181
  169loPI   PO4 2692  15.399  12.437   9.826  0.0006  0.0527 -0.2597
  169loPI   GL1 2693  15.157  12.408   9.480  0.0228  0.0997 -0.1137
  169loPI   GL2 2694  15.100  12.074   9.557  0.2185 -0.0680  0.1447
  169loPI   C1A 2695  15.113  12.543   9.144 -0.1468 -0.2358  0.1051
  169loPI   C2A 2696  14.771  12.478   8.798 -0.2685  0.0766  0.0454
  169loPI   C3A 2697  14.749  12.339   8.368 -0.0753  0.0407 -0.0170
  169loPI   C4A 2698  14.977  12.230   8.037 -0.0066  0.2727 -0.0746
  169loPI   C5A 2699  15.296  12.159   7.805 -0.3571  0.0484 -0.1116
  169loPI   C6A 2700  15.664  11.950   7.954  0.0339  0.0352  0.2658
  169loPI   C1B 2701  15.272  12.078   9.166 -0.1254  0.0467  0.3208
  169loPI   C2B 2702  15.424  11.854   8.734  0.4950  0.0565 -0.1002
  169loPI   C3B 2703  15.458  12.043   8.381 -0.1407 -0.2073  0.0881
  169loPI   C4B 2704  15.656  12.401   8.209  0.2518  0.1505 -0.1445
  170loPI    C1 2705   3.138  15.943  10.043 -0.0802  0.0153  0.1850
  170loPI    C2 2706   3.526  15.850  10.072 -0.0120  0.1094 -0.3314
  170loPI    C3 2707   3.249  15.564  10.111  0.1082  0.0280 -0.0415
  170loPI   PO4 2708   3.083  16.082   9.875 -0.0638  0.2625  0.3013
  170loPI   GL1 2709   2.964  15.856   9.488 -0.0247 -0.2264  0.0921
  170loPI   GL2 2710   3.352  15.772   9.606 -0.1517 -0.1733  0.2992
  170loPI   C1A 2711   3.037  15.935   9.187 -0.1738  0.1220  0.1233
  170loPI   C2A 2712   2.991  15.936   8.779  0.1841  0.1757 -0.2958
  170loPI   C3A 2713   3.018  15.983   8.426 -0.2694  0.2483 -0.1542
  170loPI   C4A 2714   3.014  16.170   7.973 -0.1153  0.0346 -0.1220
  170loPI   C5A 2715   2.658  16.384   7.794 -0.1499 -0.1300 -0.2268
  170loPI   C6A 2716   2.580  16.590   7.618  0.0579  0.3909  0.1258
  170loPI   C1B 2717   3.581  15.865   9.157  0.0792  0.1820  0.1552
  170loPI   C2B 2718   3.676  15.820   8.742 -0.3679 -0.0151  0.0770
  170loPI   C3B 2719   3.919  15.753   8.433 -0.3438 -0.0156  0.1514
  170loPI   C4B 2720   3.905  15.731   8.058 -0.0348 -0.0706 -0.0806
  171loPI    C1 2721  10.574   9.952  10.350 -0.0590 -0.1848 -0.0192
  171loPI    C2 2722  10.195  10.008  10.466 -0.0019 -0.1674  0.1619
  171loPI    C3 2723  10.475   9.913  10.735  0.1297 -0.1464  0.0344
  171loPI   PO4 2724  10.420  10.046  10.056  0.5009  0.1295  0.0806
  171loPI   GL1 2725  10.552  10.129   9.694 -0.1790 -0.2763 -0.0431
  171loPI   GL2 2726  10.301  10.293   9.569 -0.1225  0.1498 -0.2167
  171loPI   C1A 2727  10.808  10.103   9.337  0.0022 -0.1832  0.1206
  171loPI   C2A 2728  11.057  10.381   8.982 -0.0117  0.0645 -0.2049
  171loPI   C3A 2729  11.036  10.474   8.551  0.0845  0.0226  0.2009
  171loPI   C4A 2730  10.769  10.647   8.159  0.1072  0.4153  0.2981
  171loPI   C5A 2731  10.754  10.818   7.633 -0.1251  0.3698  0.5719
  171loPI   C6A 2732  10.707  10.933   7.157  0.2139  0.0014  0.0295
  171loPI   C1B 2733  10.383  10.308   9.218 -0.1137  0.2814 -0.1250
  171loPI   C2B 2734  10.481  10.340   8.816 -0.0837  0.4964 -0.0983
  171loPI   C3B 2735  10.438  10.300   8.367 -0.0029  0.1506 -0.0403
  171loPI   C4B 2736  10.249  10.427   8.012  0.0104 -0.0384 -0.0543
  172loPI    C1 2737   6.742   4.832  10.126  0.6277 -0.1664 -0.1311
  172loPI    C2 2738   6.917   4.711  10.465  0.0306 -0.4575  0.0859
  172loPI    C3 2739   6.525   4.792  10.459  0.1126 -0.0424 -0.4408
  172loPI   PO4 2740   6.955   4.844   9.902 -0.1930 -0.1793  0.1664
  172loPI   GL1 2741   7.285   4.805   9.610 -0.1397 -0.0959  0.0022
  172loPI   GL2 2742   7.400   5.056   9.744 -0.4223 -0.1112  0.0627
  172loPI   C1A 2743   7.283   4.891   9.216  0.3950 -0.0010 -0.1672
  172loPI   C2A 2744   7.363   4.947   8.812 -0.3064  0.0608  0.0952
  172loPI   C3A 2745   7.653   4.923   8.473  0.3257 -0.2352 -0.0464
  172loPI   C4A 2746   7.636   5.103   7.980  0.1429 -0.1568  0.1659
  172loPI   C5A 2747   7.883   5.273   7.760  0.3307  0.1337  0.0797
  172loPI   C6A 2748   8.168   5.196   7.396 -0.1650  0.1926 -0.0590
  172loPI   C1B 2749   7.733   5.026   9.434 -0.0202  0.0404  0.0322
  172loPI   C2B 2750   7.718   5.216   9.009  0.1255  0.1328 -0.0230
  172loPI   C3B 2751   7.722   5.365   8.632 -0.1439  0.1623 -0.1413
  172loPI   C4B 2752   7.733   5.518   8.227 -0.0368 -0.1273  0.3150
  173loPI    C1 2753  10.066  16.014  10.171 -0.2943 -0.2889 -0.0506
  173loPI    C2 2754   9.700  16.074  10.021 -0.2035  0.1628 -0.1063
  173loPI    C3 2755   9.808  16.252  10.362 -0.0980 -0.1264  0.0150
  173loPI   PO4 2756  10.045  15.702  10.079  0.1363 -0.3167 -0.0005
  173loPI   GL1 2757   9.880  15.374   9.888 -0.2668 -0.2963 -0.0409
  173loPI   GL2 2758  10.165  15.155   9.735  0.1545  0.3657 -0.0164
  173loPI   C1A 2759   9.599  15.317   9.598  0.0116 -0.0869  0.1876
  173loPI   C2A 2760   9.456  15.098   9.095 -0.0039  0.2362  0.2929
  173loPI   C3A 2761   9.550  15.217   8.688  0.3207 -0.3433  0.2355
  173loPI   C4A 2762   9.687  15.196   8.311 -0.0132  0.1014  0.1100
  173loPI   C5A 2763   9.821  15.453   7.871 -0.1042  0.0944 -0.1915
  173loPI   C6A 2764   9.872  15.396   7.462 -0.2458 -0.2996 -0.1768
  173loPI   C1B 2765  10.036  14.911   9.320  0.1582 -0.0606 -0.2814
  173loPI   C2B 2766   9.936  14.884   8.951  0.1403  0.0692  0.2765
  173loPI   C3B 2767   9.947  14.871   8.516 -0.2250  0.2768  0.0950
  173loPI   C4B 2768  10.158  15.086   8.126  0.3978  0.2733 -0.0914
  174loPI    C1 2769  14.689   4.235  10.100 -0.2255  0.0233 -0.1907
  174loPI    C2 2770  14.342   4.309  10.284 -0.1240  0.1873 -0.0625
  174loPI    C3 2771  14.666   4.214  10.498  0.0009  0.4038 -0.1522
  174loPI   PO4 2772  14.603   4.214   9.890 -0.3391 -0.1982 -0.0949
  174loPI   GL1 2773  14.599   4.436   9.383 -0.0620  0.2899 -0.2922
  174loPI   GL2 2774  14.302   4.278   9.421  0.0057 -0.1653 -0.3309
  174loPI   C1A 2775  14.775   4.551   9.138  0.0563  0.1659  0.2224
  174loPI   C2A 2776  14.784   4.695   8.758 -0.2894  0.1417  0.0420
  174loPI   C3A 2777  14.799   4.935   8.340 -0.1485  0.2332  0.0922
  174loPI   C4A 2778  14.614   4.934   7.990  0.0820  0.1220  0.0724
  174loPI   C5A 2779  14.357   5.225   7.707 -0.2142 -0.0425 -0.0875
  174loPI   C6A 2780  14.119   5.222   7.406  0.1951 -0.0827  0.0868
  174loPI   C1B 2781  14.177   4.418   9.085 -0.2072 -0.1537  0.1092
  174loPI   C2B 2782  14.339   4.473   8.838 -0.3676  0.0209 -0.6175
  174loPI   C3B 2783  14.417   4.520   8.373 -0.0240 -0.0933  0.2238
  174loPI   C4B 2784  14.458   4.501   7.904 -0.1718 -0.0734 -0.0777
  175loPI    C1 2785  17.012   1.801   9.556 -0.0264  0.0728 -0.2016
  175loPI    C2 2786  16.920   2.171   9.678  0.0490  0.0871 -0.1881
  175loPI    C3 2787  16.786   1.854   9.882  0.1416  0.1103 -0.0902
  175loPI   PO4 2788  17.274   1.823   9.490  0.1827  0.0548  0.2035
  175loPI   GL1 2789  17.687   1.932   9.264  0.0579  0.1219 -0.1639
  175loPI   GL2 2790  17.890   2.099   9.021  0.2105 -0.1099  0.1963
  175loPI   C1A 2791  17.621   1.528   8.875 -0.1184  0.0618  0.0259
  175loPI   C2A 2792  17.358   1.512   8.498  0.0807 -0.1364  0.0368
  175loPI   C3A 2793  17.143   1.680   8.017  0.0787  0.3962 -0.1417
  175loPI   C4A 2794  16.911   1.782   7.649  0.2701  0.0671 -0.0218
  175loPI   C5A 2795  16.671   1.813   7.250  0.1493  0.2134  0.1760
  175loPI   C6A 2796  16.271   1.570   7.116  0.1269 -0.1815  0.1596
  175loPI   C1B 2797  18.028   2.292   8.675 -0.2052 -0.0823  0.0979
  175loPI   C2B 2798  18.183   2.455   8.303  0.1233  0.2813 -0.0321
  175loPI   C3B 2799  18.502   2.255   8.009  0.1341  0.1999 -0.0864
  175loPI   C4B 2800  18.583   2.114   7.656 -0.2911  0.0540 -0.0580
  176loPI    C1 2801  13.085  17.380  10.104  0.0063  0.2035  0.3234
  176loPI    C2 2802  13.392  17.161   9.971 -0.0225  0.3468  0.0117
  176loPI    C3 2803  13.268  17.122  10.350  0.0706 -0.0605  0.0051
  176loPI   PO4 2804  12.824  17.371   9.886  0.0179 -0.1869  0.3307
  176loPI   GL1 2805  12.576  17.240   9.496 -0.1876 -0.2042 -0.4102
  176loPI   GL2 2806  12.267  17.127   9.496  0.2758 -0.0306 -0.2046
  176loPI   C1A 2807  12.498  17.388   9.081  0.0222  0.0328 -0.3569
  176loPI   C2A 2808  12.655  17.338   8.625 -0.3058  0.2003  0.0996
  176loPI   C3A 2809  12.731  17.285   8.186 -0.2787 -0.0657  0.2559
  176loPI   C4A 2810  12.810  17.490   7.793  0.4729 -0.2111  0.1101
  176loPI   C5A 2811  13.044  17.714   7.659  0.0029 -0.0771  0.0703
  176loPI   C6A 2812  13.478  17.846   7.547 -0.0126 -0.0918  0.0016
  176loPI   C1B 2813  12.176  17.017   9.122  0.0257  0.0337 -0.2209
  176loPI   C2B 2814  12.275  17.058   8.740 -0.2936 -0.0283  0.1199
  176loPI   C3B 2815  12.338  17.041   8.336 -0.0152  0.1028 -0.0054
  176loPI   C4B 2816  12.498  16.729   8.044  0.1895 -0.0742 -0.1764
  177loPI    C1 2817   9.346   0.264  10.108 -0.1283  0.3243 -0.0444
  177loPI    C2 2818   9.627   0.193  10.384 -0.1073 -0.1283 -0.1741
  177loPI    C3 2819   9.241   0.206  10.490 -0.1029 -0.3411 -0.1266
  177loPI   PO4 2820   9.422   0.111   9.927 -0.5448 -0.1699 -0.1231
  177loPI   GL1 2821   9.272   0.093   9.567  0.0993  0.1319 -0.1547
  177loPI   GL2 2822   9.450   0.411   9.482  0.0914 -0.1986  0.1407
  177loPI   C1A 2823   9.439  -0.179   9.215 -0.0777 -0.1265  0.2338
  177loPI   C2A 2824   9.559  -0.225   8.884  0.3356  0.2611  0.0696
  177loPI   C3A 2825   9.613  -0.341   8.497 -0.0090 -0.3040  0.0212
  177loPI   C4A 2826   9.696  -0.417   8.126 -0.4206 -0.3263  0.2550
  177loPI   C5A 2827   9.498  -0.394   7.804 -0.0829  0.2012  0.2057
  177loPI   C6A 2828   9.335  -0.701   7.547  0.2145  0.1203 -0.0541
  177loPI   C1B 2829   9.393   0.336   9.117  0.2524  0.0531  0.1365
  177loPI   C2B 2830   9.633   0.441   8.789 -0.2275 -0.1416  0.3021
  177loPI   C3B 2831   9.688   0.589   8.383  0.3281 -0.1448 -0.0437
  177loPI   C4B 2832   9.532   0.611   7.886  0.0708 -0.1430  0.2668
  178loPI    C1 2833  15.502  16.374  10.344 -0.1630  0.0812  0.2496
  178loPI    C2 2834  15.658  16.006  10.358 -0.0214  0.1344  0.1018
  178loPI    C3 2835  15.694  16.250  10.672  0.0739  0.0981  0.1197
  178loPI   PO4 2836  15.467  16.392  10.147 -0.1742 -0.0581  0.1544
  178loPI   GL1 2837  15.387  16.591   9.700  0.2117  0.0827 -0.1153
  178loPI   GL2 2838  15.204  16.782   9.518 -0.0161 -0.0361 -0.1424
  178loPI   C1A 2839  15.502  16.386   9.274 -0.3251  0.1307  0.0564
  178loPI   C2A 2840  15.581  16.379   8.835 -0.2192 -0.1551  0.2200
  178loPI   C3A 2841  15.564  16.200   8.409 -0.1428  0.4067 -0.1339
  178loPI   C4A 2842  15.428  16.199   8.028 -0.0943 -0.2791  0.2754
  178loPI   C5A 2843  15.079  16.109   7.848  0.1437  0.4460  0.2993
  178loPI   C6A 2844  14.721  16.236   7.640  0.0748 -0.1965 -0.3539
  178loPI   C1B 2845  15.359  16.846   9.050 -0.1263 -0.1570 -0.2262
  178loPI   C2B 2846  15.297  16.720   8.735 -0.0177 -0.0807 -0.3343
  178loPI   C3B 2847  15.359  16.646   8.245 -0.0999  0.1728  0.0017
  178loPI   C4B 2848  15.481  16.685   7.804  0.0075 -0.0330  0.1146
  179loPI    C1 2849  10.320   0.145  10.219 -0.1603  0.1217  0.0907
  179loPI    C2 2850  10.289   0.288  10.591  0.0462  0.1519  0.0970
  179loPI    C3 2851  10.563   0.009  10.506 -0.0159  0.1282 -0.0274
  179loPI   PO4 2852  10.122   0.303  10.076 -0.0592 -0.0349 -0.2824
  179loPI   GL1 2853  10.195   0.560   9.742 -0.1269  0.1429 -0.0590
  179loPI   GL2 2854  10.102   0.620   9.515  0.1643 -0.4025 -0.3155
  179loPI   C1A 2855  10.324   1.081   9.712 -0.0267 -0.0490  0.3019
  179loPI   C2A 2856  10.534   1.379   9.300 -0.2712  0.2095 -0.1293
  179loPI   C3A 2857  10.544   1.701   9.104  0.0030 -0.1188  0.0478
  179loPI   C4A 2858  10.573   1.711   8.690 -0.0550 -0.1337  0.1703
  179loPI   C5A 2859  10.519   1.682   8.325 -0.0018 -0.1762  0.0413
  179loPI   C6A 2860  10.552   1.683   7.907  0.1129 -0.1907  0.0419
  179loPI   C1B 2861  10.196   0.537   9.181 -0.1929  0.2139 -0.1396
  179loPI   C2B 2862  10.104   0.630   8.771  0.0992 -0.1851  0.4917
  179loPI   C3B 2863  10.152   0.578   8.366  0.1513  0.5207 -0.1338
  179loPI   C4B 2864  10.022   0.426   7.947  0.0056 -0.3178  0.2700
  180loPI    C1 2865   8.455  17.858   9.764  0.0345  0.0626  0.1945
  180loPI    C2 2866   8.854  17.884   9.737  0.0060  0.1624 -0.1873
  180loPI    C3 2867   8.675  17.526   9.730  0.1135  0.0824  0.4830
  180loPI   PO4 2868   8.362  17.988   9.611 -0.0756  0.2158 -0.1596
  180loPI   GL1 2869   8.537  18.138   9.329  0.0436  0.4181  0.2213
  180loPI   GL2 2870   8.750  18.243   9.419 -0.1259 -0.1986 -0.0650
  180loPI   C1A 2871   8.574  18.056   8.920  0.1037  0.2827 -0.0092
  180loPI   C2A 2872   8.284  17.987   8.633 -0.2048  0.2560 -0.0030
  180loPI   C3A 2873   8.037  17.730   8.243 -0.1941 -0.2597 -0.0618
  180loPI   C4A 2874   8.097  17.713   7.812 -0.3479 -0.3880  0.0665
  180loPI   C5A 2875   8.262  17.941   7.463 -0.0531 -0.1059  0.1129
  180loPI   C6A 2876   8.576  18.098   7.063 -0.3107 -0.1496  0.1654
  180loPI   C1B 2877   9.026  18.285   9.093  0.1623 -0.0598 -0.1830
  180loPI   C2B 2878   9.065  18.300   8.583  0.1334  0.0889 -0.0741
  180loPI   C3B 2879   9.189  18.433   8.225  0.1957 -0.2386  0.2710
  180loPI   C4B 2880   9.033  18.564   7.742 -0.0684 -0.1703  0.0330
  181loPI    C1 2881   5.748  11.669  10.483  0.1132  0.0687  0.0218
  181loPI    C2 2882   5.538  11.962  10.656  0.1312  0.0599  0.0586
  181loPI    C3 2883   5.773  11.726  10.878  0.1914  0.0790  0.0156
  181loPI   PO4 2884   5.550  11.585  10.295 -0.1905  0.3011  0.4622
  181loPI   GL1 2885   5.503  11.952  10.081 -0.4241 -0.0647 -0.2166
  181loPI   GL2 2886   5.754  12.064  10.138 -0.2543 -0.1231 -0.0094
  181loPI   C1A 2887   5.498  11.993   9.667  0.0725  0.1806 -0.1057
  181loPI   C2A 2888   5.609  12.093   9.332  0.0671 -0.0375  0.2566
  181loPI   C3A 2889   5.656  11.834   9.028  0.0959  0.0519 -0.2083
  181loPI   C4A 2890   6.010  11.753   8.803 -0.0813 -0.4457 -0.0421
  181loPI   C5A 2891   6.016  11.820   8.354  0.1762  0.1401  0.1386
  181loPI   C6A 2892   6.116  11.707   7.992 -0.1670 -0.0595  0.4283
  181loPI   C1B 2893   5.858  12.286   9.737 -0.2889  0.0235  0.0268
  181loPI   C2B 2894   6.273  12.440   9.559 -0.2140  0.1326  0.1240
  181loPI   C3B 2895   6.519  12.358   9.310 -0.0655 -0.2132 -0.2019
  181loPI   C4B 2896   6.650  12.550   8.931 -0.0282  0.0391  0.0191
  182loPI    C1 2897  10.437  14.459  10.561  0.0142  0.0365  0.1844
  182loPI    C2 2898  10.114  14.229  10.616  0.0405 -0.0211  0.0994
  182loPI    C3 2899  10.453  14.147  10.812  0.2147 -0.3890 -0.3387
  182loPI   PO4 2900  10.306  14.628  10.368 -0.2833 -0.0109  0.1506
  182loPI   GL1 2901  10.515  14.798   9.957 -0.1345 -0.0633  0.0466
  182loPI   GL2 2902  10.542  14.513   9.934  0.2503  0.3778 -0.4310
  182loPI   C1A 2903  10.503  14.868   9.536 -0.1134 -0.0197 -0.0666
  182loPI   C2A 2904  10.445  14.695   9.087  0.0718 -0.2019  0.3571
  182loPI   C3A 2905  10.354  14.722   8.757  0.3253  0.1348  0.0210
  182loPI   C4A 2906  10.465  14.750   8.413 -0.0508  0.2353  0.0630
  182loPI   C5A 2907  10.706  14.860   8.095 -0.3016  0.1624 -0.2486
  182loPI   C6A 2908  10.815  15.083   7.756 -0.5026  0.0512  0.1575
  182loPI   C1B 2909  10.167  14.517   9.641  0.3709  0.0641 -0.1477
  182loPI   C2B 2910  10.072  14.345   9.206  0.1218  0.3138 -0.2277
  182loPI   C3B 2911   9.956  14.356   8.794  0.1167  0.3094 -0.1993
  182loPI   C4B 2912  10.044  14.380   8.367  0.0843 -0.0543  0.0571
  183loPI    C1 2913   8.140   3.512  10.255 -0.3664  0.1522  0.0950
  183loPI    C2 2914   8.193   3.267  10.566  0.0346  0.2540  0.1126
  183loPI    C3 2915   8.450   3.566  10.501  0.0775  0.1099 -0.4337
  183loPI   PO4 2916   8.006   3.289  10.057 -0.0805  0.2109 -0.2271
  183loPI   GL1 2917   8.164   3.326   9.670  0.0921 -0.0885  0.2944
  183loPI   GL2 2918   8.435   3.501   9.542 -0.2069  0.1406  0.1304
  183loPI   C1A 2919   8.032   3.516   9.296  0.1751 -0.0535  0.2611
  183loPI   C2A 2920   8.167   3.673   8.898  0.0035 -0.2291  0.1218
  183loPI   C3A 2921   7.989   3.855   8.490  0.1618  0.0663 -0.0531
  183loPI   C4A 2922   8.132   4.138   8.169  0.0456  0.3226  0.3328
  183loPI   C5A 2923   8.178   4.324   7.835  0.4466  0.0828 -0.2147
  183loPI   C6A 2924   8.592   4.372   7.617  0.0276  0.1087  0.1733
  183loPI   C1B 2925   8.489   3.369   9.142  0.3244  0.2102  0.0683
  183loPI   C2B 2926   8.563   3.339   8.660  0.0614  0.0116  0.1712
  183loPI   C3B 2927   8.797   3.414   8.360  0.0537  0.0515  0.0886
  183loPI   C4B 2928   9.016   3.809   8.193 -0.0229  0.0097  0.5191
  184loPI    C1 2929  13.290   9.483  10.566  0.0206 -0.2939  0.1983
  184loPI    C2 2930  13.553   9.584  10.850  0.1602  0.2012 -0.0936
  184loPI    C3 2931  13.212   9.399  10.949  0.3901 -0.0041  0.3438
  184loPI   PO4 2932  13.220   9.730  10.351 -0.2133  0.0419 -0.3846
  184loPI   GL1 2933  13.226   9.819   9.926  0.1474  0.0571 -0.2050
  184loPI   GL2 2934  13.461   9.725   9.771  0.0811 -0.0888 -0.3184
  184loPI   C1A 2935  12.961   9.878   9.581  0.2127  0.3605  0.2709
  184loPI   C2A 2936  12.953   9.954   9.106  0.0613  0.1589 -0.0340
  184loPI   C3A 2937  12.916   9.744   8.737 -0.2854 -0.1890  0.0797
  184loPI   C4A 2938  12.912   9.697   8.322 -0.0055 -0.1238 -0.1650
  184loPI   C5A 2939  13.174   9.696   8.049  0.2768 -0.0272  0.1724
  184loPI   C6A 2940  13.503   9.858   8.001  0.2412 -0.3065  0.1312
  184loPI   C1B 2941  13.414   9.780   9.418 -0.0802 -0.1254 -0.1973
  184loPI   C2B 2942  13.416   9.779   9.006  0.0428 -0.3600  0.0868
  184loPI   C3B 2943  13.416   9.928   8.702 -0.2195  0.4694  0.2978
  184loPI   C4B 2944  13.213  10.094   8.394  0.2674  0.2062 -0.0755
  185loPI    C1 2945  14.416  12.872  10.241  0.1621  0.0137 -0.0561
  185loPI    C2 2946  14.723  12.617  10.263  0.0394 -0.1436 -0.1405
  185loPI    C3 2947  14.722  12.949  10.487  0.2765 -0.1340 -0.1504
  185loPI   PO4 2948  14.379  12.829   9.895  0.0667 -0.0503  0.1174
  185loPI   GL1 2949  14.147  12.692   9.606 -0.0551  0.0906  0.2694
  185loPI   GL2 2950  13.932  12.870   9.546 -0.1352 -0.0223 -0.1590
  185loPI   C1A 2951  14.166  12.513   9.252  0.2399 -0.0956  0.0326
  185loPI   C2A 2952  14.119  12.496   8.813 -0.1499 -0.0220 -0.0525
  185loPI   C3A 2953  14.284  12.501   8.372  0.3096 -0.3447 -0.2227
  185loPI   C4A 2954  14.091  12.337   8.021  0.0057 -0.2246  0.0393
  185loPI   C5A 2955  14.082  12.373   7.724  0.2661  0.0419  0.0452
  185loPI   C6A 2956  13.741  12.443   7.594 -0.0058 -0.2496  0.3405
  185loPI   C1B 2957  13.996  12.993   9.114  0.2248 -0.3760 -0.2080
  185loPI   C2B 2958  13.966  13.096   8.663  0.1623  0.3918  0.1203
  185loPI   C3B 2959  13.965  12.951   8.172  0.2207 -0.2131  0.0980
  185loPI   C4B 2960  13.964  12.890   7.743  0.0635 -0.0912 -0.2106
  186loPI    C1 2961  11.065  12.188  10.357 -0.0837 -0.2045 -0.0055
  186loPI    C2 2962  10.980  12.566  10.256  0.2671 -0.1197  0.0056
  186loPI    C3 2963  10.862  12.423  10.610 -0.1453 -0.1239 -0.1284
  186loPI   PO4 2964  11.078  12.143  10.050  0.0373  0.0605 -0.2724
  186loPI   GL1 2965  11.307  12.110   9.719  0.2903  0.0921  0.1066
  186loPI   GL2 2966  11.368  11.789   9.619 -0.3037  0.0560 -0.2059
  186loPI   C1A 2967  11.281  12.150   9.293  0.0837 -0.0783  0.2016
  186loPI   C2A 2968  11.223  12.049   8.826 -0.1908  0.1222  0.0490
  186loPI   C3A 2969  11.011  11.970   8.486 -0.2728 -0.3380  0.2090
  186loPI   C4A 2970  10.692  11.968   8.185 -0.2683  0.1699 -0.2196
  186loPI   C5A 2971  10.216  11.950   8.261  0.6034  0.0695 -0.0899
  186loPI   C6A 2972   9.903  11.771   8.419  0.0521  0.0567  0.1385
  186loPI   C1B 2973  11.441  11.678   9.109 -0.2528  0.0950 -0.0559
  186loPI   C2B 2974  11.497  11.616   8.584  0.0864 -0.2399  0.2357
  186loPI   C3B 2975  11.437  11.421   8.256 -0.1054  0.3414 -0.2585
  186loPI   C4B 2976  11.539  11.077   7.998 -0.2644 -0.2061  0.1544
  187loPI    C1 2977   7.616  10.718  10.788  0.1369 -0.2589 -0.1183
  187loPI    C2 2978   7.239  10.636  10.684 -0.0513  0.1840  0.1844
  187loPI    C3 2979   7.367  10.552  11.053  0.0875  0.2169  0.1446
  187loPI   PO4 2980   7.676  10.850  10.494  0.3017 -0.2590 -0.1230
  187loPI   GL1 2981   7.880  10.782  10.057  0.2610 -0.2505  0.0100
  187loPI   GL2 2982   8.097  10.562  10.069 -0.1332 -0.1063 -0.3612
  187loPI   C1A 2983   7.821  10.917   9.674 -0.1127 -0.0029 -0.1145
  187loPI   C2A 2984   7.532  11.103   9.375  0.4111  0.4696 -0.0285
  187loPI   C3A 2985   7.504  11.205   8.962 -0.0209 -0.1277  0.2728
  187loPI   C4A 2986   7.350  11.394   8.554  0.3201 -0.0923  0.2469
  187loPI   C5A 2987   7.461  11.298   8.085 -0.5406 -0.1814 -0.1251
  187loPI   C6A 2988   7.444  11.113   7.772  0.0263 -0.2393 -0.0701
  187loPI   C1B 2989   8.185  10.495   9.678 -0.2977  0.1312 -0.2621
  187loPI   C2B 2990   7.891  10.449   9.259  0.0960  0.1763 -0.1766
  187loPI   C3B 2991   7.930  10.721   8.901  0.0400  0.4835  0.0493
  187loPI   C4B 2992   8.078  10.546   8.485 -0.1771  0.2199 -0.0343
  188loPI    C1 2993   4.505   6.895  10.765 -0.1757 -0.1505 -0.2704
  188loPI    C2 2994   4.133   7.000  10.663 -0.1615  0.0924 -0.0809
  188loPI    C3 2995   4.194   6.764  10.981 -0.1514  0.0807 -0.0915
  188loPI   PO4 2996   4.636   6.883  10.473  0.1286  0.0158 -0.0627
  188loPI   GL1 2997   4.580   6.777  10.057  0.0491 -0.0298  0.0932
  188loPI   GL2 2998   4.800   6.663   9.869  0.0752 -0.0648  0.3688
  188loPI   C1A 2999   4.469   7.022   9.637  0.4811  0.2914 -0.0367
  188loPI   C2A 3000   4.448   7.141   9.244  0.3382  0.0516 -0.1644
  188loPI   C3A 3001   4.496   7.196   8.800 -0.2029  0.0402  0.2020
  188loPI   C4A 3002   4.701   6.999   8.473  0.3576  0.0149  0.0824
  188loPI   C5A 3003   4.630   6.931   8.025 -0.0485  0.3345 -0.1597
  188loPI   C6A 3004   4.284   6.954   7.712 -0.1098  0.1936 -0.1196
  188loPI   C1B 3005   4.783   6.721   9.384  0.0433 -0.1234 -0.1695
  188loPI   C2B 3006   4.765   6.718   8.954 -0.0890  0.1332  0.2832
  188loPI   C3B 3007   4.924   6.580   8.582  0.0437  0.0834 -0.1663
  188loPI   C4B 3008   4.872   6.481   8.125  0.0801  0.1927  0.0290
  189loPI    C1 3009  10.899   4.838  10.321 -0.2515  0.0930  0.0305
  189loPI    C2 3010  10.713   4.513  10.461  0.0060 -0.0854 -0.0347
  189loPI    C3 3011  10.795   4.818  10.706 -0.2801 -0.0464  0.0159
  189loPI   PO4 3012  10.749   4.881  10.037 -0.2256  0.1957  0.4826
  189loPI   GL1 3013  10.864   5.012   9.594 -0.0013 -0.3543  0.0659
  189loPI   GL2 3014  10.899   5.290   9.759 -0.0747  0.2970  0.2308
  189loPI   C1A 3015  10.528   5.129   9.319  0.1992  0.2186 -0.1014
  189loPI   C2A 3016  10.639   5.092   8.898 -0.0312  0.0031  0.1175
  189loPI   C3A 3017  10.796   5.008   8.409 -0.3084 -0.2016 -0.1364
  189loPI   C4A 3018  10.897   4.662   7.990  0.2477 -0.0031  0.1744
  189loPI   C5A 3019  10.859   4.587   7.625 -0.0128  0.0590  0.1608
  189loPI   C6A 3020  11.039   4.272   7.387 -0.0107  0.0507  0.2680
  189loPI   C1B 3021  10.706   5.585   9.461 -0.0891  0.0352  0.0516
  189loPI   C2B 3022  10.506   5.593   9.018  0.0246 -0.1425 -0.1861
  189loPI   C3B 3023  10.347   5.459   8.591 -0.1128  0.3875  0.0361
  189loPI   C4B 3024  10.375   5.261   8.185  0.0010  0.0398  0.0848
  190loPI    C1 3025   9.639  16.825  10.149  0.0869  0.3453 -0.0576
  190loPI    C2 3026   9.809  16.751  10.503  0.1533  0.2300 -0.1133
  190loPI    C3 3027   9.578  17.074  10.457  0.1549  0.2526  0.0314
  190loPI   PO4 3028   9.604  16.551   9.990 -0.3759 -0.2024  0.3993
  190loPI   GL1 3029   9.430  16.392   9.622 -0.0134 -0.0324  0.1787
  190loPI   GL2 3030   9.233  16.300   9.449 -0.0240  0.1040  0.1320
  190loPI   C1A 3031   9.659  16.489   9.287  0.3048 -0.0931 -0.1213
  190loPI   C2A 3032   9.708  16.342   8.910  0.0526  0.3477 -0.2920
  190loPI   C3A 3033   9.560  16.267   8.481 -0.2992 -0.0392  0.0754
  190loPI   C4A 3034   9.568  16.327   8.060 -0.1995  0.3783  0.1795
  190loPI   C5A 3035   9.630  16.557   7.721  0.1014 -0.0697  0.2606
  190loPI   C6A 3036   9.516  16.694   7.238 -0.2417 -0.0429  0.2034
  190loPI   C1B 3037   9.255  16.115   9.110  0.2431  0.1102  0.0255
  190loPI   C2B 3038   9.199  15.958   8.714 -0.1536 -0.2248  0.3990
  190loPI   C3B 3039   9.277  15.989   8.236  0.0703  0.0157  0.1441
  190loPI   C4B 3040   9.155  15.989   7.777  0.0283 -0.0911  0.0355
  191loPI    C1 3041   4.509   4.032   9.987  0.1142 -0.2067  0.0819
  191loPI    C2 3042   4.829   4.058  10.226  0.1635 -0.1676  0.0121
  191loPI    C3 3043   4.542   3.790  10.304  0.0086  0.0802  0.3163
  191loPI   PO4 3044   4.465   4.280   9.927 -0.1006  0.2576  0.0215
  191loPI   GL1 3045   4.418   4.332   9.532  0.0497 -0.0575 -0.0788
  191loPI   GL2 3046   4.273   4.555   9.402 -0.1069 -0.2817 -0.0805
  191loPI   C1A 3047   4.576   4.165   9.098  0.0297 -0.2062 -0.1682
  191loPI   C2A 3048   4.537   4.239   8.678 -0.0556  0.1941 -0.1248
  191loPI   C3A 3049   4.436   4.217   8.177  0.0178 -0.0987  0.0842
  191loPI   C4A 3050   4.359   4.080   7.771  0.2214 -0.0819 -0.0668
  191loPI   C5A 3051   4.349   4.172   7.289  0.0497  0.0393 -0.0750
  191loPI   C6A 3052   4.302   4.033   6.842 -0.1654  0.2515  0.0507
  191loPI   C1B 3053   4.416   4.673   9.026 -0.0097  0.1786 -0.0149
  191loPI   C2B 3054   4.474   4.773   8.579 -0.0752  0.1712  0.1276
  191loPI   C3B 3055   4.338   4.854   8.127 -0.1056 -0.5542 -0.0479
  191loPI   C4B 3056   4.384   4.599   7.798  0.2041  0.0031  0.0083
  192loPI    C1 3057   2.363   7.778  10.500  0.0902 -0.0460  0.0233
  192loPI    C2 3058   2.132   7.488  10.350 -0.0609  0.0394  0.0880
  192loPI    C3 3059   1.966   7.822  10.494  0.0944  0.0410  0.2674
  192loPI   PO4 3060   2.524   7.832  10.249  0.1466  0.1083  0.0984
  192loPI   GL1 3061   2.656   7.727   9.786  0.0895 -0.2044  0.0305
  192loPI   GL2 3062   2.736   8.055   9.737  0.5714 -0.0806 -0.0211
  192loPI   C1A 3063   2.496   7.731   9.391 -0.0383 -0.0375  0.1722
  192loPI   C2A 3064   2.574   7.523   9.071  0.0712  0.0671  0.1379
  192loPI   C3A 3065   2.458   7.732   8.658 -0.0782 -0.3412  0.2655
  192loPI   C4A 3066   2.676   7.697   8.220 -0.0029 -0.0412  0.3794
  192loPI   C5A 3067   2.771   7.947   7.924 -0.0076 -0.0342  0.0779
  192loPI   C6A 3068   2.548   8.187   7.743 -0.0307  0.1581 -0.0047
  192loPI   C1B 3069   2.868   8.227   9.355 -0.1449  0.3350  0.0249
  192loPI   C2B 3070   2.727   7.998   8.970 -0.0607 -0.0750 -0.0024
  192loPI   C3B 3071   2.884   8.108   8.662 -0.2029  0.1343  0.1091
  192loPI   C4B 3072   3.048   8.259   8.279  0.0185 -0.0477  0.0619
  193loPI    C1 3073  15.550   0.187   9.959  0.0141  0.3202  0.1241
  193loPI    C2 3074  15.894   0.203  10.162 -0.0139  0.2475  0.1777
  193loPI    C3 3075  15.664  -0.124  10.183 -0.0437  0.2614  0.0724
  193loPI   PO4 3076  15.693   0.233   9.702  0.0384  0.4273 -0.0166
  193loPI   GL1 3077  15.770   0.455   9.251  0.1933 -0.0683 -0.0634
  193loPI   GL2 3078  15.927   0.194   9.259 -0.1837 -0.1670 -0.0032
  193loPI   C1A 3079  15.693   0.641   8.839  0.1583  0.0726  0.0503
  193loPI   C2A 3080  15.629   0.655   8.445  0.2397 -0.0230 -0.1518
  193loPI   C3A 3081  15.399   0.687   8.053  0.0459 -0.2020  0.3431
  193loPI   C4A 3082  15.221   1.060   7.856 -0.0709  0.1687 -0.1091
  193loPI   C5A 3083  15.444   1.240   7.466  0.2224  0.4636  0.0397
  193loPI   C6A 3084  15.776   1.444   7.372  0.1248  0.0918  0.1612
  193loPI   C1B 3085  15.834   0.111   8.934  0.1228  0.0154 -0.0987
  193loPI   C2B 3086  15.832   0.222   8.571  0.1040 -0.2714 -0.0141
  193loPI   C3B 3087  15.840   0.374   8.116 -0.0569  0.0787  0.0781
  193loPI   C4B 3088  15.944   0.323   7.654 -0.1924 -0.2710  0.2998
  194loPI    C1 3089   5.347   8.444  10.853 -0.0401  0.1453 -0.2061
  194loPI    C2 3090   5.121   8.196  10.635 -0.0050  0.1165 -0.2097
  194loPI    C3 3091   5.176   8.126  11.025  0.0001  0.1219 -0.2094
  194loPI   PO4 3092   5.215   8.698  10.805  0.1228  0.1084  0.1653
  194loPI   GL1 3093   5.022   9.065  10.457  0.0806  0.1748  0.0550
  194loPI   GL2 3094   5.289   9.410  10.398 -0.2809  0.0154  0.0163
  194loPI   C1A 3095   4.911   9.323  10.063 -0.0010 -0.2296 -0.2293
  194loPI   C2A 3096   5.085   9.258   9.666 -0.1228  0.2318 -0.0334
  194loPI   C3A 3097   5.178   9.333   9.239 -0.0793 -0.1640 -0.0321
  194loPI   C4A 3098   5.223   8.989   8.887 -0.1994  0.1325 -0.0664
  194loPI   C5A 3099   5.032   8.937   8.468 -0.2592  0.1557  0.1639
  194loPI   C6A 3100   4.913   8.732   7.998 -0.2713 -0.4518 -0.0428
  194loPI   C1B 3101   5.375   9.051  10.074 -0.0567  0.3239 -0.1890
  194loPI   C2B 3102   5.420   8.811   9.764 -0.0994 -0.1533  0.0849
  194loPI   C3B 3103   5.463   8.717   9.342  0.0433 -0.0631 -0.0563
  194loPI   C4B 3104   5.645   8.310   9.070 -0.1665 -0.0533 -0.0849
  195loPI    C1 3105  18.355  13.209  10.246 -0.0329 -0.0588 -0.1424
  195loPI    C2 3106  18.429  12.822  10.315  0.1366  0.0337  0.2188
  195loPI    C3 3107  18.081  12.983  10.429  0.1068  0.0116  0.1592
  195loPI   PO4 3108  18.321  13.289   9.889  0.2795 -0.2141 -0.0207
  195loPI   GL1 3109  18.441  13.236   9.537  0.0142 -0.0700  0.1665
  195loPI   GL2 3110  18.717  13.089   9.364  0.0394  0.1743 -0.1733
  195loPI   C1A 3111  18.171  13.246   9.118 -0.1349 -0.1074  0.0312
  195loPI   C2A 3112  18.208  13.275   8.653  0.0484  0.1346  0.0941
  195loPI   C3A 3113  18.348  13.040   8.226 -0.0228  0.0650 -0.2172
  195loPI   C4A 3114  18.297  13.042   7.819  0.2170 -0.3136  0.4942
  195loPI   C5A 3115  17.961  12.761   7.807 -0.1000 -0.0838 -0.1049
  195loPI   C6A 3116  17.642  12.583   7.670  0.1339  0.1478 -0.0919
  195loPI   C1B 3117  18.657  13.226   8.955 -0.2164 -0.0025  0.2918
  195loPI   C2B 3118  18.677  13.164   8.611 -0.1902  0.1482  0.0854
  195loPI   C3B 3119  18.647  13.515   8.313 -0.0039  0.1088 -0.0485
  195loPI   C4B 3120  18.475  13.686   7.922 -0.0952  0.2676  0.0957
  196loPI    C1 3121  11.298   8.045  10.343  0.1953 -0.1860  0.0925
  196loPI    C2 3122  11.377   8.390  10.155 -0.1825 -0.1893 -0.0803
  196loPI    C3 3123  11.484   8.342  10.537 -0.2394  0.1682 -0.0159
  196loPI   PO4 3124  11.331   7.825   9.992 -0.2374  0.1527 -0.0465
  196loPI   GL1 3125  11.122   7.591   9.740  0.1029 -0.2136 -0.2965
  196loPI   GL2 3126  11.095   7.887   9.568  0.2121  0.0275 -0.1539
  196loPI   C1A 3127  11.453   7.360   9.524  0.1232 -0.0024 -0.0425
  196loPI   C2A 3128  11.528   7.237   9.130 -0.0892 -0.1367  0.1405
  196loPI   C3A 3129  11.608   7.343   8.742 -0.5068 -0.1812 -0.0646
  196loPI   C4A 3130  11.553   7.251   8.278  0.0396 -0.2234  0.1313
  196loPI   C5A 3131  11.627   6.891   8.029  0.1936 -0.4072 -0.3004
  196loPI   C6A 3132  11.688   6.476   8.238  0.3239 -0.4410  0.2453
  196loPI   C1B 3133  11.116   7.584   9.233 -0.0710  0.1171  0.0658
  196loPI   C2B 3134  11.160   7.594   8.773  0.6078  0.2126 -0.3215
  196loPI   C3B 3135  11.281   7.823   8.488  0.2651 -0.0896 -0.0005
  196loPI   C4B 3136  11.336   7.692   8.030  0.4177 -0.2786  0.1019
  197loPI    C1 3137   7.310   3.978  10.185  0.3546  0.0471  0.1879
  197loPI    C2 3138   7.319   4.335  10.007  0.0423 -0.0576 -0.0467
  197loPI    C3 3139   7.182   4.302  10.381  0.0414  0.0630 -0.0358
  197loPI   PO4 3140   7.241   3.855   9.962 -0.1322  0.2368  0.0040
  197loPI   GL1 3141   7.332   4.063   9.635 -0.1313  0.0712  0.0378
  197loPI   GL2 3142   7.162   4.258   9.486 -0.1226 -0.2986  0.2607
  197loPI   C1A 3143   7.495   4.118   9.173  0.0468  0.1306 -0.0098
  197loPI   C2A 3144   7.700   4.108   8.767  0.3144 -0.2744  0.1438
  197loPI   C3A 3145   7.595   4.214   8.348 -0.0437  0.1277 -0.2678
  197loPI   C4A 3146   7.637   4.156   8.011  0.0599 -0.0645 -0.1691
  197loPI   C5A 3147   7.369   3.996   7.633  0.0868  0.0052 -0.2884
  197loPI   C6A 3148   7.047   4.003   7.311  0.0181  0.0315  0.2840
  197loPI   C1B 3149   7.110   4.436   9.115  0.1463  0.2816  0.0064
  197loPI   C2B 3150   6.891   4.404   8.697  0.2012  0.2629  0.2617
  197loPI   C3B 3151   6.764   4.291   8.409  0.1204  0.2805  0.4033
  197loPI   C4B 3152   6.687   4.216   7.956 -0.2329  0.0266 -0.2146
  198loPI    C1 3153   5.055   5.101   9.867  0.1182  0.3320  0.4884
  198loPI    C2 3154   4.988   4.836  10.158  0.0652  0.1248  0.2903
  198loPI    C3 3155   5.363   4.930  10.057  0.0838  0.1870  0.4149
  198loPI   PO4 3156   4.906   4.992   9.707  0.0563 -0.2280  0.0708
  198loPI   GL1 3157   4.728   4.674   9.396 -0.0549  0.0262 -0.1810
  198loPI   GL2 3158   4.840   5.023   9.203  0.0511 -0.4071  0.1651
  198loPI   C1A 3159   5.006   4.577   8.997  0.0080 -0.0020 -0.0980
  198loPI   C2A 3160   4.937   4.632   8.558  0.1118  0.2429 -0.1475
  198loPI   C3A 3161   4.801   4.562   8.127 -0.1262 -0.2186  0.0203
  198loPI   C4A 3162   4.843   4.616   7.786  0.2565  0.0233 -0.0177
  198loPI   C5A 3163   4.899   4.362   7.422 -0.0301  0.2044 -0.3568
  198loPI   C6A 3164   5.157   4.221   7.040  0.2938 -0.0584 -0.1844
  198loPI   C1B 3165   4.765   5.119   8.805 -0.1014 -0.0592  0.0021
  198loPI   C2B 3166   4.779   5.125   8.338 -0.0911 -0.0160  0.3159
  198loPI   C3B 3167   4.763   5.104   7.933 -0.3224  0.3077  0.0451
  198loPI   C4B 3168   4.910   5.074   7.507  0.0147  0.3892 -0.0053
  199loPI    C1 3169   3.553   5.420  10.375  0.0231  0.0713 -0.3331
  199loPI    C2 3170   3.679   5.044  10.321  0.0150  0.0356 -0.1126
  199loPI    C3 3171   3.497   5.148  10.662 -0.2015  0.1821 -0.2699
  199loPI   PO4 3172   3.666   5.611  10.263  0.1641 -0.0361 -0.4282
  199loPI   GL1 3173   3.411   5.720   9.875 -0.0294 -0.2383  0.0436
  199loPI   GL2 3174   3.222   5.534   9.651 -0.3610 -0.0151  0.2271
  199loPI   C1A 3175   3.531   6.048   9.558  0.3021 -0.1179  0.0017
  199loPI   C2A 3176   3.510   6.037   9.157  0.1703 -0.0796  0.1456
  199loPI   C3A 3177   3.374   6.203   8.731  0.1910 -0.0874 -0.3327
  199loPI   C4A 3178   3.257   6.360   8.421  0.1616  0.0373 -0.2241
  199loPI   C5A 3179   3.390   6.630   8.136 -0.1493 -0.2397  0.2040
  199loPI   C6A 3180   3.646   6.604   7.741  0.2731 -0.1223  0.3679
  199loPI   C1B 3181   3.252   5.597   9.149 -0.1491  0.0865 -0.1175
  199loPI   C2B 3182   3.334   5.608   8.774 -0.1089  0.2603 -0.5698
  199loPI   C3B 3183   3.311   5.668   8.347 -0.3345 -0.0956  0.0551
  199loPI   C4B 3184   3.126   5.650   7.887 -0.1568  0.1878 -0.1344
  200loPI    C1 3185   9.920   1.707  10.147 -0.0624 -0.0745 -0.1078
  200loPI    C2 3186  10.050   1.411   9.911  0.1781 -0.0932  0.0440
  200loPI    C3 3187  10.021   1.353  10.305  0.0344  0.0230  0.0513
  200loPI   PO4 3188  10.007   1.927   9.932  0.0449 -0.0179 -0.1991
  200loPI   GL1 3189   9.793   2.009   9.534 -0.2331 -0.0145  0.3979
  200loPI   GL2 3190   9.485   2.140   9.639  0.4251  0.0929 -0.0502
  200loPI   C1A 3191   9.609   2.000   9.168  0.0489 -0.3353 -0.2487
  200loPI   C2A 3192   9.594   2.257   8.800 -0.0991 -0.1157 -0.0484
  200loPI   C3A 3193   9.707   2.359   8.374 -0.0680 -0.0358 -0.0309
  200loPI   C4A 3194   9.870   2.317   7.933 -0.1630  0.0021 -0.1702
  200loPI   C5A 3195  10.188   2.156   7.585  0.0176 -0.2017 -0.0117
  200loPI   C6A 3196  10.380   1.726   7.432  0.2125 -0.0048  0.5256
  200loPI   C1B 3197   9.190   2.198   9.347 -0.1303 -0.2650 -0.1117
  200loPI   C2B 3198   9.052   2.098   8.854  0.3833  0.1145  0.0430
  200loPI   C3B 3199   8.986   2.101   8.380 -0.0354 -0.1883  0.1410
  200loPI   C4B 3200   9.158   2.113   7.938  0.2412  0.0700 -0.0898
  201loPI    C1 3201  18.686  18.099   9.689  0.2230 -0.2237  0.0301
  201loPI    C2 3202  18.725  18.400   9.950 -0.3140 -0.1932  0.0853
  201loPI    C3 3203  18.866  18.036  10.040  0.1654 -0.0105  0.0992
  201loPI   PO4 3204  18.405  18.253   9.533 -0.0295  0.4681 -0.0750
  201loPI   GL1 3205  18.335  18.342   9.097  0.0543 -0.3254 -0.2129
  201loPI   GL2 3206  18.468  18.027   9.121 -0.3222  0.3249 -0.0253
  201loPI   C1A 3207  18.342  18.419   8.757 -0.2036 -0.1647 -0.1816
  201loPI   C2A 3208  18.248  18.300   8.392 -0.1480 -0.0074 -0.2448
  201loPI   C3A 3209  18.082  18.304   8.003 -0.0581 -0.1230  0.1922
  201loPI   C4A 3210  18.074  18.767   7.867  0.1993 -0.0132  0.1018
  201loPI   C5A 3211  17.974  19.206   7.856  0.1163 -0.1417 -0.1469
  201loPI   C6A 3212  17.782  19.677   7.899  0.1262  0.0545 -0.5223
  201loPI   C1B 3213  18.819  18.030   8.741  0.0039 -0.1681 -0.0258
  201loPI   C2B 3214  18.823  18.404   8.480  0.2382 -0.2669  0.1118
  201loPI   C3B 3215  19.040  18.557   8.029  0.1599 -0.3058  0.4390
  201loPI   C4B 3216  19.134  18.964   7.662  0.0173 -0.0579  0.0901
  202loPI    C1 3217   6.387   6.815  10.468  0.0173  0.0611  0.1009
  202loPI    C2 3218   6.083   6.575  10.570  0.0896 -0.1268 -0.1185
  202loPI    C3 3219   6.288   6.769  10.853 -0.1726 -0.0738  0.0377
  202loPI   PO4 3220   6.556   6.644  10.299  0.0103 -0.0523  0.0651
  202loPI   GL1 3221   6.399   6.529   9.834 -0.2337  0.1746 -0.2048
  202loPI   GL2 3222   6.149   6.475  10.080  0.1517  0.2109 -0.2027
  202loPI   C1A 3223   6.288   6.334   9.436  0.1289  0.4907 -0.3536
  202loPI   C2A 3224   6.145   6.408   9.138  0.1719  0.1762  0.2838
  202loPI   C3A 3225   5.939   6.197   8.887  0.1077  0.0726  0.0416
  202loPI   C4A 3226   6.164   6.150   8.577 -0.0534  0.0369  0.0446
  202loPI   C5A 3227   6.223   6.089   8.108 -0.2775 -0.2109  0.1613
  202loPI   C6A 3228   6.350   6.539   7.909 -0.0057  0.0228 -0.2358
  202loPI   C1B 3229   5.869   6.511   9.744  0.2512 -0.0166 -0.0249
  202loPI   C2B 3230   5.737   6.316   9.386  0.3896  0.3436  0.1161
  202loPI   C3B 3231   5.470   6.333   9.033 -0.1039 -0.3557 -0.0875
  202loPI   C4B 3232   5.430   6.658   8.692  0.1424 -0.2845  0.0921
  203loPI    C1 3233   8.632   0.568  10.038  0.0999 -0.0165 -0.1204
  203loPI    C2 3234   8.934   0.526  10.297  0.0429  0.0988 -0.0342
  203loPI    C3 3235   8.580   0.663  10.423 -0.0894 -0.1694 -0.1065
  203loPI   PO4 3236   8.617   0.748   9.891  0.3187  0.2155  0.4346
  203loPI   GL1 3237   8.687   0.939   9.475 -0.1911  0.0168  0.1637
  203loPI   GL2 3238   8.822   1.235   9.308 -0.0735  0.1488 -0.1266
  203loPI   C1A 3239   8.518   0.817   9.147 -0.0136  0.1387 -0.0607
  203loPI   C2A 3240   8.574   0.793   8.733  0.0839 -0.5481  0.2539
  203loPI   C3A 3241   8.641   0.699   8.284 -0.4774  0.0619 -0.0257
  203loPI   C4A 3242   8.722   0.536   7.925  0.0319  0.1744  0.0665
  203loPI   C5A 3243   8.865   0.324   7.612  0.1194 -0.3016  0.0411
  203loPI   C6A 3244   8.879   0.411   7.119  0.1361  0.0811  0.0398
  203loPI   C1B 3245   8.875   1.186   8.920 -0.7209  0.0241  0.0447
  203loPI   C2B 3246   8.846   1.152   8.599 -0.0035 -0.3392 -0.3419
  203loPI   C3B 3247   8.976   1.061   8.211  0.1176  0.2147 -0.2382
  203loPI   C4B 3248   9.049   0.890   7.874 -0.2077 -0.1239 -0.1324
  204loPI    C1 3249  11.768  13.761  10.816 -0.0822 -0.0927  0.1492
  204loPI    C2 3250  12.120  13.572  10.801  0.0058  0.0847 -0.0942
  204loPI    C3 3251  12.037  13.815  11.107 -0.0014 -0.1379  0.0836
  204loPI   PO4 3252  11.773  13.797  10.456  0.1829  0.1390  0.4563
  204loPI   GL1 3253  11.749  13.833   9.930  0.2467 -0.2955 -0.1938
  204loPI   GL2 3254  11.608  14.114   9.783  0.0613 -0.2726  0.1534
  204loPI   C1A 3255  11.860  13.802   9.564  0.1297  0.0476  0.1982
  204loPI   C2A 3256  11.869  13.818   9.089 -0.0179 -0.1872 -0.0027
  204loPI   C3A 3257  12.010  13.698   8.737  0.1224 -0.2178  0.0735
  204loPI   C4A 3258  12.144  13.518   8.300  0.1380  0.0390 -0.0304
  204loPI   C5A 3259  11.753  13.642   7.922 -0.4483 -0.0443  0.2706
  204loPI   C6A 3260  11.366  13.809   7.649 -0.2129 -0.0327  0.0434
  204loPI   C1B 3261  11.455  13.988   9.361 -0.0333  0.0325  0.1485
  204loPI   C2B 3262  11.283  13.868   8.962 -0.0010  0.2443  0.0774
  204loPI   C3B 3263  11.605  13.970   8.647  0.0845  0.0123 -0.2400
  204loPI   C4B 3264  11.667  14.427   8.482  0.1998  0.1298 -0.2730
  205loPI    C1 3265  17.720  10.026   9.983  0.0692 -0.1994  0.2233
  205loPI    C2 3266  17.655  10.414  10.057  0.0452 -0.1727  0.0660
  205loPI    C3 3267  17.596  10.142  10.345 -0.0631 -0.0732  0.1384
  205loPI   PO4 3268  18.032   9.994   9.903 -0.1332 -0.1094  0.0141
  205loPI   GL1 3269  18.222   9.936   9.549  0.4786 -0.1604 -0.2680
  205loPI   GL2 3270  18.613   9.859   9.508  0.0385 -0.0558 -0.0681
  205loPI   C1A 3271  17.966  10.069   9.261 -0.0210 -0.1872  0.1663
  205loPI   C2A 3272  18.044  10.126   8.919 -0.0636  0.0266 -0.2674
  205loPI   C3A 3273  17.929   9.890   8.567  0.1710  0.1036 -0.4268
  205loPI   C4A 3274  17.825   9.756   8.135 -0.1768 -0.2245  0.1037
  205loPI   C5A 3275  17.781   9.658   7.762  0.1989  0.1814 -0.0700
  205loPI   C6A 3276  17.531   9.307   7.558 -0.0493  0.0326  0.0104
  205loPI   C1B 3277  18.535   9.926   9.075 -0.3934  0.0610  0.0970
  205loPI   C2B 3278  18.412   9.891   8.670  0.1712  0.0674  0.0619
  205loPI   C3B 3279  18.366  10.048   8.312 -0.0819 -0.0449  0.1317
  205loPI   C4B 3280  18.640  10.138   7.934  0.5010  0.0069  0.0728
  206loPI    C1 3281   0.427  17.268   9.928 -0.1112 -0.0645 -0.0445
  206loPI    C2 3282   0.443  17.605  10.142 -0.1994 -0.2337  0.2348
  206loPI    C3 3283   0.765  17.369  10.117 -0.0662 -0.0206 -0.1477
  206loPI   PO4 3284   0.293  17.295   9.672  0.0835 -0.3696 -0.2586
  206loPI   GL1 3285   0.108  17.114   9.380 -0.0980  0.0319  0.0914
  206loPI   GL2 3286   0.471  17.305   9.229 -0.3520 -0.3326  0.0390
  206loPI   C1A 3287  -0.059  16.976   8.936 -0.0158  0.0163 -0.0390
  206loPI   C2A 3288  -0.057  16.769   8.580  0.1865 -0.0341  0.0424
  206loPI   C3A 3289   0.129  16.893   8.196 -0.1520 -0.2233  0.2499
  206loPI   C4A 3290   0.249  16.926   7.839 -0.0497 -0.0701  0.1333
  206loPI   C5A 3291   0.064  17.006   7.410  0.0586 -0.0694 -0.2778
  206loPI   C6A 3292  -0.356  16.890   7.265 -0.0889 -0.0878 -0.0797
  206loPI   C1B 3293   0.733  17.380   8.794 -0.0960 -0.3347  0.0030
  206loPI   C2B 3294   1.047  17.147   8.495 -0.1051 -0.0531 -0.2840
  206loPI   C3B 3295   1.342  17.307   8.144  0.0887  0.0257  0.2314
  206loPI   C4B 3296   1.459  17.239   7.694 -0.0608 -0.0752 -0.1920
  207loPI    C1 3297   0.251   4.012   9.895  0.0486  0.0843 -0.0244
  207loPI    C2 3298   0.267   4.206  10.245 -0.0283 -0.2581  0.1732
  207loPI    C3 3299   0.229   3.808  10.238 -0.1844 -0.2407 -0.2276
  207loPI   PO4 3300   0.255   4.199   9.675 -0.1666  0.1915  0.0529
  207loPI   GL1 3301   0.344   4.521   9.326 -0.1523 -0.2766 -0.1983
  207loPI   GL2 3302   0.202   4.736   9.115  0.3414 -0.0506  0.0948
  207loPI   C1A 3303   0.504   4.471   8.862  0.1207 -0.2011  0.1939
  207loPI   C2A 3304   0.601   4.499   8.441  0.1046 -0.1397  0.2641
  207loPI   C3A 3305   0.425   4.525   8.021  0.0811  0.3540  0.0880
  207loPI   C4A 3306   0.101   4.628   7.740 -0.2193  0.1991  0.1407
  207loPI   C5A 3307  -0.113   5.000   7.522 -0.0626  0.1958 -0.1176
  207loPI   C6A 3308  -0.110   5.443   7.550 -0.2108  0.0772 -0.1931
  207loPI   C1B 3309   0.248   4.884   8.710  0.2324  0.3005  0.5086
  207loPI   C2B 3310   0.210   4.842   8.389 -0.0244  0.1073 -0.1897
  207loPI   C3B 3311   0.318   5.055   8.113 -0.0429  0.4128  0.1016
  207loPI   C4B 3312   0.293   5.254   7.729  0.2383  0.1405  0.4575
  208loPI    C1 3313  11.235   0.432  10.419 -0.2039 -0.1750  0.0710
  208loPI    C2 3314  11.117   0.484  10.798  0.1429  0.0394  0.1548
  208loPI    C3 3315  11.368   0.745  10.630  0.0228 -0.0761 -0.2134
  208loPI   PO4 3316  10.950   0.348  10.274  0.0954  0.0343 -0.0865
  208loPI   GL1 3317  11.181   0.294   9.947 -0.4162 -0.1389  0.0247
  208loPI   GL2 3318  11.260   0.600   9.844  0.4418 -0.0924  0.1941
  208loPI   C1A 3319  11.059   0.226   9.536  0.1879 -0.3341 -0.0680
  208loPI   C2A 3320  11.015   0.044   9.087  0.1315 -0.1078 -0.1168
  208loPI   C3A 3321  10.967  -0.034   8.744  0.1343  0.0006  0.2140
  208loPI   C4A 3322  10.991   0.008   8.298  0.4606 -0.3624 -0.0847
  208loPI   C5A 3323  11.245   0.039   7.954 -0.0692  0.1401  0.1526
  208loPI   C6A 3324  11.323  -0.188   7.604  0.3594  0.1423  0.0397
  208loPI   C1B 3325  11.192   0.684   9.394 -0.0739  0.3528 -0.0158
  208loPI   C2B 3326  11.167   0.613   8.941 -0.0790 -0.0843 -0.0413
  208loPI   C3B 3327  11.019   0.467   8.545 -0.0864 -0.2292  0.1094
  208loPI   C4B 3328  10.963   0.526   8.073 -0.0542 -0.2311 -0.1597
  209loPI    C1 3329   4.503  15.978  10.115 -0.1494 -0.1711  0.1459
  209loPI    C2 3330   4.757  16.208  10.321 -0.0928 -0.0453 -0.0614
  209loPI    C3 3331   4.898  15.936  10.065 -0.1647  0.2385 -0.4103
  209loPI   PO4 3332   4.386  16.215   9.947 -0.1403  0.1310 -0.1607
  209loPI   GL1 3333   4.459  16.340   9.469  0.1663 -0.1095 -0.1844
  209loPI   GL2 3334   4.703  16.152   9.545 -0.4802  0.1147 -0.0148
  209loPI   C1A 3335   4.657  16.273   9.023  0.2107 -0.0858  0.0071
  209loPI   C2A 3336   4.875  16.009   8.817  0.0485 -0.1839  0.0492
  209loPI   C3A 3337   4.867  15.787   8.502 -0.1501 -0.1081  0.0019
  209loPI   C4A 3338   5.022  15.833   8.068  0.3577 -0.1210  0.1693
  209loPI   C5A 3339   5.134  16.109   7.847 -0.0991  0.2342  0.1426
  209loPI   C6A 3340   5.054  16.285   7.410  0.1647  0.0760  0.0765
  209loPI   C1B 3341   5.087  16.279   9.289  0.1334 -0.1334  0.1483
  209loPI   C2B 3342   5.282  16.276   8.812 -0.0971  0.0339 -0.0045
  209loPI   C3B 3343   5.300  16.252   8.348 -0.1418  0.0565  0.0483
  209loPI   C4B 3344   5.447  16.461   8.011  0.2912 -0.0452  0.0244
  210loPI    C1 3345  17.015   7.601  10.101  0.1688  0.1514 -0.1036
  210loPI    C2 3346  17.123   7.784  10.440 -0.0265 -0.0054  0.0456
  210loPI    C3 3347  17.394   7.582  10.227  0.1245  0.2021  0.0392
  210loPI   PO4 3348  16.717   7.643  10.173 -0.0047  0.3021  0.0869
  210loPI   GL1 3349  16.371   7.446   9.900 -0.0411 -0.0451  0.1264
  210loPI   GL2 3350  16.436   7.175   9.888 -0.1072  0.2367  0.0262
  210loPI   C1A 3351  16.256   7.514   9.480 -0.0881 -0.1869 -0.0867
  210loPI   C2A 3352  15.890   7.482   9.128 -0.0288  0.1241  0.0752
  210loPI   C3A 3353  15.824   7.572   8.645 -0.3362  0.0073  0.5619
  210loPI   C4A 3354  15.931   7.599   8.190  0.0955 -0.2432 -0.2501
  210loPI   C5A 3355  16.249   7.575   7.962 -0.0254  0.2221  0.2465
  210loPI   C6A 3356  16.699   7.592   7.863  0.1370  0.1189 -0.1082
  210loPI   C1B 3357  16.458   7.083   9.408  0.3540  0.2506 -0.0501
  210loPI   C2B 3358  16.428   7.349   9.033  0.0192  0.3778 -0.2401
  210loPI   C3B 3359  16.369   7.506   8.647  0.1726 -0.0682  0.0781
  210loPI   C4B 3360  16.571   7.787   8.269 -0.0946 -0.0430 -0.2086
  211loPI    C1 3361   2.302  17.213   9.890 -0.0427 -0.1728  0.0832
  211loPI    C2 3362   1.939  17.378   9.917 -0.0222 -0.1286  0.0880
  211loPI    C3 3363   2.075  17.144  10.212 -0.0187 -0.0882  0.1183
  211loPI   PO4 3364   2.230  17.028   9.700  0.1224  0.0049 -0.1434
  211loPI   GL1 3365   1.961  16.826   9.354 -0.0303  0.1183  0.2239
  211loPI   GL2 3366   2.057  16.506   9.298 -0.2807 -0.1714  0.4485
  211loPI   C1A 3367   1.804  16.650   8.841  0.0549 -0.2438 -0.3353
  211loPI   C2A 3368   1.734  16.628   8.450 -0.0145 -0.1331  0.1914
  211loPI   C3A 3369   1.721  16.415   8.070  0.3066 -0.2161  0.1378
  211loPI   C4A 3370   1.659  16.166   7.641 -0.0677 -0.0180  0.2204
  211loPI   C5A 3371   1.743  15.757   7.632 -0.2866 -0.0305  0.0724
  211loPI   C6A 3372   1.892  15.349   7.754 -0.1567 -0.1885  0.1201
  211loPI   C1B 3373   2.002  16.142   9.106  0.5200  0.1128 -0.1215
  211loPI   C2B 3374   2.117  15.819   8.830  0.1886 -0.1346 -0.1268
  211loPI   C3B 3375   2.075  15.446   8.678 -0.0187  0.0126 -0.0479
  211loPI   C4B 3376   1.932  15.363   8.260  0.2625  0.1100 -0.0005
  212loPI    C1 3377  14.943  13.755  10.188  0.4468  0.1076  0.0763
  212loPI    C2 3378  14.818  13.794  10.566 -0.2321  0.0878 -0.1324
  212loPI    C3 3379  14.920  13.434  10.426  0.0819  0.1046  0.0433
  212loPI   PO4 3380  14.780  13.835  10.055  0.1543 -0.1277  0.1738
  212loPI   GL1 3381  14.659  13.737   9.602  0.0641 -0.2124 -0.1141
  212loPI   GL2 3382  14.897  13.467   9.593 -0.0202 -0.1630  0.3021
  212loPI   C1A 3383  14.765  13.849   9.187 -0.1231 -0.1796 -0.2369
  212loPI   C2A 3384  14.826  13.841   8.765  0.2381 -0.1229  0.0277
  212loPI   C3A 3385  14.870  13.554   8.395 -0.3412  0.0744  0.2169
  212loPI   C4A 3386  14.769  13.376   8.060 -0.0366 -0.1763  0.2194
  212loPI   C5A 3387  14.930  12.972   7.848 -0.0716  0.0712 -0.1023
  212loPI   C6A 3388  15.012  12.507   7.601  0.1318 -0.1132  0.0404
  212loPI   C1B 3389  15.139  13.463   9.190 -0.1419 -0.5812  0.1108
  212loPI   C2B 3390  15.165  13.427   8.882  0.1906 -0.1038  0.2025
  212loPI   C3B 3391  15.334  13.530   8.573  0.1197  0.0957 -0.0460
  212loPI   C4B 3392  15.609  13.480   8.251 -0.1843  0.1754  0.0645
  213loPI    C1 3393   3.734  10.760  10.442 -0.2268 -0.0471  0.2356
  213loPI    C2 3394   3.609  11.140  10.418  0.0548  0.0279 -0.1273
  213loPI    C3 3395   3.750  10.997  10.764 -0.0666  0.2486  0.0153
  213loPI   PO4 3396   3.893  10.760  10.280 -0.1186  0.0448  0.3101
  213loPI   GL1 3397   3.870  10.709   9.936  0.1658 -0.1156  0.0730
  213loPI   GL2 3398   3.461  10.721   9.877  0.4432  0.0638 -0.3158
  213loPI   C1A 3399   3.971  10.970   9.641 -0.1196  0.1088  0.2167
  213loPI   C2A 3400   3.969  11.293   9.293  0.3250 -0.2473 -0.0471
  213loPI   C3A 3401   3.925  11.195   8.897 -0.0133 -0.1999  0.2640
  213loPI   C4A 3402   3.997  11.207   8.451  0.3344 -0.2023  0.0310
  213loPI   C5A 3403   4.044  11.233   8.045 -0.4142  0.0126  0.1000
  213loPI   C6A 3404   4.252  10.972   7.692  0.3184 -0.4063  0.0129
  213loPI   C1B 3405   3.581  10.627   9.345  0.1698 -0.1559 -0.0964
  213loPI   C2B 3406   3.469  10.996   8.997 -0.0158  0.0630 -0.1902
  213loPI   C3B 3407   3.460  11.118   8.573  0.3482  0.3559 -0.2543
  213loPI   C4B 3408   3.457  10.901   8.197 -0.0521  0.0814 -0.1142
  214loPI    C1 3409   1.230  10.306  10.521  0.1072  0.0346  0.0477
  214loPI    C2 3410   1.487  10.605  10.454 -0.1041  0.2609  0.2274
  214loPI    C3 3411   1.566  10.332  10.736  0.1327  0.0913  0.0012
  214loPI   PO4 3412   0.981  10.383  10.311 -0.2074 -0.1644  0.1810
  214loPI   GL1 3413   1.016  10.216   9.883  0.1115 -0.3285 -0.1591
  214loPI   GL2 3414   1.091  10.538   9.755 -0.1343 -0.2612 -0.0828
  214loPI   C1A 3415   0.811  10.114   9.495  0.3732 -0.1011  0.0101
  214loPI   C2A 3416   0.866  10.128   9.071  0.0693  0.1697 -0.1235
  214loPI   C3A 3417   0.903  10.244   8.605 -0.0689 -0.0317  0.0185
  214loPI   C4A 3418   0.740  10.209   8.298  0.3058  0.0457  0.5638
  214loPI   C5A 3419   0.379   9.937   8.082 -0.2761 -0.2748 -0.2356
  214loPI   C6A 3420   0.216   9.603   7.885  0.1918 -0.0513 -0.2052
  214loPI   C1B 3421   1.187  10.448   9.365  0.1712 -0.1652 -0.1381
  214loPI   C2B 3422   1.260  10.420   8.934 -0.0653 -0.1424  0.0252
  214loPI   C3B 3423   1.529  10.358   8.520 -0.0738 -0.2049  0.3998
  214loPI   C4B 3424   1.586  10.235   8.101 -0.0644 -0.2523 -0.0426
  215loPI    C1 3425   3.467  12.050  10.327  0.3766  0.1226 -0.0648
  215loPI    C2 3426   3.098  12.055  10.481  0.3430 -0.2663 -0.1215
  215loPI    C3 3427   3.395  12.249  10.666  0.1395 -0.0633 -0.0032
  215loPI   PO4 3428   3.471  12.062  10.105  0.0376  0.2125 -0.2118
  215loPI   GL1 3429   3.644  12.290   9.784 -0.0037  0.0546 -0.1165
  215loPI   GL2 3430   3.535  12.488   9.775  0.2086 -0.2476  0.1148
  215loPI   C1A 3431   3.932  12.200   9.418 -0.3002 -0.0562  0.3256
  215loPI   C2A 3432   4.025  12.090   9.043 -0.0262 -0.1105  0.1020
  215loPI   C3A 3433   3.779  12.137   8.599 -0.3345  0.0737 -0.2123
  215loPI   C4A 3434   3.649  12.052   8.202  0.4326  0.0323 -0.2400
  215loPI   C5A 3435   3.385  11.997   7.907 -0.2710  0.1212 -0.0868
  215loPI   C6A 3436   3.126  12.087   7.514  0.1237  0.1190 -0.3734
  215loPI   C1B 3437   3.336  12.604   9.469  0.4805 -0.2361 -0.0054
  215loPI   C2B 3438   3.146  12.733   9.112  0.1641  0.0590  0.1845
  215loPI   C3B 3439   2.904  12.692   8.816 -0.2148 -0.2909 -0.2463
  215loPI   C4B 3440   2.742  12.869   8.400  0.1373  0.2888  0.1885
  216loPI    C1 3441  10.038   5.019  10.454  0.0856  0.3241 -0.0797
  216loPI    C2 3442  10.434   5.050  10.408  0.1105  0.1398  0.0022
  216loPI    C3 3443  10.263   5.164  10.751  0.1181  0.0272  0.0437
  216loPI   PO4 3444   9.900   5.083  10.220  0.0383  0.0602 -0.1106
  216loPI   GL1 3445   9.860   5.255   9.775  0.1292  0.1462  0.5064
  216loPI   GL2 3446   9.964   4.880   9.777 -0.2387 -0.1266  0.0115
  216loPI   C1A 3447  10.061   5.367   9.304 -0.0592 -0.3317 -0.1393
  216loPI   C2A 3448   9.875   5.397   8.862 -0.2309 -0.1827 -0.2608
  216loPI   C3A 3449   9.848   5.289   8.429  0.3502  0.1431 -0.0072
  216loPI   C4A 3450   9.904   5.069   8.101 -0.2298  0.2016 -0.4089
  216loPI   C5A 3451   9.917   5.240   7.640  0.1263 -0.4612  0.1330
  216loPI   C6A 3452   9.545   5.267   7.341 -0.1962 -0.0428 -0.0882
  216loPI   C1B 3453  10.087   4.792   9.332  0.0063  0.1508 -0.1650
  216loPI   C2B 3454  10.139   4.973   8.955 -0.2167 -0.0714 -0.1433
  216loPI   C3B 3455  10.214   4.942   8.483  0.0440 -0.0019 -0.0847
  216loPI   C4B 3456  10.310   4.728   8.112  0.1295 -0.2248  0.2546
  217loPI    C1 3457   9.618   4.101  10.290 -0.3061  0.0780  0.1942
  217loPI    C2 3458   9.415   3.994  10.618  0.1326 -0.0173  0.4435
  217loPI    C3 3459   9.796   4.112  10.649  0.2604 -0.2694 -0.0619
  217loPI   PO4 3460   9.371   4.125  10.113 -0.1640 -0.1401  0.0681
  217loPI   GL1 3461   9.270   4.037   9.688 -0.0536  0.0987 -0.2010
  217loPI   GL2 3462   9.562   4.228   9.604 -0.0765  0.2003 -0.3180
  217loPI   C1A 3463   9.395   3.814   9.371 -0.1758 -0.0694 -0.0692
  217loPI   C2A 3464   9.431   3.763   8.968 -0.0243  0.1331  0.0122
  217loPI   C3A 3465   9.529   4.114   8.761  0.0248  0.2004  0.3014
  217loPI   C4A 3466   9.537   4.261   8.317  0.1040  0.1767  0.2423
  217loPI   C5A 3467   9.667   4.615   8.113  0.2155 -0.0411 -0.2709
  217loPI   C6A 3468   9.922   4.748   7.727  0.0545  0.3105  0.0810
  217loPI   C1B 3469   9.672   4.400   9.287 -0.0383 -0.3563  0.2800
  217loPI   C2B 3470   9.782   4.497   8.865 -0.2743 -0.0919  0.0817
  217loPI   C3B 3471   9.753   4.812   8.565 -0.0486 -0.2948 -0.1835
  217loPI   C4B 3472   9.418   4.980   8.341  0.2472  0.2283 -0.2068
  218loPI    C1 3473  14.390  18.358   9.860 -0.2002  0.0123  0.0069
  218loPI    C2 3474  14.049  18.273  10.051 -0.1289 -0.2485  0.0226
  218loPI    C3 3475  14.387  18.085  10.153  0.0014 -0.0614 -0.0579
  218loPI   PO4 3476  14.278  18.382   9.618  0.0356 -0.0010  0.0056
  218loPI   GL1 3477  14.311  18.454   9.275 -0.0639  0.1036 -0.0358
  218loPI   GL2 3478  14.460  18.548   9.123 -0.2917  0.2128  0.0429
  218loPI   C1A 3479  14.101  18.239   8.876  0.1069  0.1224 -0.1796
  218loPI   C2A 3480  13.888  18.178   8.671  0.0119  0.0573  0.4160
  218loPI   C3A 3481  13.544  18.260   8.337  0.0403  0.1030 -0.1546
  218loPI   C4A 3482  13.410  18.167   7.966 -0.0326  0.1005  0.0125
  218loPI   C5A 3483  13.211  18.307   7.546  0.2081  0.0224 -0.1883
  218loPI   C6A 3484  12.846  18.561   7.366  0.1986  0.3421  0.3355
  218loPI   C1B 3485  14.822  18.494   8.839  0.0078 -0.0325 -0.2372
  218loPI   C2B 3486  14.945  18.700   8.537 -0.2472 -0.3065  0.0981
  218loPI   C3B 3487  15.055  18.604   8.038 -0.2615  0.0799 -0.0140
  218loPI   C4B 3488  15.207  18.342   7.775 -0.2023 -0.1184  0.3305
  219loPI    C1 3489   0.443   7.394  10.066 -0.3364 -0.3889  0.2068
  219loPI    C2 3490   0.645   7.153   9.818 -0.0712  0.0886 -0.0559
  219loPI    C3 3491   0.782   7.219  10.188  0.0667  0.1367 -0.1148
  219loPI   PO4 3492   0.403   7.630   9.870 -0.1354 -0.1734 -0.0719
  219loPI   GL1 3493   0.549   7.839   9.483 -0.2421 -0.0165  0.0782
  219loPI   GL2 3494   0.661   7.492   9.414 -0.1429 -0.1421 -0.1312
  219loPI   C1A 3495   0.606   7.910   8.987 -0.1189  0.2588  0.1489
  219loPI   C2A 3496   0.728   7.851   8.631 -0.0410 -0.2877  0.2870
  219loPI   C3A 3497   0.637   7.671   8.198  0.0880 -0.1207  0.0554
  219loPI   C4A 3498   0.194   7.565   8.066 -0.0872 -0.1407 -0.3048
  219loPI   C5A 3499  -0.235   7.685   7.791 -0.1607  0.1519 -0.3620
  219loPI   C6A 3500  -0.404   7.477   7.492  0.1369  0.2395  0.2397
  219loPI   C1B 3501   1.003   7.874   9.237  0.1797  0.1371 -0.1252
  219loPI   C2B 3502   1.062   8.240   8.954 -0.2109 -0.0555  0.2972
  219loPI   C3B 3503   0.908   8.303   8.466 -0.2108 -0.1967 -0.1793
  219loPI   C4B 3504   0.496   8.214   8.245 -0.2943  0.2412  0.0308
  220loPI    C1 3505   0.297  10.044   9.860 -0.1176  0.3311 -0.2314
  220loPI    C2 3506   0.554  10.141  10.150 -0.1622 -0.0104 -0.0728
  220loPI    C3 3507   0.191  10.308  10.141 -0.1562  0.0114  0.0608
  220loPI   PO4 3508   0.221   9.743   9.887  0.2100 -0.1568  0.1593
  220loPI   GL1 3509   0.343   9.651   9.511  0.0189  0.0973  0.1916
  220loPI   GL2 3510   0.241   9.347   9.421  0.2175  0.4340  0.1673
  220loPI   C1A 3511   0.272   9.693   9.102  0.1037 -0.1160 -0.2579
  220loPI   C2A 3512   0.211   9.726   8.652 -0.1786  0.0891  0.1074
  220loPI   C3A 3513  -0.062   9.648   8.274  0.0645  0.2810  0.2147
  220loPI   C4A 3514  -0.275   9.718   7.870  0.0452  0.0226 -0.0885
  220loPI   C5A 3515  -0.562  10.070   7.814  0.1208 -0.1669  0.1258
  220loPI   C6A 3516  -0.842  10.279   8.122 -0.1919  0.0542  0.0407
  220loPI   C1B 3517   0.033   9.304   8.971 -0.1704  0.2023 -0.0301
  220loPI   C2B 3518  -0.044   9.339   8.670  0.0555  0.1718  0.3026
  220loPI   C3B 3519  -0.054   9.128   8.232 -0.1943  0.1178 -0.0594
  220loPI   C4B 3520  -0.126   9.188   7.820  0.2236  0.1382  0.0856
  221loPI    C1 3521   1.368   7.182  10.220  0.1816 -0.0513 -0.2014
  221loPI    C2 3522   1.140   7.303  10.526  0.2588 -0.0417 -0.1474
  221loPI    C3 3523   1.257   6.921  10.502  0.0310 -0.1035 -0.3079
  221loPI   PO4 3524   1.274   7.290  10.034  0.0325  0.1386  0.3461
  221loPI   GL1 3525   1.526   7.248   9.716 -0.3697 -0.0482 -0.1174
  221loPI   GL2 3526   1.538   6.947   9.507 -0.0518 -0.0502 -0.0849
  221loPI   C1A 3527   1.719   7.386   9.353  0.2317  0.0740  0.1055
  221loPI   C2A 3528   1.565   7.330   8.930  0.2721  0.0157 -0.0657
  221loPI   C3A 3529   1.477   7.388   8.497  0.0573  0.0309 -0.0732
  221loPI   C4A 3530   1.389   7.348   7.992 -0.1765 -0.1399 -0.0733
  221loPI   C5A 3531   1.719   7.284   7.690  0.3960  0.0924  0.0032
  221loPI   C6A 3532   1.954   7.599   7.480  0.2566  0.0255 -0.0472
  221loPI   C1B 3533   1.337   6.966   9.188 -0.1555 -0.0094 -0.3680
  221loPI   C2B 3534   1.419   6.919   8.717  0.0795 -0.0740  0.1010
  221loPI   C3B 3535   1.501   6.822   8.421 -0.1918  0.4329 -0.1694
  221loPI   C4B 3536   1.691   7.026   8.177  0.0660  0.0505  0.1726
  222loPI    C1 3537   0.221  13.003  10.322  0.1154 -0.0742  0.0122
  222loPI    C2 3538   0.020  13.002  10.667  0.0288 -0.0730 -0.0379
  222loPI    C3 3539   0.420  12.999  10.669  0.0294 -0.0116  0.0627
  222loPI   PO4 3540   0.205  13.269  10.191  0.0133 -0.0997 -0.0791
  222loPI   GL1 3541   0.187  13.380   9.800  0.0196  0.0792  0.2133
  222loPI   GL2 3542   0.392  13.113   9.710 -0.1806  0.3524 -0.1521
  222loPI   C1A 3543   0.345  13.592   9.477  0.2457 -0.2866 -0.0291
  222loPI   C2A 3544   0.293  13.602   9.064 -0.2521  0.1886 -0.1673
  222loPI   C3A 3545   0.235  13.715   8.715 -0.0377  0.1519 -0.1429
  222loPI   C4A 3546   0.353  13.808   8.340 -0.1847 -0.2030 -0.1183
  222loPI   C5A 3547   0.439  13.783   7.893 -0.0957 -0.2637  0.1002
  222loPI   C6A 3548   0.178  13.726   7.472  0.0804 -0.2759  0.2716
  222loPI   C1B 3549   0.474  13.177   9.220 -0.3664  0.1804  0.1321
  222loPI   C2B 3550   0.447  13.202   8.768  0.0678  0.1807  0.1560
  222loPI   C3B 3551   0.426  13.141   8.321  0.1757  0.0655 -0.0925
  222loPI   C4B 3552   0.223  13.275   7.974  0.0417  0.3114 -0.1827
  223loPI    C1 3553   1.989   9.888  10.548  0.1722 -0.1581 -0.0365
  223loPI    C2 3554   2.019   9.515  10.690  0.0773 -0.2595 -0.2757
  223loPI    C3 3555   1.844   9.800  10.910  0.1139 -0.3649 -0.1082
  223loPI   PO4 3556   2.019   9.809  10.211 -0.1198  0.0898  0.1372
  223loPI   GL1 3557   2.016   9.598   9.771  0.0329 -0.2613  0.1636
  223loPI   GL2 3558   1.953   9.839   9.588 -0.1777 -0.0308  0.1212
  223loPI   C1A 3559   2.048   9.322   9.549 -0.0422  0.0603  0.0163
  223loPI   C2A 3560   1.928   9.139   9.089  0.3507 -0.0969  0.1225
  223loPI   C3A 3561   1.810   9.006   8.682 -0.1785 -0.0786  0.1985
  223loPI   C4A 3562   1.676   8.725   8.338  0.2195 -0.1127  0.1661
  223loPI   C5A 3563   1.777   8.570   7.903 -0.0439  0.0465  0.1828
  223loPI   C6A 3564   2.137   8.452   7.634  0.0718 -0.0859 -0.2625
  223loPI   C1B 3565   1.851   9.670   9.232  0.4451 -0.0938 -0.0685
  223loPI   C2B 3566   1.786   9.624   8.942 -0.0346 -0.2665 -0.1836
  223loPI   C3B 3567   1.888   9.549   8.444  0.0974  0.0943  0.1622
  223loPI   C4B 3568   1.531   9.696   8.132 -0.0239 -0.0759  0.1695
  224loPI    C1 3569   7.556   2.586  10.058  0.1621 -0.1781  0.0187
  224loPI    C2 3570   7.299   2.329  10.224 -0.0747 -0.0037 -0.0710
  224loPI    C3 3571   7.677   2.347  10.355 -0.1519 -0.1435  0.1789
  224loPI   PO4 3572   7.555   2.519   9.768  0.0624  0.1547 -0.1336
  224loPI   GL1 3573   7.687   2.690   9.347  0.0613  0.2740  0.0788
  224loPI   GL2 3574   7.589   3.034   9.349  0.1444  0.0987 -0.0990
  224loPI   C1A 3575   7.714   2.705   8.870 -0.0178  0.0485 -0.1790
  224loPI   C2A 3576   7.918   2.764   8.472  0.1553  0.0218 -0.1923
  224loPI   C3A 3577   7.892   3.000   8.120 -0.0682  0.0218 -0.0173
  224loPI   C4A 3578   7.720   3.323   8.025  0.0534  0.2812  0.0902
  224loPI   C5A 3579   7.861   3.718   8.017  0.0360  0.0843 -0.0686
  224loPI   C6A 3580   8.210   3.823   7.742 -0.1105 -0.1324 -0.0954
  224loPI   C1B 3581   7.468   3.115   8.932  0.1800 -0.0842  0.4552
  224loPI   C2B 3582   7.523   3.110   8.566 -0.2721  0.1375 -0.3155
  224loPI   C3B 3583   7.368   3.043   8.254 -0.1143  0.1901 -0.0328
  224loPI   C4B 3584   7.196   3.170   7.920 -0.2052 -0.2403 -0.4405
  225loPI    C1 3585   9.265  14.573   9.990  0.0549 -0.0771 -0.0233
  225loPI    C2 3586   8.868  14.613   9.962  0.0469 -0.1222  0.0211
  225loPI    C3 3587   9.076  14.848  10.210  0.0327 -0.1804  0.0882
  225loPI   PO4 3588   9.269  14.253  10.082  0.1495 -0.2426  0.3500
  225loPI   GL1 3589   9.546  14.060   9.869 -0.0278 -0.0254 -0.0442
  225loPI   GL2 3590   9.947  14.092   9.728 -0.0273  0.0581  0.1933
  225loPI   C1A 3591   9.235  14.057   9.460 -0.0687 -0.3088 -0.2731
  225loPI   C2A 3592   8.915  13.912   9.104 -0.3822  0.1709 -0.3158
  225loPI   C3A 3593   9.126  13.837   8.763 -0.2745 -0.0639  0.1879
  225loPI   C4A 3594   9.292  13.398   8.583 -0.3792 -0.0485 -0.0841
  225loPI   C5A 3595   9.190  13.116   8.252 -0.0511  0.0440 -0.3275
  225loPI   C6A 3596   9.079  12.713   8.100  0.3664  0.0275 -0.0380
  225loPI   C1B 3597   9.736  13.983   9.423 -0.0042  0.0986 -0.1133
  225loPI   C2B 3598   9.516  14.096   9.001 -0.0899 -0.0534 -0.0115
  225loPI   C3B 3599   9.720  13.996   8.538 -0.2041  0.0136  0.2130
  225loPI   C4B 3600   9.801  14.046   8.103  0.3258  0.3524 -0.0688
  226loPI    C1 3601  16.986   4.827  10.071 -0.0415  0.0622 -0.2590
  226loPI    C2 3602  17.236   4.574  10.254 -0.0542  0.1657 -0.0958
  226loPI    C3 3603  17.376   4.911  10.090 -0.0835  0.2142 -0.0217
  226loPI   PO4 3604  16.865   4.728   9.906  0.0551  0.0457 -0.1377
  226loPI   GL1 3605  16.466   4.754   9.711 -0.1934  0.2738  0.1640
  226loPI   GL2 3606  16.212   4.821   9.463  0.0695  0.0596 -0.0549
  226loPI   C1A 3607  16.607   4.528   9.286 -0.2468  0.1547 -0.2046
  226loPI   C2A 3608  16.673   4.557   8.858 -0.2160 -0.0754  0.2963
  226loPI   C3A 3609  16.638   4.769   8.420  0.0571  0.1567 -0.0331
  226loPI   C4A 3610  16.662   4.878   8.040 -0.1396 -0.0922  0.0535
  226loPI   C5A 3611  16.787   4.700   7.651  0.1015 -0.0962  0.1326
  226loPI   C6A 3612  16.813   4.767   7.159  0.0410 -0.2980 -0.0423
  226loPI   C1B 3613  16.283   4.781   9.016  0.1327 -0.0969 -0.2656
  226loPI   C2B 3614  16.200   4.932   8.610 -0.2559 -0.1723 -0.3360
  226loPI   C3B 3615  16.175   4.916   8.197  0.0049  0.2026  0.1181
  226loPI   C4B 3616  16.364   4.531   7.908 -0.0724  0.0404 -0.2235
  227loPI    C1 3617   5.804  10.446  10.770  0.2011  0.0067  0.0068
  227loPI    C2 3618   6.161  10.570  10.901  0.0001  0.3065  0.2863
  227loPI    C3 3619   6.040  10.195  10.973  0.3010  0.1687  0.0931
  227loPI   PO4 3620   5.733  10.423  10.430 -0.1077 -0.4807 -0.1181
  227loPI   GL1 3621   5.535  10.375  10.077  0.2484  0.1802  0.1029
  227loPI   GL2 3622   5.849  10.195   9.975 -0.0357  0.2899 -0.2252
  227loPI   C1A 3623   5.341  10.093   9.739 -0.2103 -0.2095  0.1947
  227loPI   C2A 3624   5.031  10.323   9.438  0.1790  0.0561 -0.1268
  227loPI   C3A 3625   5.030  10.250   9.042  0.0033  0.3352  0.0120
  227loPI   C4A 3626   4.900  10.249   8.636 -0.0079 -0.0363 -0.0275
  227loPI   C5A 3627   4.881  10.381   8.215  0.1287  0.0129  0.1753
  227loPI   C6A 3628   4.689  10.735   7.967  0.1413 -0.1076 -0.0907
  227loPI   C1B 3629   5.861   9.835   9.791 -0.2281 -0.0491 -0.2131
  227loPI   C2B 3630   5.921   9.786   9.262 -0.0878 -0.0072  0.1349
  227loPI   C3B 3631   5.763   9.695   8.764 -0.0001  0.0921  0.0479
  227loPI   C4B 3632   5.831   9.678   8.366 -0.2600  0.2530  0.0114
  228loPI    C1 3633   7.979  17.049  10.140 -0.0746 -0.2843  0.2092
  228loPI    C2 3634   8.164  17.235  10.441 -0.0501 -0.0953  0.0794
  228loPI    C3 3635   7.768  17.269  10.398 -0.0401 -0.0392  0.0320
  228loPI   PO4 3636   8.120  16.955   9.907  0.0680 -0.1197 -0.1444
  228loPI   GL1 3637   7.898  16.973   9.510  0.0382 -0.1540 -0.1131
  228loPI   GL2 3638   7.603  16.901   9.441 -0.1273 -0.2661  0.3920
  228loPI   C1A 3639   7.947  17.131   9.146 -0.2710  0.1716  0.0825
  228loPI   C2A 3640   8.069  16.912   8.748 -0.0051  0.0393  0.2206
  228loPI   C3A 3641   8.179  16.854   8.340 -0.2298  0.3002 -0.2804
  228loPI   C4A 3642   8.313  16.790   7.935  0.0137  0.0906  0.1287
  228loPI   C5A 3643   8.742  16.681   7.786  0.1213  0.2173  0.0174
  228loPI   C6A 3644   8.706  16.249   7.631 -0.1750 -0.0160 -0.1338
  228loPI   C1B 3645   7.608  16.770   8.915 -0.1585  0.0516  0.0486
  228loPI   C2B 3646   7.671  16.756   8.490 -0.0754  0.1538  0.0004
  228loPI   C3B 3647   7.896  16.438   8.173 -0.0372  0.0389  0.2104
  228loPI   C4B 3648   8.167  16.188   7.853 -0.5883  0.2184  0.1588
  229loPI    C1 3649  16.080   4.421  10.099  0.0059  0.2675 -0.2142
  229loPI    C2 3650  16.357   4.695  10.191 -0.0782  0.3158 -0.1040
  229loPI    C3 3651  16.373   4.331  10.356 -0.0697  0.3126 -0.1119
  229loPI   PO4 3652  16.008   4.568   9.821  0.0740 -0.0088 -0.1596
  229loPI   GL1 3653  15.677   4.692   9.554  0.1544  0.0119 -0.1707
  229loPI   GL2 3654  15.712   5.014   9.489  0.0248  0.1795  0.1090
  229loPI   C1A 3655  15.773   4.687   9.080 -0.0397  0.2680  0.0058
  229loPI   C2A 3656  15.753   4.702   8.550  0.0103 -0.1317 -0.2396
  229loPI   C3A 3657  15.766   4.699   8.104  0.4009 -0.0716  0.2813
  229loPI   C4A 3658  15.940   4.717   7.571 -0.2912  0.0435 -0.0932
  229loPI   C5A 3659  16.364   5.004   7.533 -0.7310  0.2794 -0.1270
  229loPI   C6A 3660  16.759   5.247   7.633 -0.0381  0.4627  0.4415
  229loPI   C1B 3661  15.803   5.245   9.148  0.0763 -0.1267  0.1020
  229loPI   C2B 3662  16.018   5.489   8.816 -0.4876 -0.0089  0.1137
  229loPI   C3B 3663  16.119   5.366   8.416 -0.1633 -0.5591  0.2137
  229loPI   C4B 3664  16.181   5.328   7.947  0.0177  0.1235 -0.0555
  230loPI    C1 3665   7.493   3.100  10.128 -0.1984 -0.0803  0.0941
  230loPI    C2 3666   7.675   3.225  10.461  0.0649  0.0643 -0.1002
  230loPI    C3 3667   7.793   2.886  10.285 -0.0013  0.0446 -0.1069
  230loPI   PO4 3668   7.496   3.280   9.986  0.0593  0.0974 -0.1427
  230loPI   GL1 3669   7.637   3.564   9.636  0.1793 -0.4634 -0.3345
  230loPI   GL2 3670   7.802   3.793   9.681 -0.2045 -0.2873  0.3332
  230loPI   C1A 3671   7.449   3.574   9.250 -0.0368  0.0838  0.1615
  230loPI   C2A 3672   7.629   3.621   8.826  0.0090  0.0698  0.3507
  230loPI   C3A 3673   7.518   3.664   8.388 -0.0625  0.1419 -0.5688
  230loPI   C4A 3674   7.340   3.641   7.959 -0.1074  0.2763 -0.2189
  230loPI   C5A 3675   6.951   3.757   7.744 -0.0563  0.3974  0.2253
  230loPI   C6A 3676   6.656   3.619   7.884  0.1591  0.2246 -0.0312
  230loPI   C1B 3677   7.933   4.003   9.282 -0.0256 -0.0098 -0.1747
  230loPI   C2B 3678   8.127   4.284   8.933 -0.0850  0.0775 -0.1863
  230loPI   C3B 3679   8.060   4.505   8.541  0.1725  0.2283  0.0336
  230loPI   C4B 3680   7.958   4.626   8.171  0.0155 -0.0808  0.2776
  231loPI    C1 3681   2.667   1.362   9.965  0.0367  0.0066 -0.0294
  231loPI    C2 3682   2.834   1.020  10.086  0.0973 -0.0459 -0.2563
  231loPI    C3 3683   2.926   1.363  10.269 -0.1304 -0.1777  0.1159
  231loPI   PO4 3684   2.723   1.376   9.743  0.0924 -0.1049  0.1887
  231loPI   GL1 3685   2.950   1.652   9.414 -0.1555 -0.2559  0.2019
  231loPI   GL2 3686   2.668   1.541   9.236  0.4328  0.3562 -0.0998
  231loPI   C1A 3687   2.977   2.107   9.104 -0.1304 -0.4410 -0.2146
  231loPI   C2A 3688   2.915   2.090   8.602 -0.2325 -0.3216  0.0311
  231loPI   C3A 3689   2.746   2.127   8.288  0.1269 -0.0225  0.6227
  231loPI   C4A 3690   2.731   2.162   7.835 -0.2328 -0.0287  0.2173
  231loPI   C5A 3691   2.530   2.238   7.381  0.0739 -0.0172  0.0683
  231loPI   C6A 3692   2.622   2.419   6.931  0.0323  0.1257  0.1188
  231loPI   C1B 3693   2.540   1.883   9.055 -0.3363  0.2524 -0.1295
  231loPI   C2B 3694   2.270   1.992   8.625 -0.1382  0.3935  0.1296
  231loPI   C3B 3695   2.154   1.721   8.252  0.1896 -0.0348  0.0284
  231loPI   C4B 3696   1.918   1.249   8.232 -0.1130  0.0733 -0.0360
  232loPI    C1 3697   2.744  13.465  10.342  0.1010  0.1733  0.1403
  232loPI    C2 3698   2.476  13.530  10.631  0.0476  0.0831  0.1116
  232loPI    C3 3699   2.867  13.526  10.717  0.0285 -0.0172  0.1964
  232loPI   PO4 3700   2.606  13.535  10.140  0.1461  0.0227  0.1120
  232loPI   GL1 3701   2.593  13.890   9.989  0.1443  0.3311 -0.0474
  232loPI   GL2 3702   2.767  14.233   9.912  0.0926  0.2811 -0.2452
  232loPI   C1A 3703   2.383  13.736   9.618  0.2856  0.0972  0.0350
  232loPI   C2A 3704   2.218  13.593   9.187 -0.0399 -0.1004  0.0817
  232loPI   C3A 3705   2.295  13.605   8.885  0.2514  0.2455  0.0713
  232loPI   C4A 3706   2.184  13.594   8.507  0.1872  0.2280  0.2928
  232loPI   C5A 3707   2.304  13.514   8.121  0.0399  0.2153 -0.2275
  232loPI   C6A 3708   2.260  13.660   7.661 -0.3713 -0.1438 -0.4506
  232loPI   C1B 3709   2.765  14.034   9.536  0.3206 -0.0286 -0.3125
  232loPI   C2B 3710   2.695  14.097   9.148  0.1480  0.0903 -0.1644
  232loPI   C3B 3711   2.681  13.989   8.719  0.2372  0.2742  0.0298
  232loPI   C4B 3712   2.727  13.924   8.236  0.0296  0.0093 -0.0899
  233loPI    C1 3713   5.293  13.358  10.420 -0.0178  0.0675 -0.2980
  233loPI    C2 3714   5.157  13.598  10.709  0.0718 -0.0634 -0.1456
  233loPI    C3 3715   5.081  13.206  10.723  0.2957 -0.1091 -0.1617
  233loPI   PO4 3716   5.234  13.550  10.171 -0.0805 -0.1315 -0.0803
  233loPI   GL1 3717   4.811  13.544   9.850  0.2671 -0.0687  0.0432
  233loPI   GL2 3718   4.554  13.331   9.759  0.1758  0.1691  0.0280
  233loPI   C1A 3719   5.029  13.350   9.601  0.1283 -0.4113  0.0007
  233loPI   C2A 3720   5.397  13.138   9.616  0.0279  0.0759 -0.0741
  233loPI   C3A 3721   5.786  13.289   9.521 -0.1420  0.2540 -0.2170
  233loPI   C4A 3722   6.015  13.341   9.174 -0.1215 -0.2505 -0.0335
  233loPI   C5A 3723   5.874  13.156   8.729  0.4739  0.1248  0.1472
  233loPI   C6A 3724   6.046  13.058   8.310 -0.1017 -0.0489 -0.0696
  233loPI   C1B 3725   4.542  13.487   9.400  0.1387 -0.3091  0.3165
  233loPI   C2B 3726   4.496  13.434   8.957 -0.1670 -0.1625 -0.1031
  233loPI   C3B 3727   4.596  13.327   8.507  0.2897  0.1227 -0.2477
  233loPI   C4B 3728   4.917  13.435   8.278 -0.0670  0.2101 -0.1225
  234loPI    C1 3729   4.742   3.477   9.883 -0.1008 -0.1964 -0.1566
  234loPI    C2 3730   5.060   3.689  10.001 -0.2495 -0.0458 -0.0212
  234loPI    C3 3731   5.076   3.289  10.000  0.0328 -0.0376 -0.2780
  234loPI   PO4 3732   4.650   3.647   9.645  0.0065 -0.0098 -0.3349
  234loPI   GL1 3733   4.452   3.630   9.279 -0.0083 -0.0752  0.0716
  234loPI   GL2 3734   4.200   3.553   9.317 -0.3938 -0.0356 -0.1315
  234loPI   C1A 3735   4.717   3.405   9.012  0.0467  0.1995 -0.1066
  234loPI   C2A 3736   4.839   3.283   8.653  0.3277  0.3599  0.1544
  234loPI   C3A 3737   4.809   3.104   8.224 -0.1882  0.1130  0.4955
  234loPI   C4A 3738   4.849   3.385   7.813  0.1219  0.1590  0.5451
  234loPI   C5A 3739   5.220   3.570   7.532 -0.0475  0.2282  0.0367
  234loPI   C6A 3740   5.361   3.931   7.521 -0.0931 -0.2078 -0.2005
  234loPI   C1B 3741   4.229   3.279   8.946  0.3739  0.0160 -0.0129
  234loPI   C2B 3742   4.372   3.268   8.499 -0.1670 -0.0647 -0.0097
  234loPI   C3B 3743   4.380   3.283   8.047  0.0732  0.1543 -0.2023
  234loPI   C4B 3744   4.320   3.340   7.551 -0.1500 -0.0004 -0.0116
  235loPI    C1 3745  13.308  10.756  10.081  0.0063 -0.1762  0.1316
  235loPI    C2 3746  13.274  10.454  10.341  0.1299 -0.0742  0.2677
  235loPI    C3 3747  13.439  10.800  10.456  0.0063  0.0395  0.1074
  235loPI   PO4 3748  13.437  10.673   9.910  0.2453 -0.0687 -0.4625
  235loPI   GL1 3749  13.716  10.521   9.539 -0.0215 -0.3047 -0.2737
  235loPI   GL2 3750  13.669  10.230   9.568 -0.1221  0.0617  0.0258
  235loPI   C1A 3751  13.751  10.674   9.114  0.2932 -0.1564 -0.0523
  235loPI   C2A 3752  13.832  10.827   8.689 -0.2030  0.0934 -0.0271
  235loPI   C3A 3753  13.987  10.800   8.306  0.0014  0.4446  0.0145
  235loPI   C4A 3754  14.374  10.633   8.109 -0.0838 -0.1024 -0.0465
  235loPI   C5A 3755  14.553  10.627   7.685  0.4653  0.1631 -0.2767
  235loPI   C6A 3756  14.901  10.503   7.477 -0.0411  0.1911  0.1887
  235loPI   C1B 3757  13.623  10.240   9.116  0.2250  0.2054  0.0001
  235loPI   C2B 3758  13.604  10.382   8.699  0.0096  0.2691  0.0912
  235loPI   C3B 3759  13.576  10.538   8.292  0.1006  0.1295 -0.1370
  235loPI   C4B 3760  13.419  10.330   7.839  0.3050 -0.1843 -0.1833
  236loPI    C1 3761   0.605   3.462  10.099 -0.1608 -0.1067 -0.2036
  236loPI    C2 3762   0.944   3.267  10.018 -0.1331 -0.0888 -0.1311
  236loPI    C3 3763   0.678   3.108  10.271 -0.0956 -0.0172 -0.0466
  236loPI   PO4 3764   0.617   3.628   9.883  0.2283 -0.2727 -0.0192
  236loPI   GL1 3765   0.498   3.752   9.552 -0.0673 -0.1253  0.2263
  236loPI   GL2 3766   0.091   3.876   9.407 -0.5172 -0.0122  0.1513
  236loPI   C1A 3767   0.808   3.814   9.156 -0.0184  0.0799  0.1364
  236loPI   C2A 3768   0.826   3.508   8.751 -0.1097 -0.0728  0.0579
  236loPI   C3A 3769   0.777   3.245   8.378 -0.1681  0.1797  0.2198
  236loPI   C4A 3770   0.723   3.006   8.112  0.3980 -0.1053  0.2409
  236loPI   C5A 3771   0.506   2.825   7.762  0.0395  0.4012  0.0062
  236loPI   C6A 3772   0.153   2.547   7.526 -0.2763  0.2895  0.1010
  236loPI   C1B 3773   0.390   4.033   9.090  0.0567  0.5627 -0.1928
  236loPI   C2B 3774   0.450   4.007   8.755  0.0443 -0.0539  0.1404
  236loPI   C3B 3775   0.379   4.085   8.267 -0.3651 -0.1879 -0.3026
  236loPI   C4B 3776   0.283   4.049   7.835 -0.1119 -0.0894  0.1732
  237loPI    C1 3777  17.683  12.111  10.299 -0.1951 -0.3026  0.0238
  237loPI    C2 3778  17.562  11.990  10.660  0.0372  0.1100  0.2480
  237loPI    C3 3779  17.421  12.331  10.506  0.1032  0.0455  0.0418
  237loPI   PO4 3780  17.646  11.834  10.182 -0.0165 -0.2911 -0.0364
  237loPI   GL1 3781  17.711  11.709   9.766  0.0186  0.0343 -0.1208
  237loPI   GL2 3782  17.926  11.876   9.642  0.0234  0.0216  0.3988
  237loPI   C1A 3783  17.435  11.669   9.409  0.1139  0.1789  0.1093
  237loPI   C2A 3784  17.450  11.492   9.010  0.1342  0.0813  0.2093
  237loPI   C3A 3785  17.112  11.649   8.641  0.0140  0.0006 -0.1486
  237loPI   C4A 3786  17.151  11.876   8.266  0.0749  0.1013  0.2122
  237loPI   C5A 3787  17.013  11.976   7.953 -0.3953  0.1042 -0.2573
  237loPI   C6A 3788  16.810  12.002   7.620 -0.1781 -0.0328 -0.1556
  237loPI   C1B 3789  17.878  11.869   9.194 -0.0073 -0.0857 -0.0183
  237loPI   C2B 3790  17.764  11.864   8.788 -0.1747  0.0874 -0.2055
  237loPI   C3B 3791  17.577  11.683   8.442 -0.0703 -0.0154 -0.1454
  237loPI   C4B 3792  17.595  11.646   7.984 -0.0009  0.2480  0.1452
  238loPI    C1 3793   3.803  11.767  10.557  0.3570 -0.0443 -0.0586
  238loPI    C2 3794   3.885  11.507  10.849  0.1447  0.2332  0.2564
  238loPI    C3 3795   3.974  11.894  10.896 -0.1744  0.3310  0.0830
  238loPI   PO4 3796   3.788  11.648  10.298  0.0112  0.0579  0.1835
  238loPI   GL1 3797   3.825  11.306   9.997  0.0988  0.2356 -0.0220
  238loPI   GL2 3798   3.627  11.616   9.884  0.0151  0.0972  0.0146
  238loPI   C1A 3799   3.512  11.226   9.544  0.1196 -0.0584  0.5754
  238loPI   C2A 3800   3.327  11.536   9.160  0.1559 -0.1968 -0.0586
  238loPI   C3A 3801   3.339  11.947   8.833  0.0745 -0.2113  0.1800
  238loPI   C4A 3802   3.294  12.202   8.539  0.3682  0.0265  0.0206
  238loPI   C5A 3803   3.328  12.478   8.179  0.1428  0.1993 -0.0275
  238loPI   C6A 3804   3.094  12.850   8.023 -0.0116  0.2883  0.0838
  238loPI   C1B 3805   3.813  11.718   9.457  0.1388  0.1176  0.0258
  238loPI   C2B 3806   3.810  11.668   8.971 -0.1426  0.1685  0.0167
  238loPI   C3B 3807   3.633  11.573   8.607 -0.1078 -0.0806  0.1792
  238loPI   C4B 3808   3.551  11.511   8.125 -0.0654  0.2763  0.1168
  239loPI    C1 3809   2.566   2.194  10.040 -0.0344  0.1067 -0.1061
  239loPI    C2 3810   2.782   1.907   9.865 -0.0306  0.0724 -0.0453
  239loPI    C3 3811   2.636   1.851  10.233 -0.0656  0.1317 -0.0500
  239loPI   PO4 3812   2.337   2.252   9.790  0.1747 -0.0367 -0.0200
  239loPI   GL1 3813   2.141   2.290   9.481 -0.0219  0.1164  0.2413
  239loPI   GL2 3814   2.457   2.378   9.327  0.1613 -0.2468  0.0393
  239loPI   C1A 3815   1.992   2.150   9.119  0.0939 -0.0690  0.0339
  239loPI   C2A 3816   1.839   2.133   8.771 -0.1746  0.1853 -0.0586
  239loPI   C3A 3817   1.816   2.127   8.367  0.4013 -0.0113  0.0263
  239loPI   C4A 3818   1.854   2.228   7.868  0.2653 -0.2109 -0.3226
  239loPI   C5A 3819   2.144   2.452   7.517  0.3194  0.0297 -0.1363
  239loPI   C6A 3820   2.130   2.630   7.193 -0.0550 -0.3672 -0.3250
  239loPI   C1B 3821   2.523   2.328   8.807 -0.1491 -0.2229 -0.2140
  239loPI   C2B 3822   2.608   2.657   8.408  0.2573  0.0327 -0.1825
  239loPI   C3B 3823   2.627   2.602   7.980  0.1199  0.0693 -0.1310
  239loPI   C4B 3824   2.475   2.828   7.533  0.0433 -0.2302  0.0773
  240loPI    C1 3825   5.980  17.819   9.741  0.2196 -0.2784  0.3309
  240loPI    C2 3826   5.775  17.707  10.065 -0.2620 -0.2103  0.0591
  240loPI    C3 3827   5.758  17.486   9.732  0.1043 -0.1978  0.0288
  240loPI   PO4 3828   6.227  17.824   9.684 -0.1805  0.0858  0.1655
  240loPI   GL1 3829   6.489  17.862   9.311 -0.4550 -0.1746 -0.1912
  240loPI   GL2 3830   6.515  18.219   9.136 -0.0410  0.1693  0.3068
  240loPI   C1A 3831   6.506  17.688   8.955  0.1473 -0.2346  0.1952
  240loPI   C2A 3832   6.349  17.735   8.578  0.3065 -0.1629  0.1391
  240loPI   C3A 3833   6.484  17.467   8.145  0.3885  0.2371  0.1083
  240loPI   C4A 3834   6.687  17.174   7.902  0.2470  0.1674  0.1425
  240loPI   C5A 3835   6.905  16.746   7.728  0.0909 -0.1180  0.2141
  240loPI   C6A 3836   7.293  16.539   7.469 -0.0179  0.4105 -0.0291
  240loPI   C1B 3837   6.096  17.977   8.977  0.1469  0.1043 -0.0705
  240loPI   C2B 3838   5.968  17.527   8.914 -0.1632 -0.2277 -0.1323
  240loPI   C3B 3839   5.747  17.303   9.196 -0.1189  0.0232  0.0110
  240loPI   C4B 3840   5.503  17.185   9.541  0.2587  0.1353 -0.2993
  241loPI    C1 3841  13.810  11.306  10.395  0.2754 -0.0863 -0.0439
  241loPI    C2 3842  13.907  10.939  10.522 -0.1089 -0.1394  0.1105
  241loPI    C3 3843  13.649  11.162  10.732  0.1863  0.2568  0.0645
  241loPI   PO4 3844  13.630  11.181  10.153  0.2284  0.0870 -0.1025
  241loPI   GL1 3845  13.668  11.061   9.663  0.2333 -0.0181 -0.3993
  241loPI   GL2 3846  13.275  11.035   9.587  0.1823  0.1861 -0.1733
  241loPI   C1A 3847  13.674  11.164   9.230  0.1897 -0.2263  0.0588
  241loPI   C2A 3848  13.754  11.330   8.844  0.0921  0.0325  0.1577
  241loPI   C3A 3849  13.724  11.273   8.453 -0.1042 -0.1008  0.0716
  241loPI   C4A 3850  13.825  11.174   7.982 -0.0774 -0.0470 -0.0054
  241loPI   C5A 3851  13.705  10.937   7.557 -0.0827 -0.4386  0.0374
  241loPI   C6A 3852  13.660  10.414   7.454 -0.2289  0.2303  0.2908
  241loPI   C1B 3853  13.208  10.868   9.162  0.0733 -0.2272  0.0923
  241loPI   C2B 3854  13.324  11.059   8.805 -0.1421 -0.0710  0.1381
  241loPI   C3B 3855  13.318  10.933   8.448 -0.2543 -0.2356  0.3694
  241loPI   C4B 3856  13.436  10.897   7.941  0.4013 -0.0667  0.0351
  242loPI    C1 3857  12.241   2.532  10.063  0.0134 -0.0140  0.1449
  242loPI    C2 3858  12.608   2.679  10.123  0.0412 -0.0446  0.0503
  242loPI    C3 3859  12.322   2.913   9.971  0.0164 -0.0156  0.1412
  242loPI   PO4 3860  12.237   2.302   9.943 -0.2410  0.2951 -0.1352
  242loPI   GL1 3861  11.864   2.173   9.587  0.1332  0.1369  0.2842
  242loPI   GL2 3862  11.605   2.317   9.422  0.1842 -0.3194 -0.2000
  242loPI   C1A 3863  12.149   2.277   9.215  0.4169 -0.1436 -0.2769
  242loPI   C2A 3864  12.182   2.201   8.844 -0.3474  0.0033  0.1069
  242loPI   C3A 3865  12.247   2.238   8.412  0.4010  0.0431 -0.1166
  242loPI   C4A 3866  11.907   2.299   8.020  0.1036  0.1950  0.1320
  242loPI   C5A 3867  11.448   2.439   7.680 -0.3642  0.2077  0.2801
  242loPI   C6A 3868  11.308   2.753   7.517 -0.1918 -0.2748  0.0758
  242loPI   C1B 3869  11.331   2.432   9.085 -0.1406 -0.0962 -0.1275
  242loPI   C2B 3870  11.421   2.911   9.063  0.1064 -0.0002  0.0240
  242loPI   C3B 3871  11.539   2.955   8.705  0.0285  0.0408  0.1953
  242loPI   C4B 3872  11.472   3.195   8.387 -0.1639 -0.2756  0.1672
  243loPI    C1 3873  17.751  11.350  10.147  0.0842  0.3299 -0.0410
  243loPI    C2 3874  17.925  11.320  10.506 -0.0992 -0.1698  0.0134
  243loPI    C3 3875  17.542  11.430  10.478 -0.1432 -0.3262 -0.0115
  243loPI   PO4 3876  17.927  11.333   9.985 -0.1016  0.1686  0.0621
  243loPI   GL1 3877  17.990  11.279   9.497 -0.0305  0.0212 -0.1155
  243loPI   GL2 3878  17.876  11.412   9.386 -0.3283 -0.2568  0.1783
  243loPI   C1A 3879  17.641  10.921   9.275  0.1041  0.0384  0.3352
  243loPI   C2A 3880  17.646  10.983   8.909 -0.1455 -0.1197  0.1713
  243loPI   C3A 3881  17.786  11.147   8.556  0.0336  0.0076  0.2413
  243loPI   C4A 3882  17.853  11.238   8.109 -0.1690 -0.0492  0.0574
  243loPI   C5A 3883  17.929  11.379   7.713  0.1417  0.0150  0.4393
  243loPI   C6A 3884  17.649  11.418   7.415 -0.0247  0.1772 -0.2085
  243loPI   C1B 3885  17.945  11.407   8.998 -0.2497  0.4096 -0.2773
  243loPI   C2B 3886  18.032  11.556   8.556 -0.1185  0.3232  0.1348
  243loPI   C3B 3887  18.098  11.675   8.114 -0.1913 -0.0740  0.1355
  243loPI   C4B 3888  17.979  11.908   7.757  0.0070  0.3601  0.1072
  244loPI    C1 3889   0.721   2.803   9.716  0.0339 -0.0305 -0.0690
  244loPI    C2 3890   0.514   3.145   9.729  0.2989  0.1333 -0.0768
  244loPI    C3 3891   0.363   2.826   9.540 -0.1081  0.1344  0.2327
  244loPI   PO4 3892   1.069   2.879   9.628  0.1434 -0.0276 -0.3858
  244loPI   GL1 3893   1.232   2.586   9.350 -0.1680  0.1424  0.2336
  244loPI   GL2 3894   1.015   2.215   9.384  0.1829  0.1351  0.1818
  244loPI   C1A 3895   1.035   2.657   8.962 -0.2320 -0.3002  0.1791
  244loPI   C2A 3896   1.054   2.674   8.521 -0.1993 -0.0218  0.0562
  244loPI   C3A 3897   1.029   2.603   8.099 -0.1139 -0.1274  0.0300
  244loPI   C4A 3898   1.003   2.685   7.687  0.1461 -0.3903  0.0925
  244loPI   C5A 3899   0.943   3.044   7.392 -0.1181 -0.0534  0.0784
  244loPI   C6A 3900   1.293   3.107   7.056  0.1303  0.0413 -0.0436
  244loPI   C1B 3901   0.802   2.051   8.952 -0.0698 -0.3463  0.0616
  244loPI   C2B 3902   0.776   1.925   8.553  0.0377 -0.0132 -0.2063
  244loPI   C3B 3903   0.827   1.945   8.126  0.1043  0.1794 -0.3682
  244loPI   C4B 3904   0.882   2.174   7.822 -0.4385 -0.0918  0.3703
  245loPI    C1 3905  11.243  18.588  10.335  0.1485  0.0793  0.0560
  245loPI    C2 3906  11.004  18.317  10.506  0.1653 -0.0232 -0.0812
  245loPI    C3 3907  11.036  18.683  10.664  0.0315 -0.0551  0.0221
  245loPI   PO4 3908  11.214  18.485  10.080 -0.2673  0.1278 -0.3507
  245loPI   GL1 3909  11.073  18.308   9.722 -0.3061  0.1551  0.2283
  245loPI   GL2 3910  11.322  18.179   9.598  0.0096 -0.1207  0.0141
  245loPI   C1A 3911  10.910  18.320   9.322 -0.1283 -0.0714 -0.0093
  245loPI   C2A 3912  10.970  18.161   8.876  0.0266  0.0091  0.0471
  245loPI   C3A 3913  11.059  18.207   8.419  0.0627  0.1200 -0.4301
  245loPI   C4A 3914  10.971  18.281   8.044  0.0258 -0.2788  0.0460
  245loPI   C5A 3915  10.782  18.626   7.741 -0.2094 -0.3468  0.2299
  245loPI   C6A 3916  10.667  19.002   7.710  0.1166 -0.1758 -0.2297
  245loPI   C1B 3917  11.378  18.439   9.165  0.0586  0.0763  0.5391
  245loPI   C2B 3918  11.550  18.400   8.726 -0.0858 -0.0642  0.2979
  245loPI   C3B 3919  11.528  18.400   8.321  0.0363 -0.1645 -0.0124
  245loPI   C4B 3920  11.517  18.205   7.929 -0.0331 -0.0382 -0.0386
  246loPI    C1 3921  16.903  11.106  10.154  0.2822  0.0072 -0.0671
  246loPI    C2 3922  17.075  10.913  10.460  0.3472  0.1171 -0.0339
  246loPI    C3 3923  16.978  11.299  10.496  0.0247  0.0379 -0.0264
  246loPI   PO4 3924  17.009  11.047   9.844  0.0480 -0.2066  0.2973
  246loPI   GL1 3925  17.199  10.862   9.464  0.2350  0.1361  0.1858
  246loPI   GL2 3926  17.375  10.588   9.578 -0.1502 -0.0060  0.4174
  246loPI   C1A 3927  17.132  11.143   9.132  0.2143 -0.2691 -0.0832
  246loPI   C2A 3928  17.270  11.168   8.596  0.1661  0.1586 -0.1176
  246loPI   C3A 3929  17.357  11.189   8.182 -0.2894  0.2075 -0.1554
  246loPI   C4A 3930  17.306  11.226   7.768 -0.0180 -0.2997 -0.2666
  246loPI   C5A 3931  16.895  11.139   7.482  0.0230  0.0302 -0.1325
  246loPI   C6A 3932  16.762  10.961   7.102  0.1605 -0.1424 -0.0359
  246loPI   C1B 3933  17.357  10.569   9.074  0.1454 -0.1972  0.2915
  246loPI   C2B 3934  17.424  10.538   8.633 -0.2835  0.2518  0.0007
  246loPI   C3B 3935  17.398  10.623   8.194 -0.0799  0.1595  0.2285
  246loPI   C4B 3936  17.644  10.668   7.859  0.0344 -0.2058 -0.0031
  247loPI    C1 3937   8.024  10.418  10.847  0.0434  0.0069 -0.0965
  247loPI    C2 3938   8.362  10.210  10.895  0.0408 -0.0648 -0.3711
  247loPI    C3 3939   8.355  10.602  10.974  0.0548 -0.1560  0.1172
  247loPI   PO4 3940   7.965  10.390  10.563 -0.0316  0.0609  0.0393
  247loPI   GL1 3941   7.786  10.118  10.269 -0.3185  0.2795  0.0973
  247loPI   GL2 3942   7.887   9.961   9.954  0.1076 -0.2674 -0.0688
  247loPI   C1A 3943   7.357  10.062   9.987 -0.4727 -0.2711 -0.1750
  247loPI   C2A 3944   7.231  10.115   9.581 -0.3744  0.1123 -0.4877
  247loPI   C3A 3945   7.459  10.190   9.238  0.1173 -0.0848  0.1606
  247loPI   C4A 3946   7.559  10.282   8.795  0.1331 -0.1344 -0.1405
  247loPI   C5A 3947   7.618  10.333   8.339 -0.1588  0.0064 -0.2835
  247loPI   C6A 3948   7.942  10.178   8.044  0.1077  0.0442 -0.2727
  247loPI   C1B 3949   7.739  10.317   9.790  0.2756  0.3521  0.2198
  247loPI   C2B 3950   7.507  10.592   9.526  0.1216  0.1812  0.2375
  247loPI   C3B 3951   7.395  10.696   9.075 -0.0931  0.0367  0.2447
  247loPI   C4B 3952   7.427  10.780   8.657  0.1290 -0.0701  0.0144
  248loPI    C1 3953  10.835   2.647  10.169 -0.0628  0.0011 -0.0641
  248loPI    C2 3954  10.662   2.335  10.351  0.1244  0.0149  0.1415
  248loPI    C3 3955  10.934   2.555  10.545 -0.0963  0.3849  0.0430
  248loPI   PO4 3956  10.849   2.587   9.962  0.3286 -0.0396 -0.0611
  248loPI   GL1 3957  10.588   2.671   9.654  0.3980  0.1549 -0.3253
  248loPI   GL2 3958  10.328   2.890   9.753 -0.1232 -0.0251 -0.2561
  248loPI   C1A 3959  10.376   2.703   9.250  0.0673  0.2278 -0.2769
  248loPI   C2A 3960  10.222   3.021   8.931  0.1639 -0.0251 -0.3010
  248loPI   C3A 3961  10.279   3.146   8.518  0.0035  0.0540  0.1778
  248loPI   C4A 3962  10.326   3.269   8.124 -0.1420 -0.0418  0.3633
  248loPI   C5A 3963  10.087   3.421   7.839  0.2399 -0.1136  0.0831
  248loPI   C6A 3964  10.192   3.681   7.497  0.2688 -0.0238 -0.0371
  248loPI   C1B 3965   9.967   2.992   9.598 -0.1480 -0.0572  0.0749
  248loPI   C2B 3966   9.780   2.994   9.224  0.1896  0.2283  0.0266
  248loPI   C3B 3967   9.752   2.875   8.754  0.0133 -0.0517 -0.2076
  248loPI   C4B 3968   9.621   2.877   8.324 -0.0125  0.0639 -0.4123
  249loPI    C1 3969   1.711   0.925   9.362  0.0872 -0.0610 -0.1680
  249loPI    C2 3970   1.677   1.252   9.590  0.0974 -0.1909  0.0223
  249loPI    C3 3971   1.373   0.994   9.565  0.0633 -0.1328 -0.1833
  249loPI   PO4 3972   2.002   0.934   9.415  0.0918  0.3840 -0.2580
  249loPI   GL1 3973   2.325   0.979   9.228  0.0891 -0.1970 -0.0140
  249loPI   GL2 3974   2.163   1.213   9.014  0.0790  0.0316 -0.0763
  249loPI   C1A 3975   2.473   0.715   8.826 -0.2716  0.3757 -0.0397
  249loPI   C2A 3976   2.582   0.352   8.566 -0.3845  0.2386 -0.0254
  249loPI   C3A 3977   2.616   0.314   8.111 -0.1809 -0.0814  0.1730
  249loPI   C4A 3978   2.749   0.296   7.583 -0.0928 -0.1656 -0.2558
  249loPI   C5A 3979   2.985   0.290   7.235 -0.0655 -0.1790 -0.0411
  249loPI   C6A 3980   3.194   0.006   7.058 -0.1294 -0.0318  0.2125
  249loPI   C1B 3981   2.436   1.276   8.728 -0.1505 -0.2576 -0.2351
  249loPI   C2B 3982   2.456   1.299   8.319 -0.2042  0.4800 -0.1777
  249loPI   C3B 3983   2.297   1.093   7.950 -0.1002 -0.0018  0.2833
  249loPI   C4B 3984   2.007   0.968   7.649 -0.2313 -0.0777  0.2053
  250loPI    C1 3985  16.825  15.382  10.193  0.1922  0.0461 -0.0195
  250loPI    C2 3986  16.609  15.628  10.423  0.0088 -0.1339  0.0034
  250loPI    C3 3987  16.855  15.361  10.591 -0.1870 -0.3214 -0.0034
  250loPI   PO4 3988  16.823  15.623   9.999 -0.1717  0.0811  0.0880
  250loPI   GL1 3989  16.554  15.895   9.833  0.0653  0.0389  0.2152
  250loPI   GL2 3990  16.238  15.770   9.644 -0.1184  0.2854  0.2420
  250loPI   C1A 3991  16.676  15.807   9.373 -0.1059  0.1059  0.1037
  250loPI   C2A 3992  16.770  15.663   8.996  0.1550 -0.0559 -0.0893
  250loPI   C3A 3993  17.011  15.764   8.609 -0.3618 -0.2613 -0.0972
  250loPI   C4A 3994  16.997  15.989   8.285 -0.0358  0.2237 -0.1628
  250loPI   C5A 3995  17.055  15.974   7.878  0.2852  0.0332  0.1518
  250loPI   C6A 3996  16.865  15.768   7.581 -0.0555 -0.0989 -0.1917
  250loPI   C1B 3997  16.196  15.903   9.178 -0.2550 -0.2628  0.0836
  250loPI   C2B 3998  16.330  15.838   8.897 -0.2509  0.0921  0.3727
  250loPI   C3B 3999  16.458  15.741   8.446 -0.2010 -0.2468  0.2475
  250loPI   C4B 4000  16.711  15.578   8.126 -0.0092 -0.0924  0.1471
  251loPI    C1 4001  18.620   2.049   9.851 -0.1427  0.1810  0.1116
  251loPI    C2 4002  18.269   1.930  10.002 -0.0293 -0.4137 -0.0659
  251loPI    C3 4003  18.599   1.916  10.228 -0.0337 -0.3264 -0.0535
  251loPI   PO4 4004  18.509   1.965   9.598  0.2048 -0.3668  0.1725
  251loPI   GL1 4005  18.566   2.135   9.279 -0.3429 -0.1289 -0.1415
  251loPI   GL2 4006  18.892   2.160   9.059 -0.0935  0.1389  0.1538
  251loPI   C1A 4007  18.449   2.040   8.880 -0.1154  0.1462  0.1917
  251loPI   C2A 4008  18.401   2.049   8.484 -0.2347 -0.0031  0.2585
  251loPI   C3A 4009  18.129   1.857   8.172  0.1244  0.0503  0.2286
  251loPI   C4A 4010  18.032   2.002   7.799  0.1094 -0.0570  0.2404
  251loPI   C5A 4011  18.005   2.232   7.329  0.1154 -0.3391 -0.0766
  251loPI   C6A 4012  18.202   2.129   6.885  0.2711  0.3894  0.2288
  251loPI   C1B 4013  18.930   1.949   8.666  0.1704  0.2427  0.0836
  251loPI   C2B 4014  18.905   2.074   8.346  0.0844 -0.1303  0.1222
  251loPI   C3B 4015  18.655   1.807   8.049  0.0769 -0.0256 -0.0291
  251loPI   C4B 4016  18.425   1.686   7.736  0.3997 -0.2792 -0.1151
  252loPI    C1 4017   1.228  17.596   9.509  0.3629 -0.2466 -0.1354
  252loPI    C2 4018   1.151  17.704   9.886  0.0503  0.1335 -0.3019
  252loPI    C3 4019   1.510  17.557   9.790  0.1953  0.2085  0.1058
  252loPI   PO4 4020   1.153  17.768   9.347  0.0013  0.1289 -0.1108
  252loPI   GL1 4021   1.135  17.741   8.964  0.1550 -0.1070 -0.0119
  252loPI   GL2 4022   1.192  18.031   8.886  0.0054  0.5835 -0.2572
  252loPI   C1A 4023   1.209  17.713   8.484  0.0787 -0.1785 -0.1231
  252loPI   C2A 4024   1.273  17.795   8.067  0.0074  0.0841  0.0955
  252loPI   C3A 4025   1.265  17.669   7.645  0.1123 -0.1906 -0.2745
  252loPI   C4A 4026   1.560  17.602   7.394  0.0949 -0.1545  0.0968
  252loPI   C5A 4027   1.384  17.672   7.004 -0.0748  0.0917 -0.0976
  252loPI   C6A 4028   0.926  17.616   6.958  0.1490 -0.1479 -0.0369
  252loPI   C1B 4029   1.087  18.173   8.479 -0.2062 -0.1400 -0.2926
  252loPI   C2B 4030   1.002  18.316   8.055 -0.0398  0.0647  0.0646
  252loPI   C3B 4031   1.248  18.245   7.699 -0.4418 -0.0904  0.1021
  252loPI   C4B 4032   1.187  18.497   7.273 -0.2255 -0.0250 -0.2019
  253loPI    C1 4033  11.088  13.089  10.405 -0.2055 -0.0523  0.0223
  253loPI    C2 4034  11.292  13.109  10.749  0.0388 -0.0696 -0.1194
  253loPI    C3 4035  10.931  12.935  10.740  0.0580 -0.1250  0.1144
  253loPI   PO4 4036  11.198  13.000  10.155 -0.1194  0.0407 -0.0347
  253loPI   GL1 4037  11.028  12.834   9.798 -0.3635  0.1441 -0.1423
  253loPI   GL2 4038  10.903  12.511   9.774  0.1112  0.0626 -0.2462
  253loPI   C1A 4039  11.071  12.672   9.326 -0.1354  0.0071 -0.2737
  253loPI   C2A 4040  11.207  12.618   8.909 -0.1078 -0.2664 -0.2740
  253loPI   C3A 4041  11.018  12.488   8.523  0.1271 -0.0283  0.4313
  253loPI   C4A 4042  11.082  12.389   8.150  0.0826 -0.1456  0.0666
  253loPI   C5A 4043  11.312  12.027   7.997 -0.3247  0.2562 -0.2778
  253loPI   C6A 4044  11.331  11.524   7.794 -0.1586  0.3098 -0.1280
  253loPI   C1B 4045  10.811  12.244   9.405  0.0408  0.3637 -0.1840
  253loPI   C2B 4046  10.802  12.204   9.030  0.1865 -0.2394 -0.0531
  253loPI   C3B 4047  10.588  12.194   8.654 -0.0665 -0.3602  0.1743
  253loPI   C4B 4048  10.379  12.413   8.366  0.0427 -0.2387 -0.3066
  254loPI    C1 4049   0.541  15.462  10.371 -0.2787  0.0965  0.0164
  254loPI    C2 4050   0.559  15.643  10.728 -0.0753  0.0657  0.0228
  254loPI    C3 4051   0.751  15.297  10.669 -0.0628  0.0984 -0.1330
  254loPI   PO4 4052   0.515  15.614  10.175  0.3311 -0.0799  0.4594
  254loPI   GL1 4053   0.602  15.414   9.832  0.0700  0.0208  0.0907
  254loPI   GL2 4054   0.444  15.143   9.822 -0.0288 -0.1558  0.2811
  254loPI   C1A 4055   0.694  15.378   9.403 -0.2554  0.0720  0.0747
  254loPI   C2A 4056   0.764  15.463   8.881 -0.2545  0.0072  0.2292
  254loPI   C3A 4057   0.892  15.172   8.515 -0.0768 -0.2053  0.2887
  254loPI   C4A 4058   0.900  15.062   8.134 -0.0949  0.0267  0.0405
  254loPI   C5A 4059   0.960  15.234   7.797  0.1226  0.1524  0.3639
  254loPI   C6A 4060   0.931  15.027   7.446  0.0445 -0.0188  0.3349
  254loPI   C1B 4061   0.169  15.171   9.493  0.2748 -0.2876  0.0402
  254loPI   C2B 4062   0.015  15.307   9.070 -0.1960 -0.1180 -0.2108
  254loPI   C3B 4063   0.104  15.331   8.602  0.3500 -0.3649 -0.1394
  254loPI   C4B 4064   0.146  15.440   8.146  0.2599  0.4329 -0.2212
  255loPI    C1 4065  16.544  11.533  10.383  0.0325  0.0422  0.0557
  255loPI    C2 4066  16.603  11.915  10.486 -0.0494  0.0375  0.1212
  255loPI    C3 4067  16.674  11.623  10.750 -0.2002  0.0214  0.1449
  255loPI   PO4 4068  16.645  11.535  10.108 -0.0806  0.0433  0.1606
  255loPI   GL1 4069  16.849  11.568   9.781  0.0465 -0.3230 -0.0183
  255loPI   GL2 4070  16.963  11.431   9.544 -0.0069 -0.4208  0.0055
  255loPI   C1A 4071  16.788  11.904   9.488  0.1346 -0.0045  0.0222
  255loPI   C2A 4072  17.162  12.046   9.327  0.0306 -0.1496 -0.0059
  255loPI   C3A 4073  17.336  11.990   8.913 -0.0899 -0.4524  0.0759
  255loPI   C4A 4074  17.395  12.139   8.612  0.0310  0.0079 -0.0036
  255loPI   C5A 4075  17.346  12.353   8.013  0.3298  0.2300  0.0666
  255loPI   C6A 4076  17.511  12.048   7.697 -0.0184 -0.1837 -0.1355
  255loPI   C1B 4077  16.982  11.597   9.111 -0.0747  0.0962  0.0157
  255loPI   C2B 4078  16.834  12.052   8.840  0.1326  0.2372 -0.1546
  255loPI   C3B 4079  16.891  12.349   8.527 -0.3441  0.4805  0.2508
  255loPI   C4B 4080  16.820  12.611   8.216  0.1277 -0.1026 -0.2436
  256loPI    C1 4081  14.244   5.802  10.550  0.1261 -0.0063  0.0740
  256loPI    C2 4082  14.304   6.182  10.659  0.0284  0.0205  0.0356
  256loPI    C3 4083  13.934   6.053  10.580  0.0911 -0.0138 -0.2072
  256loPI   PO4 4084  14.416   5.735  10.198  0.1605 -0.0643  0.1249
  256loPI   GL1 4085  14.146   5.571   9.843  0.0806 -0.0514  0.0503
  256loPI   GL2 4086  14.327   5.454   9.636  0.2649 -0.0716  0.1354
  256loPI   C1A 4087  14.126   5.838   9.429  0.0839  0.4786 -0.1342
  256loPI   C2A 4088  14.272   5.936   9.144 -0.1782  0.1171  0.2805
  256loPI   C3A 4089  14.367   6.037   8.798  0.0044  0.0302 -0.0497
  256loPI   C4A 4090  14.230   6.325   8.504  0.0153  0.2238  0.3153
  256loPI   C5A 4091  14.310   6.332   8.035 -0.4236 -0.2066 -0.0976
  256loPI   C6A 4092  14.124   6.399   7.598  0.4020  0.2037 -0.1637
  256loPI   C1B 4093  14.288   5.419   9.257 -0.0462 -0.5678  0.0380
  256loPI   C2B 4094  14.303   5.517   8.764 -0.0228 -0.3617 -0.3089
  256loPI   C3B 4095  14.231   5.724   8.300  0.1931 -0.0752 -0.1545
  256loPI   C4B 4096  14.164   5.875   7.913  0.3546 -0.0793  0.0678
  257loPI    C1 4097   9.758  15.372  10.692 -0.1189  0.0681 -0.2696
  257loPI    C2 4098   9.863  15.073  10.935 -0.2347  0.0155 -0.2839
  257loPI    C3 4099   9.981  15.447  11.015 -0.2470 -0.0060 -0.1634
  257loPI   PO4 4100   9.661  15.308  10.511 -0.2084  0.0193 -0.2669
  257loPI   GL1 4101   9.596  14.980  10.207 -0.0393 -0.1062 -0.4870
  257loPI   GL2 4102   9.338  15.182  10.026  0.2279  0.2795 -0.1212
  257loPI   C1A 4103   9.763  14.761   9.842  0.0710 -0.0577 -0.0908
  257loPI   C2A 4104   9.637  14.578   9.324 -0.1403  0.5371 -0.0854
  257loPI   C3A 4105   9.496  14.642   8.893  0.2066 -0.2859  0.2656
  257loPI   C4A 4106   9.349  14.581   8.482 -0.0645 -0.0638  0.0311
  257loPI   C5A 4107   9.153  14.178   8.416  0.1825 -0.4466  0.0665
  257loPI   C6A 4108   9.266  13.798   8.180 -0.0409  0.0855 -0.1326
  257loPI   C1B 4109   9.331  14.875   9.656  0.2078 -0.1345  0.1205
  257loPI   C2B 4110   9.100  14.590   9.349 -0.1904  0.1290 -0.1426
  257loPI   C3B 4111   9.032  14.371   8.986 -0.4689  0.3731 -0.1727
  257loPI   C4B 4112   8.775  14.349   8.623  0.4581 -0.0737  0.0098
  258loPI    C1 4113  17.680   0.337   9.773 -0.2460 -0.1467 -0.0535
  258loPI    C2 4114  17.558   0.025   9.991 -0.0142 -0.0141  0.2727
  258loPI    C3 4115  17.541   0.395  10.143 -0.1654  0.1209 -0.0627
  258loPI   PO4 4116  17.888   0.223   9.666  0.0592  0.0444  0.0367
  258loPI   GL1 4117  17.775   0.253   9.194  0.1695  0.3487 -0.4643
  258loPI   GL2 4118  17.676   0.536   9.092 -0.1162  0.0784 -0.0643
  258loPI   C1A 4119  17.984   0.131   8.806  0.0037  0.0539 -0.0796
  258loPI   C2A 4120  18.098   0.203   8.388 -0.0015 -0.0654  0.0607
  258loPI   C3A 4121  18.325   0.546   8.184  0.3150 -0.1139 -0.0304
  258loPI   C4A 4122  18.404   0.825   7.893  0.0257 -0.4608  0.0233
  258loPI   C5A 4123  18.204   0.823   7.515  0.1518 -0.1139 -0.0725
  258loPI   C6A 4124  18.101   1.025   7.131 -0.2277 -0.1618  0.0763
  258loPI   C1B 4125  18.040   0.662   8.887 -0.2129  0.2395 -0.1867
  258loPI   C2B 4126  18.350   0.471   8.737 -0.1449 -0.2072 -0.0694
  258loPI   C3B 4127  18.640   0.131   8.785 -0.0754 -0.1846  0.0331
  258loPI   C4B 4128  18.848  -0.176   9.045 -0.2725  0.0929  0.2165
  259loPI    C1 4129  13.797  15.999  10.348  0.1027  0.1130 -0.1091
  259loPI    C2 4130  13.458  16.210  10.324  0.1505  0.1850 -0.1576
  259loPI    C3 4131  13.458  15.820  10.236  0.1021  0.2083 -0.2621
  259loPI   PO4 4132  13.986  15.983  10.152 -0.1666 -0.1361 -0.1095
  259loPI   GL1 4133  14.004  15.905   9.711 -0.0479  0.2043  0.1932
  259loPI   GL2 4134  14.139  15.588   9.736 -0.0916 -0.0955  0.0401
  259loPI   C1A 4135  13.640  15.889   9.354  0.2799 -0.1090 -0.1390
  259loPI   C2A 4136  13.652  15.793   8.961  0.5305 -0.0906  0.0516
  259loPI   C3A 4137  13.526  15.637   8.659 -0.0043  0.2437  0.1292
  259loPI   C4A 4138  13.722  15.685   8.272 -0.1756  0.1114 -0.0886
  259loPI   C5A 4139  13.583  15.715   7.803 -0.0747  0.0877  0.1390
  259loPI   C6A 4140  13.624  15.994   7.519  0.1606  0.4227 -0.2226
  259loPI   C1B 4141  14.090  15.720   9.236  0.1490 -0.1382  0.1852
  259loPI   C2B 4142  14.264  15.752   8.824  0.1252  0.0850 -0.0454
  259loPI   C3B 4143  14.250  15.767   8.320  0.2538 -0.1333 -0.2689
  259loPI   C4B 4144  14.069  15.885   7.867  0.1048 -0.0715 -0.1417
  260loPI    C1 4145   2.795   3.490  10.033 -0.0260  0.0241  0.0794
  260loPI    C2 4146   3.091   3.516  10.300  0.1924  0.0637 -0.1633
  260loPI    C3 4147   2.793   3.782  10.306  0.1193 -0.0212  0.1300
  260loPI   PO4 4148   2.959   3.359   9.761  0.0570  0.0892 -0.3136
  260loPI   GL1 4149   2.957   3.185   9.367  0.0362 -0.2642  0.3167
  260loPI   GL2 4150   2.683   2.902   9.319  0.1807 -0.1834 -0.1395
  260loPI   C1A 4151   2.887   3.216   8.979 -0.0849 -0.0675 -0.1187
  260loPI   C2A 4152   2.895   3.050   8.651  0.2451 -0.3276 -0.0346
  260loPI   C3A 4153   2.994   3.000   8.243  0.1592  0.1989 -0.0327
  260loPI   C4A 4154   2.885   3.043   7.888  0.1735 -0.2821  0.2897
  260loPI   C5A 4155   2.712   3.316   7.555  0.1508 -0.0296 -0.4096
  260loPI   C6A 4156   2.472   3.377   7.235  0.0941 -0.0398 -0.0643
  260loPI   C1B 4157   2.569   2.824   8.936 -0.1543  0.2313 -0.1717
  260loPI   C2B 4158   2.325   3.083   8.608 -0.0399  0.1255  0.0643
  260loPI   C3B 4159   1.965   3.020   8.452  0.1015  0.1690  0.0809
  260loPI   C4B 4160   1.692   3.079   8.111  0.1050 -0.1409  0.0354
  261loPI    C1 4161   1.071  12.541   9.945 -0.1817  0.1512  0.0284
  261loPI    C2 4162   0.836  12.296  10.158  0.2386 -0.1426  0.1678
  261loPI    C3 4163   1.226  12.322  10.242  0.2596  0.3501 -0.0481
  261loPI   PO4 4164   1.039  12.846   9.971 -0.2527  0.1824 -0.1104
  261loPI   GL1 4165   1.149  13.203   9.716  0.0251  0.3729 -0.4286
  261loPI   GL2 4166   1.335  12.971   9.580 -0.4637  0.0426 -0.0323
  261loPI   C1A 4167   0.940  13.416   9.384  0.1342  0.0198  0.4287
  261loPI   C2A 4168   0.851  13.544   8.969  0.2179 -0.2047 -0.1982
  261loPI   C3A 4169   0.779  13.661   8.578 -0.1964  0.0772 -0.0450
  261loPI   C4A 4170   0.874  13.725   8.182  0.3318 -0.2203  0.1487
  261loPI   C5A 4171   1.017  14.017   7.934  0.0756 -0.1665  0.0296
  261loPI   C6A 4172   1.141  14.295   7.678  0.0906 -0.3553  0.0330
  261loPI   C1B 4173   1.353  13.134   9.215 -0.1945  0.0187  0.3005
  261loPI   C2B 4174   1.349  13.435   8.987  0.0295 -0.3263  0.2279
  261loPI   C3B 4175   1.293  13.537   8.594  0.3583 -0.0863 -0.0033
  261loPI   C4B 4176   1.357  13.591   8.116  0.2965 -0.1781 -0.0800
  262loPI    C1 4177   5.555   3.153   9.690 -0.2153 -0.0048 -0.0632
  262loPI    C2 4178   5.621   3.024  10.063 -0.4601 -0.0348 -0.0284
  262loPI    C3 4179   5.547   3.411   9.995  0.0735  0.0605 -0.1084
  262loPI   PO4 4180   5.366   2.967   9.601 -0.1328  0.3053  0.2604
  262loPI   GL1 4181   5.281   2.978   9.249 -0.2315  0.1009  0.2663
  262loPI   GL2 4182   5.022   3.085   9.106 -0.1388 -0.3216 -0.1068
  262loPI   C1A 4183   5.601   2.871   8.922 -0.4121 -0.2515  0.1324
  262loPI   C2A 4184   5.712   2.613   8.525  0.0190  0.0041  0.0495
  262loPI   C3A 4185   5.625   2.333   8.144  0.2654 -0.2074  0.0211
  262loPI   C4A 4186   5.539   2.313   7.795 -0.0063  0.1152 -0.0855
  262loPI   C5A 4187   5.030   2.159   7.716  0.0487  0.0195 -0.1701
  262loPI   C6A 4188   4.562   2.132   7.634  0.0914  0.0262 -0.1309
  262loPI   C1B 4189   5.235   2.906   8.607  0.1274  0.1981  0.1557
  262loPI   C2B 4190   5.105   2.629   8.253  0.0219 -0.0628 -0.2025
  262loPI   C3B 4191   4.922   2.781   7.809  0.0957  0.1567  0.2960
  262loPI   C4B 4192   4.729   3.069   7.437 -0.1692  0.3526  0.1818
  263loPI    C1 4193   3.667   6.989  10.360  0.0688 -0.0808 -0.0525
  263loPI    C2 4194   3.709   6.594  10.317 -0.1022 -0.1260  0.1733
  263loPI    C3 4195   3.637   6.749  10.679  0.1663  0.1323  0.1203
  263loPI   PO4 4196   3.923   7.028  10.219 -0.0601 -0.0089 -0.0759
  263loPI   GL1 4197   3.961   7.215   9.944 -0.1674  0.0223 -0.0358
  263loPI   GL2 4198   4.052   7.533  10.057  0.2568 -0.1276 -0.0435
  263loPI   C1A 4199   3.911   6.996   9.509  0.1702  0.1425 -0.0681
  263loPI   C2A 4200   3.858   7.003   9.169  0.1640 -0.0588 -0.1346
  263loPI   C3A 4201   3.929   7.242   8.773  0.3817  0.0645 -0.2718
  263loPI   C4A 4202   4.018   7.287   8.411  0.2541 -0.1156  0.0453
  263loPI   C5A 4203   4.431   7.366   8.287  0.5413  0.0758  0.2048
  263loPI   C6A 4204   4.698   7.718   8.397 -0.1722 -0.1192  0.1177
  263loPI   C1B 4205   4.170   7.463   9.495  0.1165 -0.0721  0.0106
  263loPI   C2B 4206   4.140   7.511   9.129  0.3206 -0.1538 -0.0213
  263loPI   C3B 4207   4.268   7.607   8.763 -0.2219  0.0773  0.0990
  263loPI   C4B 4208   4.220   7.829   8.364 -0.1795  0.0059 -0.1066
  264loPI    C1 4209   9.632   6.983  10.329 -0.0504 -0.3031 -0.1364
  264loPI    C2 4210   9.974   6.823  10.462  0.1619  0.0877 -0.1955
  264loPI    C3 4211   9.788   7.104  10.677  0.0499  0.1082 -0.3178
  264loPI   PO4 4212   9.658   6.940  10.066 -0.0896 -0.1264 -0.2518
  264loPI   GL1 4213   9.659   6.589   9.750  0.2466  0.1653  0.1390
  264loPI   GL2 4214   9.740   6.409   9.438  0.2442  0.0701 -0.1137
  264loPI   C1A 4215   9.691   6.972   9.407 -0.0242  0.3474  0.1245
  264loPI   C2A 4216   9.991   6.910   9.126 -0.0530  0.1974  0.0796
  264loPI   C3A 4217  10.070   6.796   8.735 -0.1254 -0.0070  0.0788
  264loPI   C4A 4218  10.205   6.634   8.340  0.0801  0.2561 -0.0197
  264loPI   C5A 4219  10.283   6.557   7.922 -0.0052  0.0900  0.1142
  264loPI   C6A 4220  10.627   6.320   7.833 -0.1156  0.0728  0.1331
  264loPI   C1B 4221   9.851   6.383   9.014 -0.1492  0.2323  0.0678
  264loPI   C2B 4222   9.863   6.304   8.549  0.2234 -0.0363  0.0355
  264loPI   C3B 4223   9.840   6.306   8.087 -0.1790 -0.2606  0.0105
  264loPI   C4B 4224   9.775   6.542   7.754 -0.1325  0.1253  0.1197
  265loPI    C1 4225   1.744   6.678  10.384  0.1058  0.1037 -0.0521
  265loPI    C2 4226   1.811   7.005  10.605 -0.3159  0.1389  0.0326
  265loPI    C3 4227   1.664   6.674  10.776  0.3218 -0.1810 -0.0072
  265loPI   PO4 4228   1.983   6.675  10.198 -0.0393 -0.4459  0.0868
  265loPI   GL1 4229   1.878   6.668   9.766  0.0290 -0.0188  0.3123
  265loPI   GL2 4230   2.049   6.871   9.516 -0.1511  0.1661 -0.2321
  265loPI   C1A 4231   2.118   6.405   9.457  0.0125  0.2367 -0.2104
  265loPI   C2A 4232   2.231   6.465   9.020 -0.1351  0.2214 -0.0658
  265loPI   C3A 4233   2.448   6.298   8.729  0.0595  0.1987 -0.1808
  265loPI   C4A 4234   2.487   6.357   8.291 -0.1961  0.0930 -0.2044
  265loPI   C5A 4235   2.739   6.665   8.068  0.0939  0.0175  0.1641
  265loPI   C6A 4236   3.084   6.976   7.944  0.0136 -0.2267 -0.2987
  265loPI   C1B 4237   1.882   6.981   9.077 -0.1424  0.3560 -0.2752
  265loPI   C2B 4238   1.941   7.056   8.641 -0.0028 -0.1630  0.0174
  265loPI   C3B 4239   2.000   7.494   8.462  0.1932 -0.1885  0.1054
  265loPI   C4B 4240   2.098   7.568   8.038  0.0320 -0.1197 -0.1444
  266loPI    C1 4241   7.462   7.576  10.321  0.0942 -0.0326 -0.0712
  266loPI    C2 4242   7.702   7.812  10.537  0.0505 -0.1105  0.0639
  266loPI    C3 4243   7.317   7.773  10.637 -0.0847  0.2157 -0.3042
  266loPI   PO4 4244   7.416   7.641  10.089  0.0138 -0.1834  0.1583
  266loPI   GL1 4245   7.164   7.796   9.768  0.0140  0.0446 -0.1308
  266loPI   GL2 4246   7.329   7.589   9.569  0.0660 -0.0110 -0.2861
  266loPI   C1A 4247   7.194   7.934   9.291 -0.2336 -0.1771 -0.1228
  266loPI   C2A 4248   7.175   7.915   8.795  0.1774 -0.1172 -0.4470
  266loPI   C3A 4249   7.057   8.089   8.386 -0.2318  0.1746  0.0112
  266loPI   C4A 4250   6.870   8.449   8.189  0.2185 -0.0666  0.0191
  266loPI   C5A 4251   6.639   8.798   7.902 -0.3156 -0.1516  0.0298
  266loPI   C6A 4252   6.472   8.846   7.477  0.1449  0.0354 -0.0098
  266loPI   C1B 4253   7.149   7.463   9.158 -0.2849 -0.1053 -0.0478
  266loPI   C2B 4254   7.193   7.353   8.665  0.2950 -0.2051 -0.4576
  266loPI   C3B 4255   7.404   7.459   8.324  0.1498  0.2259  0.1722
  266loPI   C4B 4256   7.315   7.768   8.099  0.1057 -0.0338 -0.0557
  267loPI    C1 4257   8.075   7.953  10.211 -0.0099  0.3181  0.3369
  267loPI    C2 4258   8.415   8.062  10.032 -0.1169  0.0253 -0.0599
  267loPI    C3 4259   8.289   8.257  10.357  0.5330  0.0060  0.2199
  267loPI   PO4 4260   7.908   7.840   9.994 -0.1318 -0.0893  0.1090
  267loPI   GL1 4261   7.947   7.876   9.641 -0.5129  0.0692  0.1038
  267loPI   GL2 4262   7.824   7.558   9.518 -0.0842 -0.2990  0.1095
  267loPI   C1A 4263   8.208   8.248   9.475 -0.3967  0.1240  0.2882
  267loPI   C2A 4264   8.027   8.461   9.104 -0.3136 -0.1143 -0.2164
  267loPI   C3A 4265   7.954   8.696   8.760 -0.0886 -0.0376  0.0105
  267loPI   C4A 4266   7.678   8.609   8.413  0.2124 -0.3028 -0.3295
  267loPI   C5A 4267   7.365   8.445   8.143  0.1428 -0.1554 -0.0841
  267loPI   C6A 4268   7.360   8.163   7.828 -0.0451  0.1669 -0.2606
  267loPI   C1B 4269   7.620   7.604   9.059 -0.0223 -0.0437  0.3055
  267loPI   C2B 4270   7.636   7.622   8.748 -0.0110  0.1629  0.1609
  267loPI   C3B 4271   7.776   7.725   8.439 -0.1089 -0.1232 -0.1821
  267loPI   C4B 4272   7.808   7.776   7.950 -0.0645 -0.1261  0.1232
  268loPI    C1 4273  15.842   1.076   9.782  0.0194 -0.0290  0.0196
  268loPI    C2 4274  15.916   1.444   9.642 -0.0454 -0.0491 -0.0685
  268loPI    C3 4275  16.106   1.312   9.969 -0.0428  0.0729 -0.0201
  268loPI   PO4 4276  15.826   0.891   9.541 -0.3218  0.1008  0.1725
  268loPI   GL1 4277  15.817   0.979   9.156 -0.0246  0.0828 -0.2031
  268loPI   GL2 4278  15.588   1.298   9.270  0.0966  0.0573  0.2378
  268loPI   C1A 4279  16.060   0.899   8.715 -0.1201  0.1271 -0.2173
  268loPI   C2A 4280  16.002   0.901   8.255 -0.1368  0.0809 -0.1184
  268loPI   C3A 4281  15.920   0.765   7.847  0.0559  0.1142  0.2342
  268loPI   C4A 4282  15.817   0.920   7.387 -0.3839 -0.0331  0.0423
  268loPI   C5A 4283  16.051   1.090   6.984 -0.3658 -0.1225 -0.1057
  268loPI   C6A 4284  15.993   1.252   6.715 -0.0423  0.0583  0.2247
  268loPI   C1B 4285  15.589   1.393   8.937  0.0052  0.0148  0.1178
  268loPI   C2B 4286  15.687   1.170   8.657  0.2894  0.2313  0.0635
  268loPI   C3B 4287  15.598   1.179   8.217 -0.0032  0.1286  0.0334
  268loPI   C4B 4288  15.768   1.257   7.828 -0.0764 -0.1665 -0.1907
  269loPI    C1 4289   4.116   5.155  10.135 -0.2484 -0.0202  0.0344
  269loPI    C2 4290   4.049   5.297  10.503  0.0311  0.0789  0.0493
  269loPI    C3 4291   4.378   5.081  10.429  0.0352  0.1582 -0.1687
  269loPI   PO4 4292   4.122   5.378   9.893 -0.1371 -0.1409  0.0374
  269loPI   GL1 4293   3.897   5.711   9.855 -0.3971  0.2271 -0.1336
  269loPI   GL2 4294   4.021   6.030   9.683  0.1953  0.3031  0.2138
  269loPI   C1A 4295   3.720   5.604   9.441 -0.0441 -0.1552  0.0107
  269loPI   C2A 4296   3.772   5.635   9.053 -0.0107 -0.1462 -0.1616
  269loPI   C3A 4297   3.787   5.802   8.634  0.2122  0.0710 -0.0663
  269loPI   C4A 4298   3.619   6.053   8.266  0.5526  0.3010  0.3116
  269loPI   C5A 4299   3.295   6.153   7.919 -0.1798 -0.1956 -0.3166
  269loPI   C6A 4300   2.927   6.014   7.567  0.3482  0.4269  0.0386
  269loPI   C1B 4301   3.994   6.063   9.290 -0.1488  0.2338 -0.0130
  269loPI   C2B 4302   3.967   6.173   8.869 -0.0619 -0.0555 -0.0068
  269loPI   C3B 4303   4.058   6.262   8.500 -0.1509 -0.1387 -0.3085
  269loPI   C4B 4304   3.914   6.459   8.186 -0.0142  0.0890 -0.0736
  270loPI    C1 4305   1.462   8.984  10.284 -0.0803  0.3796 -0.2647
  270loPI    C2 4306   1.563   8.776  10.611 -0.0800  0.0157 -0.4906
  270loPI    C3 4307   1.746   9.122  10.529 -0.2808  0.2589  0.0424
  270loPI   PO4 4308   1.406   8.841  10.066 -0.2575 -0.1722  0.0328
  270loPI   GL1 4309   1.396   8.384   9.817  0.0954 -0.0611  0.0025
  270loPI   GL2 4310   1.672   8.481   9.714 -0.1912  0.0092 -0.0131
  270loPI   C1A 4311   1.397   8.232   9.379 -0.0353  0.1037 -0.2047
  270loPI   C2A 4312   1.587   8.194   8.976 -0.1070  0.3812 -0.1495
  270loPI   C3A 4313   1.494   8.256   8.594 -0.1134  0.3353 -0.0846
  270loPI   C4A 4314   1.300   8.267   8.225  0.0963  0.2146  0.2520
  270loPI   C5A 4315   0.953   8.135   7.988  0.1255  0.1333  0.0480
  270loPI   C6A 4316   0.629   7.905   7.762  0.3143 -0.1384 -0.1131
  270loPI   C1B 4317   1.881   8.382   9.362  0.3351 -0.1500  0.1930
  270loPI   C2B 4318   1.941   8.596   8.945  0.3529  0.1538  0.0766
  270loPI   C3B 4319   2.033   8.474   8.513  0.0649  0.0011 -0.1151
  270loPI   C4B 4320   2.243   8.669   8.085  0.1882 -0.0924 -0.0356
  271loPI    C1 4321  17.596  16.189  10.280  0.2867  0.1846  0.1878
  271loPI    C2 4322  17.344  16.206  10.591 -0.1297 -0.2128 -0.1154
  271loPI    C3 4323  17.594  15.896  10.552  0.0957 -0.0416 -0.0526
  271loPI   PO4 4324  17.424  16.245   9.975 -0.3804  0.0872 -0.0139
  271loPI   GL1 4325  17.630  16.304   9.501 -0.1571  0.1477  0.2284
  271loPI   GL2 4326  17.309  16.272   9.370  0.1429  0.0501 -0.1108
  271loPI   C1A 4327  17.947  16.346   9.212 -0.1033 -0.3152 -0.0997
  271loPI   C2A 4328  17.838  16.388   8.771  0.0146 -0.0879  0.3033
  271loPI   C3A 4329  17.853  16.328   8.348 -0.0121  0.1940  0.1119
  271loPI   C4A 4330  17.866  16.602   8.038 -0.7184  0.4078  0.2151
  271loPI   C5A 4331  17.984  16.726   7.731  0.1911 -0.2019  0.1067
  271loPI   C6A 4332  17.752  17.003   7.629 -0.1783 -0.1688 -0.0287
  271loPI   C1B 4333  17.281  16.332   8.908 -0.2288  0.3146 -0.1439
  271loPI   C2B 4334  17.383  16.370   8.488  0.1442 -0.0026 -0.2530
  271loPI   C3B 4335  17.421  16.430   8.111 -0.0857  0.0210 -0.0339
  271loPI   C4B 4336  17.401  16.447   7.653  0.0410 -0.2050  0.1890
  272loPI    C1 4337   5.906  15.713  10.566 -0.3164  0.1073  0.0687
  272loPI    C2 4338   5.951  16.004  10.836  0.1390 -0.1303  0.2612
  272loPI    C3 4339   5.860  15.633  10.955  0.2224 -0.2109  0.0768
  272loPI   PO4 4340   6.137  15.599  10.430 -0.1296 -0.0620  0.0120
  272loPI   GL1 4341   6.182  15.340  10.022  0.1480 -0.2790 -0.2399
  272loPI   GL2 4342   6.355  14.980   9.960 -0.0334 -0.2944 -0.4139
  272loPI   C1A 4343   6.097  15.373   9.593 -0.3918 -0.2125 -0.0168
  272loPI   C2A 4344   6.113  15.263   9.313 -0.0278 -0.1777 -0.0371
  272loPI   C3A 4345   6.286  15.413   8.920 -0.0366  0.0093  0.2967
  272loPI   C4A 4346   6.355  15.481   8.508 -0.1135  0.0089 -0.1086
  272loPI   C5A 4347   6.325  15.248   8.052  0.1389 -0.1491 -0.1985
  272loPI   C6A 4348   6.111  15.052   7.663 -0.1550 -0.0419 -0.1306
  272loPI   C1B 4349   6.291  14.788   9.647 -0.0918  0.1427 -0.0510
  272loPI   C2B 4350   5.936  14.804   9.307 -0.1216  0.1434  0.0324
  272loPI   C3B 4351   6.039  15.023   8.878  0.1805  0.0847 -0.0381
  272loPI   C4B 4352   6.019  14.976   8.404  0.0935 -0.3063  0.2962
  273loPI    C1 4353   0.689   6.644   9.825  0.2490 -0.2684  0.1477
  273loPI    C2 4354   0.756   6.380  10.119 -0.0139 -0.2038  0.2684
  273loPI    C3 4355   0.937   6.737  10.125  0.3609 -0.3865  0.0923
  273loPI   PO4 4356   0.774   6.463   9.548 -0.0075 -0.1133 -0.2336
  273loPI   GL1 4357   0.648   6.684   9.255 -0.1008  0.0718 -0.0668
  273loPI   GL2 4358   0.531   6.894   9.396 -0.1255 -0.0456 -0.0859
  273loPI   C1A 4359   0.988   6.671   8.919  0.1358 -0.2027 -0.2583
  273loPI   C2A 4360   0.985   6.691   8.513  0.1520 -0.1405  0.1021
  273loPI   C3A 4361   1.159   6.585   8.063  0.0546 -0.0134  0.1117
  273loPI   C4A 4362   1.028   6.626   7.673  0.2300  0.2368 -0.0782
  273loPI   C5A 4363   0.718   6.924   7.558  0.1684 -0.0204  0.1156
  273loPI   C6A 4364   0.290   7.242   7.340 -0.0947 -0.2149 -0.0208
  273loPI   C1B 4365   0.640   7.098   9.029  0.3824 -0.1622  0.0264
  273loPI   C2B 4366   0.519   6.835   8.685 -0.2096 -0.1075  0.0096
  273loPI   C3B 4367   0.417   6.585   8.354 -0.5099 -0.4182 -0.0496
  273loPI   C4B 4368   0.606   6.475   7.955  0.4098 -0.3653  0.2159
  274loPI    C1 4369   8.277   4.309  10.194 -0.0861 -0.0186  0.0987
  274loPI    C2 4370   8.301   3.960   9.998  0.0816 -0.0675  0.2041
  274loPI    C3 4371   8.219   3.965  10.390  0.0305  0.0144  0.1926
  274loPI   PO4 4372   8.465   4.454   9.981  0.2161 -0.3158  0.0505
  274loPI   GL1 4373   8.669   4.666   9.585 -0.1045  0.3199 -0.4460
  274loPI   GL2 4374   8.730   4.771   9.374 -0.4239  0.3637  0.0489
  274loPI   C1A 4375   8.629   4.372   9.154  0.1171  0.2148 -0.0343
  274loPI   C2A 4376   8.630   4.472   8.731  0.0875 -0.1562  0.0231
  274loPI   C3A 4377   8.455   4.667   8.341  0.0004  0.2476  0.2334
  274loPI   C4A 4378   8.453   4.974   8.008  0.0657 -0.1855  0.0578
  274loPI   C5A 4379   8.480   5.372   7.832 -0.2080 -0.0610 -0.1088
  274loPI   C6A 4380   8.659   5.395   7.449  0.2395 -0.2577 -0.0825
  274loPI   C1B 4381   8.692   4.848   9.069  0.1248 -0.0548 -0.2804
  274loPI   C2B 4382   8.662   4.966   8.672  0.1615 -0.2516  0.1743
  274loPI   C3B 4383   8.955   5.153   8.432  0.0490  0.5367 -0.2064
  274loPI   C4B 4384   9.068   5.548   8.268  0.1523  0.1332  0.1672
  275loPI    C1 4385  14.778   5.226  10.063  0.0632  0.1350 -0.1130
  275loPI    C2 4386  15.116   5.361  10.230  0.0684  0.1155 -0.1079
  275loPI    C3 4387  15.079   4.973  10.138  0.1337  0.1571 -0.3146
  275loPI   PO4 4388  14.761   5.470   9.916 -0.1662  0.1595  0.0981
  275loPI   GL1 4389  14.814   5.595   9.584  0.1959  0.4980 -0.0057
  275loPI   GL2 4390  14.607   5.841   9.511  0.0200 -0.1143  0.1503
  275loPI   C1A 4391  15.081   5.859   9.324 -0.0146 -0.3783  0.3838
  275loPI   C2A 4392  15.231   6.109   8.979  0.0039 -0.2171 -0.5729
  275loPI   C3A 4393  15.212   6.146   8.485 -0.1314  0.0094  0.1670
  275loPI   C4A 4394  15.249   5.999   7.928  0.0565 -0.1674  0.2961
  275loPI   C5A 4395  15.542   6.038   7.559 -0.0413  0.0190 -0.1544
  275loPI   C6A 4396  15.718   6.394   7.409 -0.1369 -0.1107  0.1759
  275loPI   C1B 4397  14.673   5.669   9.102  0.0030  0.2223  0.1322
  275loPI   C2B 4398  14.867   5.834   8.752 -0.2172  0.1203 -0.2317
  275loPI   C3B 4399  14.706   5.839   8.473  0.4383 -0.0175 -0.0805
  275loPI   C4B 4400  14.666   5.859   7.986  0.0425 -0.2899 -0.0119
  276loPI    C1 4401  13.454   0.750   9.839  0.2033 -0.0166  0.0080
  276loPI    C2 4402  13.136   0.596  10.027  0.0946  0.2845  0.0756
  276loPI    C3 4403  13.442   0.745  10.238  0.1030  0.3564  0.0133
  276loPI   PO4 4404  13.385   0.781   9.611 -0.2695  0.2011  0.3743
  276loPI   GL1 4405  13.485   1.105   9.351  0.2144 -0.2372  0.0589
  276loPI   GL2 4406  13.715   0.884   9.269 -0.3694 -0.0879 -0.0521
  276loPI   C1A 4407  13.600   0.995   8.845 -0.3252 -0.0005  0.3944
  276loPI   C2A 4408  13.533   1.019   8.463  0.3060  0.2742  0.2252
  276loPI   C3A 4409  13.357   1.070   7.988 -0.0905  0.1875 -0.1839
  276loPI   C4A 4410  13.288   1.137   7.571  0.1101 -0.0933 -0.0836
  276loPI   C5A 4411  12.933   1.017   7.270 -0.0986  0.0864  0.0390
  276loPI   C6A 4412  12.532   0.855   7.425  0.4294 -0.0807  0.1481
  276loPI   C1B 4413  13.774   0.524   8.940 -0.0881 -0.1231 -0.0978
  276loPI   C2B 4414  14.016   0.490   8.597 -0.2215  0.2478 -0.1990
  276loPI   C3B 4415  14.331   0.364   8.285 -0.2990  0.3333 -0.1949
  276loPI   C4B 4416  14.477  -0.000   7.901 -0.4093  0.2188 -0.1018
  277loPI    C1 4417  15.708   9.106  10.223 -0.1408 -0.1329 -0.0519
  277loPI    C2 4418  15.369   9.317  10.202 -0.0745 -0.0495 -0.3178
  277loPI    C3 4419  15.595   9.335  10.531 -0.1143  0.2265 -0.3034
  277loPI   PO4 4420  15.788   9.170  10.044 -0.3070 -0.1668 -0.0587
  277loPI   GL1 4421  15.781   8.957   9.639 -0.3109 -0.0887  0.1307
  277loPI   GL2 4422  16.028   8.848   9.494 -0.1521 -0.0523 -0.1266
  277loPI   C1A 4423  15.980   9.189   9.160  0.0313 -0.1481  0.0988
  277loPI   C2A 4424  16.031   9.257   8.702 -0.2928  0.0038 -0.1294
  277loPI   C3A 4425  16.059   9.342   8.253  0.0520 -0.2352 -0.0335
  277loPI   C4A 4426  15.947   9.184   7.831 -0.1114  0.0570 -0.0880
  277loPI   C5A 4427  15.744   9.080   7.395 -0.2094 -0.0861 -0.0284
  277loPI   C6A 4428  15.738   9.029   6.959  0.2363  0.0163  0.2787
  277loPI   C1B 4429  15.989   8.561   9.217 -0.1986  0.3689 -0.0141
  277loPI   C2B 4430  16.086   8.417   8.795  0.2776 -0.2552 -0.1680
  277loPI   C3B 4431  15.940   8.466   8.353  0.0630  0.1449  0.0870
  277loPI   C4B 4432  15.813   8.268   7.972 -0.0222  0.0300  0.0750
  278loPI    C1 4433   7.008   5.200  10.366  0.0552  0.0929  0.0291
  278loPI    C2 4434   6.961   5.514  10.610  0.1511  0.1183  0.0153
  278loPI    C3 4435   6.874   5.145  10.739 -0.0159  0.1562  0.0131
  278loPI   PO4 4436   7.237   5.317  10.135  0.1941 -0.0743  0.0413
  278loPI   GL1 4437   7.275   5.516   9.658  0.0257  0.0619 -0.0705
  278loPI   GL2 4438   7.319   5.767   9.534 -0.0381 -0.3364 -0.2079
  278loPI   C1A 4439   7.290   5.449   9.166  0.2227  0.2399 -0.1642
  278loPI   C2A 4440   7.292   5.542   8.807  0.2837 -0.0762  0.1227
  278loPI   C3A 4441   7.255   5.312   8.417 -0.0474 -0.1174  0.0281
  278loPI   C4A 4442   7.016   5.119   8.070  0.2143 -0.2241  0.1734
  278loPI   C5A 4443   7.076   4.857   7.819 -0.1429  0.2209 -0.0951
  278loPI   C6A 4444   7.080   4.378   7.623  0.0141 -0.0840 -0.2525
  278loPI   C1B 4445   7.167   5.934   9.161 -0.0150  0.0837 -0.0229
  278loPI   C2B 4446   7.121   5.970   8.694 -0.0763 -0.0084  0.1036
  278loPI   C3B 4447   7.166   5.852   8.345  0.2466 -0.1044  0.1214
  278loPI   C4B 4448   7.203   5.653   8.033 -0.0587  0.2613  0.0172
  279loPI    C1 4449  13.926   0.024   9.715 -0.1669 -0.0998  0.0838
  279loPI    C2 4450  13.756   0.255   9.994 -0.0088  0.2069 -0.0682
  279loPI    C3 4451  14.139   0.145  10.032 -0.1203 -0.1463  0.0702
  279loPI   PO4 4452  13.755  -0.268   9.663 -0.2890 -0.2683  0.3636
  279loPI   GL1 4453  13.880  -0.500   9.304  0.1554 -0.3379 -0.1184
  279loPI   GL2 4454  13.705  -0.412   9.100  0.2374 -0.2244  0.2715
  279loPI   C1A 4455  13.903  -0.866   9.111 -0.0007 -0.3502 -0.1577
  279loPI   C2A 4456  13.956  -1.065   8.765 -0.2530 -0.2185  0.0440
  279loPI   C3A 4457  13.917  -0.981   8.354 -0.0491 -0.1382  0.3900
  279loPI   C4A 4458  13.902  -0.661   8.089  0.0565 -0.1479  0.0044
  279loPI   C5A 4459  14.220  -0.423   8.228  0.1354 -0.1544 -0.5697
  279loPI   C6A 4460  14.455  -0.111   8.481  0.1585  0.1406  0.0758
  279loPI   C1B 4461  13.459  -0.175   8.799 -0.1936 -0.0546 -0.1380
  279loPI   C2B 4462  13.446   0.067   8.467 -0.1254 -0.1306  0.0494
  279loPI   C3B 4463  13.516  -0.023   7.957 -0.0954  0.0905  0.0767
  279loPI   C4B 4464  13.766   0.237   7.738  0.4174 -0.0855  0.3349
  280loPI    C1 4465   9.914  18.042  10.467 -0.1405 -0.2091 -0.1430
  280loPI    C2 4466  10.195  17.759  10.502  0.0685  0.0074 -0.0415
  280loPI    C3 4467   9.883  17.763  10.753 -0.0590 -0.2671 -0.1903
  280loPI   PO4 4468   9.820  18.060  10.199  0.1139 -0.2062  0.1643
  280loPI   GL1 4469   9.826  17.919   9.829  0.1690  0.1273  0.2236
  280loPI   GL2 4470   9.768  17.683   9.603 -0.3767  0.2025  0.0932
  280loPI   C1A 4471   9.900  18.110   9.302 -0.1989 -0.4322  0.0083
  280loPI   C2A 4472   9.981  18.174   8.876  0.0841 -0.1685  0.1579
  280loPI   C3A 4473  10.044  18.212   8.487  0.3544  0.3195  0.0770
  280loPI   C4A 4474  10.156  18.184   8.073  0.0492 -0.0227 -0.0984
  280loPI   C5A 4475  10.377  18.063   7.692  0.0852 -0.1010  0.0648
  280loPI   C6A 4476  10.673  17.627   7.694 -0.1265  0.2096  0.0590
  280loPI   C1B 4477   9.935  17.574   9.196 -0.3420  0.1150 -0.2267
  280loPI   C2B 4478   9.869  17.575   8.758 -0.1215  0.0799  0.1568
  280loPI   C3B 4479   9.758  17.691   8.327 -0.5494 -0.0336 -0.2173
  280loPI   C4B 4480   9.727  17.833   7.950  0.2250 -0.2020 -0.0699
  281loPI    C1 4481   6.238  17.034  10.368  0.1019  0.1548  0.0208
  281loPI    C2 4482   6.416  17.310  10.596  0.4806 -0.0961  0.0382
  281loPI    C3 4483   6.444  16.923  10.692 -0.2492 -0.1353  0.1524
  281loPI   PO4 4484   6.376  17.021  10.085 -0.2132 -0.0570 -0.0002
  281loPI   GL1 4485   6.545  17.178   9.721  0.0367 -0.1362 -0.1107
  281loPI   GL2 4486   6.546  17.479   9.646 -0.0006  0.0128  0.4691
  281loPI   C1A 4487   6.610  16.946   9.335 -0.0165  0.1991  0.0350
  281loPI   C2A 4488   6.622  16.767   8.960  0.1604  0.0689 -0.2688
  281loPI   C3A 4489   6.636  16.552   8.667  0.2002  0.1075  0.1815
  281loPI   C4A 4490   6.636  16.262   8.249  0.1844  0.0076 -0.1796
  281loPI   C5A 4491   6.716  16.299   7.767  0.4190 -0.3990  0.2045
  281loPI   C6A 4492   6.781  16.443   7.313  0.4338  0.0200 -0.2304
  281loPI   C1B 4493   6.313  17.348   9.308 -0.3230 -0.0388  0.1408
  281loPI   C2B 4494   6.409  17.200   8.911  0.0836 -0.3219 -0.1508
  281loPI   C3B 4495   6.560  17.097   8.496  0.1265 -0.0320  0.1065
  281loPI   C4B 4496   6.810  16.842   8.276  0.3002 -0.1180 -0.0757
  282loPI    C1 4497   4.493   1.410   9.989  0.1452 -0.0876 -0.0900
  282loPI    C2 4498   4.100   1.374  10.057  0.1468  0.2180  0.1011
  282loPI    C3 4499   4.363   1.237  10.326  0.1743 -0.0308 -0.0494
  282loPI   PO4 4500   4.492   1.664   9.763 -0.0947 -0.2266  0.0786
  282loPI   GL1 4501   4.771   1.639   9.392 -0.0360  0.0814 -0.0512
  282loPI   GL2 4502   4.610   1.335   9.305 -0.0140  0.0024  0.5145
  282loPI   C1A 4503   4.803   2.060   9.188 -0.1826  0.1347 -0.1602
  282loPI   C2A 4504   4.900   2.035   8.800 -0.2487 -0.1355 -0.3511
  282loPI   C3A 4505   4.729   2.310   8.521 -0.1152  0.1472  0.1024
  282loPI   C4A 4506   4.642   2.385   8.011 -0.1797 -0.1018 -0.3753
  282loPI   C5A 4507   4.365   2.717   7.793 -0.1784 -0.2806 -0.2014
  282loPI   C6A 4508   3.984   2.768   7.715 -0.0475 -0.0316  0.3632
  282loPI   C1B 4509   4.756   1.436   8.804  0.2456  0.1621 -0.3797
  282loPI   C2B 4510   4.945   1.353   8.274  0.3040 -0.1241 -0.0913
  282loPI   C3B 4511   5.079   1.323   7.827 -0.0967  0.0189  0.0365
  282loPI   C4B 4512   5.348   1.132   7.640  0.1065  0.2857 -0.3252
  283loPI    C1 4513   2.278  16.502   9.743 -0.2459  0.0982  0.2686
  283loPI    C2 4514   2.155  16.618  10.106 -0.1039 -0.2336  0.4264
  283loPI    C3 4515   2.212  16.230  10.028 -0.0530 -0.1587  0.0723
  283loPI   PO4 4516   2.543  16.629   9.615  0.2031  0.3788  0.0902
  283loPI   GL1 4517   2.582  16.874   9.297  0.0645  0.3174  0.0975
  283loPI   GL2 4518   2.358  17.018   9.160 -0.2575  0.2830 -0.0072
  283loPI   C1A 4519   2.784  17.139   8.935  0.2330  0.0702 -0.1304
  283loPI   C2A 4520   3.057  17.218   8.587 -0.0154 -0.2231  0.1450
  283loPI   C3A 4521   3.208  17.092   8.232  0.0013  0.1528  0.0064
  283loPI   C4A 4522   3.498  17.031   7.896  0.1146  0.3768 -0.0937
  283loPI   C5A 4523   3.649  17.086   7.482  0.0896 -0.2830 -0.2291
  283loPI   C6A 4524   3.873  16.996   7.178  0.0392 -0.4262 -0.0503
  283loPI   C1B 4525   2.356  16.697   8.864  0.3742 -0.1249  0.1199
  283loPI   C2B 4526   2.276  16.626   8.477  0.2665 -0.0422 -0.2704
  283loPI   C3B 4527   2.266  16.316   8.062 -0.0535  0.0280  0.0815
  283loPI   C4B 4528   2.131  16.384   7.594 -0.3104  0.1425  0.1159
  284loPI    C1 4529   2.003   1.899   9.810  0.0892 -0.1892  0.0248
  284loPI    C2 4530   2.248   1.645   9.998  0.0604 -0.1025  0.1811
  284loPI    C3 4531   2.130   1.981  10.180  0.3117  0.1573 -0.1235
  284loPI   PO4 4532   1.851   1.740   9.593 -0.1346 -0.0265 -0.0326
  284loPI   GL1 4533   1.748   1.659   9.229  0.3434 -0.3734  0.0836
  284loPI   GL2 4534   2.101   1.692   9.173 -0.0015 -0.0145 -0.1113
  284loPI   C1A 4535   1.508   1.337   8.976  0.0857 -0.2704  0.2369
  284loPI   C2A 4536   1.608   1.206   8.694 -0.4837 -0.3233 -0.0946
  284loPI   C3A 4537   1.575   0.929   8.422 -0.0388 -0.0140  0.3024
  284loPI   C4A 4538   1.668   0.754   7.975 -0.2421 -0.2036 -0.2884
  284loPI   C5A 4539   1.725   0.473   7.669  0.4377  0.1422  0.1336
  284loPI   C6A 4540   1.619   0.312   7.242  0.0138  0.0228 -0.0730
  284loPI   C1B 4541   2.010   1.612   8.842 -0.1066 -0.1113  0.1528
  284loPI   C2B 4542   1.741   1.658   8.546 -0.0384 -0.2401 -0.3291
  284loPI   C3B 4543   1.678   1.755   8.097 -0.0627  0.2924 -0.1190
  284loPI   C4B 4544   1.379   1.760   7.812  0.0360  0.1030 -0.1587
  285loPI    C1 4545  12.928   8.469  10.626 -0.1300 -0.0799 -0.1341
  285loPI    C2 4546  12.585   8.660  10.703 -0.0334  0.0008  0.1044
  285loPI    C3 4547  12.780   8.472  10.997  0.2045  0.0832  0.0020
  285loPI   PO4 4548  12.920   8.460  10.392 -0.1344  0.3587  0.0120
  285loPI   GL1 4549  12.758   8.279   9.979 -0.0366  0.0666 -0.0875
  285loPI   GL2 4550  12.633   8.016  10.110  0.0247 -0.0663  0.0635
  285loPI   C1A 4551  12.833   8.467   9.687 -0.3555 -0.0944 -0.2941
  285loPI   C2A 4552  12.981   8.496   9.251 -0.0097  0.0770  0.1997
  285loPI   C3A 4553  12.970   8.746   8.842  0.1119 -0.2549 -0.1471
  285loPI   C4A 4554  12.883   8.595   8.413 -0.0680  0.1059  0.0643
  285loPI   C5A 4555  12.999   8.387   7.923 -0.2079 -0.2786  0.3073
  285loPI   C6A 4556  12.908   8.442   7.482  0.1371 -0.0976 -0.2434
  285loPI   C1B 4557  12.534   7.791   9.688  0.0942 -0.2399 -0.0155
  285loPI   C2B 4558  12.442   7.860   9.355  0.0638  0.1973 -0.2983
  285loPI   C3B 4559  12.419   7.836   8.886 -0.1346 -0.0261 -0.0674
  285loPI   C4B 4560  12.275   7.964   8.488 -0.0210  0.0020  0.3360
  286loPI    C1 4561   5.583   1.172   9.894 -0.2906  0.0019  0.0124
  286loPI    C2 4562   5.754   1.003  10.214 -0.0723 -0.3360 -0.2751
  286loPI    C3 4563   5.361   0.963  10.153 -0.1696 -0.0184  0.1010
  286loPI   PO4 4564   5.691   1.100   9.732  0.0812  0.0759 -0.1239
  286loPI   GL1 4565   5.608   1.013   9.329 -0.4542  0.1933  0.0300
  286loPI   GL2 4566   5.897   0.875   9.310  0.1038 -0.2800  0.0289
  286loPI   C1A 4567   5.673   0.999   8.817 -0.0481  0.0915 -0.3096
  286loPI   C2A 4568   5.407   1.130   8.421  0.1296 -0.0586 -0.1541
  286loPI   C3A 4569   5.340   0.857   8.013  0.0875  0.2297 -0.0111
  286loPI   C4A 4570   5.223   0.441   7.857  0.0030 -0.1694  0.0499
  286loPI   C5A 4571   5.108   0.003   7.908  0.3484 -0.2107 -0.3149
  286loPI   C6A 4572   5.179  -0.062   8.272 -0.5512  0.2124 -0.0663
  286loPI   C1B 4573   6.194   0.554   9.198 -0.2101  0.4622 -0.2267
  286loPI   C2B 4574   6.277   0.384   8.919 -0.3909 -0.1291  0.0858
  286loPI   C3B 4575   6.321   0.429   8.514  0.0051 -0.1107  0.0766
  286loPI   C4B 4576   6.265   0.491   8.097 -0.3529  0.2777  0.2785
  287loPI    C1 4577   7.013  16.857  10.223  0.1109 -0.0592  0.0058
  287loPI    C2 4578   6.863  17.118  10.486 -0.0362  0.0002 -0.1354
  287loPI    C3 4579   6.991  16.760  10.610  0.1317  0.1236  0.0539
  287loPI   PO4 4580   6.978  16.941   9.964 -0.2325 -0.1065  0.1715
  287loPI   GL1 4581   7.032  16.912   9.541  0.0699 -0.0624 -0.0745
  287loPI   GL2 4582   7.169  16.612   9.491  0.3913  0.0682 -0.4034
  287loPI   C1A 4583   7.123  16.890   9.037 -0.0733  0.0262 -0.0774
  287loPI   C2A 4584   7.163  16.669   8.636  0.0857  0.3572 -0.1274
  287loPI   C3A 4585   7.353  16.552   8.155  0.2921  0.1784 -0.1328
  287loPI   C4A 4586   7.402  16.283   7.907  0.2005 -0.0498  0.0417
  287loPI   C5A 4587   7.567  16.020   7.529  0.0865  0.1210  0.0387
  287loPI   C6A 4588   7.611  15.671   7.359 -0.1130  0.1243  0.2293
  287loPI   C1B 4589   6.900  16.425   9.193  0.1026 -0.4020  0.2059
  287loPI   C2B 4590   6.897  16.120   8.927  0.3595 -0.2386  0.2893
  287loPI   C3B 4591   6.603  15.945   8.714  0.6106  0.0108  0.0848
  287loPI   C4B 4592   6.232  15.907   8.266  0.1519  0.2153 -0.0371
  288loPI    C1 4593   8.063   5.694  10.269  0.1242 -0.0914  0.1741
  288loPI    C2 4594   7.717   5.832  10.416 -0.0193 -0.1302 -0.1200
  288loPI    C3 4595   8.063   5.933  10.590 -0.1560  0.1781 -0.0206
  288loPI   PO4 4596   8.061   5.829  10.007 -0.2072  0.0519 -0.0924
  288loPI   GL1 4597   7.907   6.116   9.770  0.2682  0.1476  0.0091
  288loPI   GL2 4598   7.612   6.131   9.393 -0.1693 -0.0166 -0.1951
  288loPI   C1A 4599   8.098   5.980   9.360 -0.2046  0.1698  0.0641
  288loPI   C2A 4600   8.015   6.103   9.012  0.0846  0.1206  0.0541
  288loPI   C3A 4601   8.036   6.338   8.586 -0.3249  0.0624  0.1252
  288loPI   C4A 4602   8.003   6.441   8.079  0.3577 -0.1319 -0.1041
  288loPI   C5A 4603   7.937   6.897   7.965 -0.2324  0.3080  0.1048
  288loPI   C6A 4604   7.665   7.310   7.906  0.0188  0.2348  0.0805
  288loPI   C1B 4605   7.517   6.232   8.983 -0.2272 -0.1108 -0.2035
  288loPI   C2B 4606   7.459   6.338   8.588 -0.3958 -0.0273  0.1990
  288loPI   C3B 4607   7.180   6.334   8.215 -0.2044 -0.0100 -0.1486
  288loPI   C4B 4608   6.997   6.187   7.976 -0.0642 -0.1408  0.1301
  289loPI    C1 4609  12.652  17.981  10.114 -0.0188 -0.0052 -0.0184
  289loPI    C2 4610  12.769  17.680  10.351  0.1412  0.0286 -0.0535
  289loPI    C3 4611  12.431  17.879  10.432  0.1441 -0.0241  0.0898
  289loPI   PO4 4612  12.739  17.891   9.896 -0.2170  0.2379  0.0205
  289loPI   GL1 4613  12.699  17.761   9.513  0.1619  0.1248  0.2735
  289loPI   GL2 4614  12.858  17.981   9.387  0.2176 -0.1160 -0.2225
  289loPI   C1A 4615  12.995  17.488   9.285  0.0858  0.2426 -0.1385
  289loPI   C2A 4616  13.028  17.268   8.981 -0.0836 -0.3735 -0.2863
  289loPI   C3A 4617  13.137  17.290   8.574 -0.2337  0.0080  0.0074
  289loPI   C4A 4618  13.224  17.284   8.223 -0.1063  0.1921  0.5106
  289loPI   C5A 4619  13.278  17.293   7.808  0.0349  0.3202 -0.0263
  289loPI   C6A 4620  13.091  17.016   7.460 -0.1719 -0.1546 -0.1668
  289loPI   C1B 4621  12.774  17.756   8.948  0.1416  0.3032  0.3106
  289loPI   C2B 4622  12.808  17.776   8.461  0.0463  0.0172 -0.0473
  289loPI   C3B 4623  12.992  17.786   8.138 -0.0439 -0.0405  0.0466
  289loPI   C4B 4624  12.825  18.129   7.868 -0.1176  0.0127 -0.1090
  290loPI    C1 4625  10.428   7.415  10.233  0.0019 -0.0016  0.0594
  290loPI    C2 4626  10.041   7.318  10.257 -0.0107  0.0960  0.2745
  290loPI    C3 4627  10.299   7.182  10.531  0.1378 -0.1018  0.0407
  290loPI   PO4 4628  10.553   7.341   9.997  0.2307 -0.0127  0.1172
  290loPI   GL1 4629  10.386   7.120   9.705 -0.0455  0.0399 -0.1372
  290loPI   GL2 4630  10.131   7.041   9.844  0.3203 -0.2968  0.0849
  290loPI   C1A 4631  10.464   6.986   9.369  0.1427  0.0217  0.0907
  290loPI   C2A 4632  10.533   6.935   8.908  0.1488 -0.1090 -0.2257
  290loPI   C3A 4633  10.604   6.993   8.436 -0.0358 -0.0078  0.0937
  290loPI   C4A 4634  10.694   6.778   8.092 -0.1107  0.1440  0.3324
  290loPI   C5A 4635  10.934   6.740   7.820 -0.0015  0.4659  0.1902
  290loPI   C6A 4636  11.403   6.848   7.557 -0.1419 -0.3310  0.2158
  290loPI   C1B 4637  10.140   6.676   9.495 -0.1104  0.2217 -0.0062
  290loPI   C2B 4638  10.373   6.486   9.111 -0.1243 -0.3387  0.3034
  290loPI   C3B 4639  10.445   6.447   8.706 -0.1344  0.0199  0.1047
  290loPI   C4B 4640  10.322   6.175   8.278 -0.2102  0.2507  0.1663
  291loPI    C1 4641   5.956   8.206  10.350 -0.0811  0.0590 -0.1025
  291loPI    C2 4642   5.854   8.116  10.726  0.0541  0.0280 -0.0725
  291loPI    C3 4643   5.573   8.135  10.441 -0.0227 -0.1445 -0.0098
  291loPI   PO4 4644   6.170   8.080  10.313  0.1263 -0.2377  0.2397
  291loPI   GL1 4645   6.458   8.183  10.053  0.0104 -0.0108 -0.5247
  291loPI   GL2 4646   6.629   7.909   9.890 -0.2033  0.0663 -0.0737
  291loPI   C1A 4647   6.364   8.410   9.704  0.0164  0.2390 -0.0741
  291loPI   C2A 4648   6.374   8.477   9.331  0.3774  0.2936  0.0356
  291loPI   C3A 4649   6.198   8.440   8.911 -0.1625 -0.2867  0.0030
  291loPI   C4A 4650   5.959   8.459   8.569 -0.1945 -0.0110 -0.1023
  291loPI   C5A 4651   5.876   8.797   8.309 -0.1455  0.0188  0.0914
  291loPI   C6A 4652   6.058   8.880   7.893 -0.1709  0.0029 -0.0492
  291loPI   C1B 4653   6.727   8.158   9.425 -0.0931  0.0451  0.0444
  291loPI   C2B 4654   6.815   8.207   9.068  0.1062 -0.0612 -0.1228
  291loPI   C3B 4655   6.673   8.146   8.642  0.0671  0.0085  0.1802
  291loPI   C4B 4656   6.576   8.034   8.332  0.1749 -0.1117 -0.1735
  292loPI    C1 4657  17.903   5.162   9.949  0.0311  0.0127  0.0609
  292loPI    C2 4658  17.892   4.809  10.136 -0.1114  0.0575  0.1386
  292loPI    C3 4659  18.068   5.123  10.312  0.1193 -0.0027  0.0197
  292loPI   PO4 4660  17.702   5.138   9.781 -0.1175 -0.0166  0.0138
  292loPI   GL1 4661  17.429   5.149   9.465 -0.1520  0.1222 -0.1112
  292loPI   GL2 4662  17.195   4.952   9.589 -0.3468 -0.1264  0.2338
  292loPI   C1A 4663  17.428   5.074   8.998  0.0814  0.1426  0.2960
  292loPI   C2A 4664  17.472   5.051   8.594 -0.3174  0.1277 -0.3559
  292loPI   C3A 4665  17.508   5.388   8.269  0.0430  0.2164 -0.5299
  292loPI   C4A 4666  17.536   5.646   7.973  0.0250  0.1717  0.2587
  292loPI   C5A 4667  17.686   5.912   7.696  0.0340 -0.1764 -0.1237
  292loPI   C6A 4668  17.988   6.225   7.643  0.4216  0.0710 -0.0975
  292loPI   C1B 4669  16.933   4.894   9.200  0.1041 -0.2056 -0.0713
  292loPI   C2B 4670  16.934   4.985   8.793 -0.0485  0.2558  0.0552
  292loPI   C3B 4671  17.045   5.065   8.433 -0.0486 -0.0065 -0.0613
  292loPI   C4B 4672  17.079   5.198   8.025  0.0337 -0.1591 -0.1032
  293loPI    C1 4673   0.414  16.595  10.137  0.2084  0.2267 -0.1274
  293loPI    C2 4674   0.780  16.511  10.275  0.0915 -0.1168 -0.0171
  293loPI    C3 4675   0.643  16.887  10.286  0.3675 -0.0176  0.1158
  293loPI   PO4 4676   0.441  16.380   9.848 -0.2812  0.1356 -0.1053
  293loPI   GL1 4677   0.194  16.317   9.531 -0.0436  0.2684  0.0234
  293loPI   GL2 4678   0.211  16.609   9.332 -0.2662  0.1122  0.0058
  293loPI   C1A 4679   0.133  16.179   9.091 -0.2376 -0.1930 -0.1570
  293loPI   C2A 4680   0.185  16.331   8.734 -0.0251  0.2888  0.0528
  293loPI   C3A 4681   0.220  16.381   8.282  0.1611  0.1930  0.0411
  293loPI   C4A 4682   0.196  16.412   7.852 -0.0717 -0.0523 -0.2520
  293loPI   C5A 4683   0.115  16.345   7.439  0.5736 -0.0593 -0.0775
  293loPI   C6A 4684   0.151  16.016   7.169 -0.0085  0.1187  0.5282
  293loPI   C1B 4685   0.364  16.767   9.079 -0.3691 -0.2181 -0.2744
  293loPI   C2B 4686   0.396  16.952   8.666 -0.0733 -0.0217  0.3074
  293loPI   C3B 4687   0.645  16.994   8.239  0.0022 -0.2708  0.1853
  293loPI   C4B 4688   1.054  17.000   7.870  0.1061 -0.1787 -0.1283
  294loPI    C1 4689   9.149  11.230  10.176 -0.0181 -0.1090 -0.1303
  294loPI    C2 4690   8.796  11.313  10.009 -0.1385 -0.3770 -0.0154
  294loPI    C3 4691   8.832  11.307  10.407  0.1372  0.2196 -0.0200
  294loPI   PO4 4692   9.266  11.148  10.066 -0.0417  0.0057  0.0433
  294loPI   GL1 4693   9.186  10.730   9.758 -0.2111  0.0267 -0.0866
  294loPI   GL2 4694   8.869  10.860   9.787  0.1557 -0.2558 -0.2108
  294loPI   C1A 4695   9.331  10.638   9.302  0.3435 -0.0747  0.0669
  294loPI   C2A 4696   9.476  10.550   8.919  0.1613 -0.0705  0.4524
  294loPI   C3A 4697   9.505  10.207   8.622 -0.1409  0.1815 -0.0300
  294loPI   C4A 4698   9.283  10.093   8.331 -0.2541  0.2497 -0.2466
  294loPI   C5A 4699   8.833  10.216   8.257  0.3209  0.1861  0.2681
  294loPI   C6A 4700   8.399  10.053   8.388 -0.2203 -0.0286 -0.4451
  294loPI   C1B 4701   8.619  10.578   9.496 -0.1065  0.3725 -0.0586
  294loPI   C2B 4702   8.474  10.421   9.069  0.1128  0.0548  0.0546
  294loPI   C3B 4703   8.564  10.469   8.609  0.1181  0.4000 -0.1965
  294loPI   C4B 4704   8.609  10.760   8.292  0.0434 -0.2320 -0.0861
  295loPI    C1 4705   9.100   1.104   9.744 -0.2750 -0.2259 -0.1333
  295loPI    C2 4706   8.740   1.234   9.860 -0.1615  0.0812 -0.1151
  295loPI    C3 4707   8.983   1.056  10.123 -0.0713  0.3982  0.0203
  295loPI   PO4 4708   9.251   1.285   9.593  0.0072 -0.3033  0.1821
  295loPI   GL1 4709   9.373   1.390   9.311 -0.0765  0.3676 -0.3025
  295loPI   GL2 4710   9.353   1.283   9.123 -0.0923 -0.0954  0.0954
  295loPI   C1A 4711   9.383   1.680   8.909 -0.0679 -0.1484 -0.2386
  295loPI   C2A 4712   9.455   1.887   8.475  0.0969 -0.3294  0.1289
  295loPI   C3A 4713   9.524   1.949   8.172 -0.5289  0.1899  0.1446
  295loPI   C4A 4714   9.602   1.898   7.688  0.3189 -0.1262  0.2217
  295loPI   C5A 4715   9.901   1.699   7.502 -0.1347  0.3086 -0.0276
  295loPI   C6A 4716  10.152   1.311   7.557 -0.0837 -0.2381  0.1264
  295loPI   C1B 4717   9.380   1.274   8.587 -0.0021  0.1994 -0.1787
  295loPI   C2B 4718   9.521   1.071   8.171 -0.0840  0.0808 -0.0467
  295loPI   C3B 4719   9.894   0.929   7.895  0.3946 -0.1450  0.3020
  295loPI   C4B 4720  10.193   0.852   7.520  0.0156  0.0384  0.0742
  296loPI    C1 4721   8.343  16.501  10.215 -0.0401 -0.1484  0.0847
  296loPI    C2 4722   8.657  16.740  10.275 -0.0262 -0.1728  0.1100
  296loPI    C3 4723   8.323  16.794  10.487 -0.0482 -0.1302  0.0647
  296loPI   PO4 4724   8.227  16.519  10.040  0.2608  0.1313 -0.1129
  296loPI   GL1 4725   8.318  16.603   9.675 -0.3728 -0.2474 -0.0243
  296loPI   GL2 4726   8.387  16.350   9.535  0.0050 -0.0052  0.2450
  296loPI   C1A 4727   8.302  16.784   9.220 -0.0239  0.1791 -0.0012
  296loPI   C2A 4728   8.550  16.853   8.946  0.0065  0.1706  0.0203
  296loPI   C3A 4729   8.610  16.825   8.611 -0.1670 -0.4061 -0.1314
  296loPI   C4A 4730   8.705  16.969   8.227  0.1798 -0.4776  0.1943
  296loPI   C5A 4731   8.799  17.195   7.850  0.0860 -0.3672 -0.0177
  296loPI   C6A 4732   8.680  17.542   7.469  0.3017 -0.4187  0.1210
  296loPI   C1B 4733   8.512  16.166   9.125 -0.1356  0.1782  0.1559
  296loPI   C2B 4734   8.697  15.975   8.897 -0.0128 -0.2745  0.3490
  296loPI   C3B 4735   8.692  16.046   8.517  0.0526 -0.1536  0.2115
  296loPI   C4B 4736   8.686  15.944   8.038  0.2035  0.3333 -0.1176
  297loPI    C1 4737   8.942  11.958  10.389  0.0101  0.1052 -0.0361
  297loPI    C2 4738   8.762  11.754  10.682 -0.1852  0.1688 -0.1098
  297loPI    C3 4739   8.988  12.073  10.769  0.1222 -0.0761  0.0058
  297loPI   PO4 4740   9.001  11.714  10.227  0.0652 -0.0304 -0.3203
  297loPI   GL1 4741   8.773  11.845   9.852 -0.1540 -0.0067  0.1375
  297loPI   GL2 4742   9.058  11.817   9.746  0.1139 -0.1182 -0.0849
  297loPI   C1A 4743   8.828  11.471   9.491 -0.2532 -0.1889 -0.2583
  297loPI   C2A 4744   8.730  11.471   8.998 -0.2991 -0.0833 -0.0962
  297loPI   C3A 4745   8.466  11.461   8.656  0.3297 -0.1654 -0.3853
  297loPI   C4A 4746   8.195  11.778   8.508  0.1682 -0.1378  0.2350
  297loPI   C5A 4747   8.110  11.936   8.043  0.0291  0.0381 -0.0331
  297loPI   C6A 4748   7.859  12.150   7.914 -0.1743  0.0272  0.1056
  297loPI   C1B 4749   8.780  11.995   9.334 -0.0303  0.0468 -0.3854
  297loPI   C2B 4750   8.590  11.935   8.869 -0.1095 -0.0098 -0.0344
  297loPI   C3B 4751   8.676  11.832   8.468 -0.2175 -0.2407 -0.3970
  297loPI   C4B 4752   8.569  12.017   8.093 -0.5010 -0.5813 -0.1010
  298loPI    C1 4753   3.272   0.150   9.582  0.0184 -0.0298 -0.2773
  298loPI    C2 4754   3.194   0.513   9.432  0.0232  0.0283 -0.1410
  298loPI    C3 4755   2.902   0.301   9.606  0.0375 -0.0011 -0.1526
  298loPI   PO4 4756   3.498   0.109   9.524 -0.2397  0.0262 -0.3930
  298loPI   GL1 4757   3.599   0.435   9.178  0.2438  0.0312 -0.0280
  298loPI   GL2 4758   3.265   0.141   9.059 -0.0582 -0.3270  0.0228
  298loPI   C1A 4759   3.678   0.364   8.791  0.0992  0.2300  0.0961
  298loPI   C2A 4760   3.520   0.235   8.400  0.0524 -0.0348  0.1794
  298loPI   C3A 4761   3.561   0.006   8.041 -0.1320  0.2118 -0.0283
  298loPI   C4A 4762   3.845  -0.122   7.750 -0.0030 -0.4404  0.3090
  298loPI   C5A 4763   4.171  -0.366   7.691  0.0420  0.0807  0.1400
  298loPI   C6A 4764   4.486  -0.617   7.762  0.0557 -0.3161  0.0975
  298loPI   C1B 4765   3.376  -0.213   8.793 -0.1991  0.1715  0.2576
  298loPI   C2B 4766   3.489  -0.344   8.411 -0.1471  0.0780 -0.1722
  298loPI   C3B 4767   3.637  -0.478   8.007  0.3641 -0.2370 -0.3367
  298loPI   C4B 4768   3.675  -0.544   7.554  0.0525 -0.0568  0.1446
  299loPI    C1 4769  18.244   9.086   9.979  0.1400 -0.0882 -0.1512
  299loPI    C2 4770  18.498   8.935  10.248 -0.1326 -0.2378  0.0263
  299loPI    C3 4771  18.240   9.220  10.356  0.0841  0.0501 -0.2003
  299loPI   PO4 4772  18.227   8.832   9.747 -0.3700  0.1026  0.0105
  299loPI   GL1 4773  18.071   8.685   9.357 -0.1192  0.0825 -0.1174
  299loPI   GL2 4774  17.782   8.753   9.505  0.0526 -0.4083 -0.4502
  299loPI   C1A 4775  18.168   8.333   9.187 -0.1730 -0.1110 -0.0487
  299loPI   C2A 4776  18.305   8.119   8.816  0.1460 -0.0772 -0.0624
  299loPI   C3A 4777  18.217   8.186   8.352 -0.0914  0.0205  0.2272
  299loPI   C4A 4778  18.579   8.020   8.160 -0.0378 -0.1982  0.1352
  299loPI   C5A 4779  18.878   8.156   7.825 -0.0435  0.1596 -0.1081
  299loPI   C6A 4780  18.757   8.079   7.369 -0.2556 -0.0664 -0.0008
  299loPI   C1B 4781  17.614   8.610   9.056 -0.2295  0.0353 -0.1738
  299loPI   C2B 4782  17.919   8.466   8.780  0.3238 -0.0060  0.2031
  299loPI   C3B 4783  17.787   8.495   8.315  0.1163  0.0270 -0.2023
  299loPI   C4B 4784  17.351   8.383   8.160 -0.1421  0.0058 -0.2418
  300loPI    C1 4785   8.756   7.222  10.350 -0.1940 -0.1667 -0.1969
  300loPI    C2 4786   8.429   7.264  10.578 -0.1433  0.0376 -0.1595
  300loPI    C3 4787   8.756   7.087  10.726 -0.1772 -0.0077 -0.1389
  300loPI   PO4 4788   8.728   7.467  10.207 -0.3100 -0.1088  0.0451
  300loPI   GL1 4789   8.579   7.631   9.805 -0.0570 -0.0416 -0.1465
  300loPI   GL2 4790   8.324   7.481   9.633  0.0462  0.1516 -0.1756
  300loPI   C1A 4791   8.697   7.407   9.373 -0.0633 -0.5596 -0.0829
  300loPI   C2A 4792   8.680   7.520   8.961  0.0876  0.4419 -0.1613
  300loPI   C3A 4793   8.658   7.337   8.576 -0.0389  0.1486  0.0016
  300loPI   C4A 4794   8.557   7.510   8.142  0.0453 -0.0993 -0.4317
  300loPI   C5A 4795   8.643   7.995   8.003 -0.1117 -0.1799  0.0490
  300loPI   C6A 4796   8.542   8.397   7.943 -0.0657 -0.0725 -0.1220
  300loPI   C1B 4797   8.278   7.752   9.243 -0.3021 -0.0429  0.1969
  300loPI   C2B 4798   8.217   8.054   8.951 -0.1268  0.0086  0.1629
  300loPI   C3B 4799   8.077   8.224   8.548 -0.0972 -0.2177  0.0521
  300loPI   C4B 4800   8.225   8.127   8.208  0.2079 -0.3261 -0.0596
  301loPI    C1 4801   8.884   2.234  10.350 -0.0151  0.4141 -0.1765
  301loPI    C2 4802   8.670   2.520  10.530 -0.2142  0.1376  0.0352
  301loPI    C3 4803   8.884   2.264  10.749 -0.1893  0.0057 -0.1411
  301loPI   PO4 4804   9.068   2.330  10.131  0.1788 -0.1778  0.0913
  301loPI   GL1 4805   9.064   2.469   9.751  0.0741 -0.3528  0.2955
  301loPI   GL2 4806   8.744   2.554   9.602 -0.0629  0.2536  0.1868
  301loPI   C1A 4807   9.224   2.709   9.469  0.0260 -0.0767 -0.1249
  301loPI   C2A 4808   9.290   2.734   8.994 -0.2430 -0.0729 -0.1697
  301loPI   C3A 4809   9.250   2.660   8.580  0.0699  0.0568 -0.2296
  301loPI   C4A 4810   9.226   2.534   8.213 -0.3482  0.1400 -0.0542
  301loPI   C5A 4811   9.297   2.818   7.944 -0.1227 -0.1780 -0.4840
  301loPI   C6A 4812   9.138   2.993   7.621 -0.3626  0.1893  0.0416
  301loPI   C1B 4813   8.677   2.573   9.146 -0.0208 -0.0571 -0.0004
  301loPI   C2B 4814   8.835   2.550   8.789 -0.0416 -0.1718  0.1271
  301loPI   C3B 4815   8.690   2.502   8.387  0.3352 -0.0083 -0.1482
  301loPI   C4B 4816   8.767   2.415   7.961  0.0727  0.1546 -0.4708
  302loPI    C1 4817   6.787   2.708  10.214  0.0788 -0.1019 -0.0400
  302loPI    C2 4818   6.871   2.465  10.520 -0.2337 -0.1502  0.0106
  302loPI    C3 4819   6.490   2.531  10.416 -0.1610  0.3942  0.0587
  302loPI   PO4 4820   6.909   2.641  10.001  0.1115 -0.1233 -0.1557
  302loPI   GL1 4821   6.731   2.739   9.632 -0.2580 -0.1225  0.0399
  302loPI   GL2 4822   6.774   3.046   9.545  0.1150  0.0266 -0.3343
  302loPI   C1A 4823   6.796   2.638   9.197  0.1694 -0.0988 -0.0483
  302loPI   C2A 4824   6.854   2.384   8.924  0.1339 -0.4104 -0.1327
  302loPI   C3A 4825   6.704   2.460   8.547  0.0213 -0.1510  0.1327
  302loPI   C4A 4826   6.804   2.484   8.135 -0.2315 -0.0320 -0.0052
  302loPI   C5A 4827   6.849   2.744   7.845  0.1800 -0.2472  0.0888
  302loPI   C6A 4828   6.526   2.967   7.590 -0.0897  0.0321  0.0407
  302loPI   C1B 4829   6.988   3.107   9.202 -0.1940  0.0566  0.0143
  302loPI   C2B 4830   7.022   3.335   8.865  0.2996 -0.2574  0.0439
  302loPI   C3B 4831   6.994   3.408   8.489  0.3008 -0.2236 -0.2176
  302loPI   C4B 4832   6.801   3.681   8.330  0.2957 -0.0207 -0.0219
  303loPI    C1 4833  18.083   6.085   9.963 -0.1027 -0.0186  0.1179
  303loPI    C2 4834  17.894   6.433   9.904 -0.2984 -0.1301  0.0800
  303loPI    C3 4835  17.800   6.205  10.219 -0.3027 -0.2359  0.0029
  303loPI   PO4 4836  18.126   6.052   9.722 -0.1933  0.0478 -0.3047
  303loPI   GL1 4837  17.989   5.924   9.436 -0.0137 -0.2057  0.2074
  303loPI   GL2 4838  18.335   6.153   9.308  0.0103 -0.1566  0.1229
  303loPI   C1A 4839  17.841   6.177   9.058 -0.0816  0.0850  0.0638
  303loPI   C2A 4840  17.828   6.222   8.589  0.0534 -0.0442 -0.0218
  303loPI   C3A 4841  18.119   6.251   8.238  0.0899 -0.1960  0.0862
  303loPI   C4A 4842  18.302   6.549   7.860  0.2049  0.0986  0.0228
  303loPI   C5A 4843  18.344   6.573   7.533  0.1335  0.0587 -0.0372
  303loPI   C6A 4844  18.731   6.494   7.250 -0.2783 -0.1624  0.2475
  303loPI   C1B 4845  18.298   6.371   8.953 -0.0344 -0.1645 -0.1617
  303loPI   C2B 4846  18.538   6.728   8.840  0.2326  0.1142 -0.1118
  303loPI   C3B 4847  18.733   6.964   8.573  0.0523  0.3703  0.0348
  303loPI   C4B 4848  18.825   6.931   8.110 -0.0729  0.2831  0.0424
  304loPI    C1 4849   9.343   8.290  10.621 -0.0932 -0.1938 -0.1880
  304loPI    C2 4850   9.089   8.439  10.893  0.2636 -0.1720  0.1421
  304loPI    C3 4851   9.096   8.046  10.820 -0.1429 -0.1275 -0.1681
  304loPI   PO4 4852   9.297   8.397  10.427  0.1522 -0.1062 -0.2301
  304loPI   GL1 4853   9.229   8.064   9.971 -0.2260  0.1330 -0.2278
  304loPI   GL2 4854   8.998   8.089   9.891  0.1885  0.3241 -0.0098
  304loPI   C1A 4855   9.272   7.973   9.506  0.2448 -0.2057 -0.0424
  304loPI   C2A 4856   9.106   7.728   9.223 -0.2761  0.1193  0.0613
  304loPI   C3A 4857   9.079   7.736   8.853  0.0701 -0.1071 -0.1486
  304loPI   C4A 4858   9.100   7.640   8.405 -0.2494  0.1844  0.2433
  304loPI   C5A 4859   9.131   7.810   7.970 -0.1339  0.1226 -0.0451
  304loPI   C6A 4860   9.198   8.108   7.598  0.1636  0.1152  0.1315
  304loPI   C1B 4861   8.733   8.049   9.435  0.1244 -0.0145  0.0981
  304loPI   C2B 4862   8.707   8.039   9.063 -0.2339 -0.1739  0.0808
  304loPI   C3B 4863   8.678   7.959   8.693  0.2754 -0.5275 -0.2057
  304loPI   C4B 4864   8.616   8.218   8.459 -0.0743 -0.1382  0.0212
  305loPI    C1 4865  15.316  10.530  10.241 -0.0643  0.2467  0.0098
  305loPI    C2 4866  15.426  10.316  10.560 -0.3584  0.1001  0.0159
  305loPI    C3 4867  15.248  10.671  10.609 -0.0636  0.2514  0.0082
  305loPI   PO4 4868  15.446  10.530  10.042  0.1467  0.0709 -0.0572
  305loPI   GL1 4869  15.523  10.638   9.579  0.2905 -0.0563  0.0947
  305loPI   GL2 4870  15.787  10.519   9.642  0.2736 -0.4849  0.0126
  305loPI   C1A 4871  15.548  10.417   9.190 -0.0044  0.2234  0.2710
  305loPI   C2A 4872  15.437  10.286   8.794  0.1206  0.0762 -0.1088
  305loPI   C3A 4873  15.452  10.038   8.403  0.2095 -0.2313 -0.3059
  305loPI   C4A 4874  15.344   9.722   7.987 -0.1907  0.1741 -0.1443
  305loPI   C5A 4875  15.029   9.400   8.020 -0.1139 -0.1395  0.1201
  305loPI   C6A 4876  14.729   9.019   7.958  0.4208 -0.3812 -0.0641
  305loPI   C1B 4877  16.037  10.362   9.304 -0.1165  0.1995  0.3820
  305loPI   C2B 4878  15.920  10.288   8.928  0.0479  0.1930  0.3033
  305loPI   C3B 4879  15.941  10.154   8.584  0.3324 -0.1529 -0.0099
  305loPI   C4B 4880  15.997  10.080   8.201  0.2692  0.0038  0.1341
  306loPI    C1 4881   8.842  18.647  10.181  0.1809  0.2842 -0.1152
  306loPI    C2 4882   8.711  18.851  10.499 -0.1232  0.2026 -0.1844
  306loPI    C3 4883   8.584  18.477  10.435  0.4810 -0.0439 -0.0212
  306loPI   PO4 4884   8.872  18.821   9.925 -0.1346 -0.1411 -0.1284
  306loPI   GL1 4885   8.815  19.037   9.578  0.0480  0.2969  0.0986
  306loPI   GL2 4886   8.586  19.071   9.454 -0.1739  0.0290  0.0859
  306loPI   C1A 4887   8.931  18.743   9.259  0.0601  0.1286  0.0233
  306loPI   C2A 4888   9.101  18.737   8.811 -0.0016  0.1470  0.0598
  306loPI   C3A 4889   9.433  18.767   8.507  0.2995  0.1649 -0.2288
  306loPI   C4A 4890   9.626  18.826   8.072  0.0435 -0.0296  0.0821
  306loPI   C5A 4891   9.500  18.860   7.656 -0.1039 -0.1852  0.3375
  306loPI   C6A 4892   9.174  18.752   7.268 -0.0654  0.0676 -0.2223
  306loPI   C1B 4893   8.772  19.102   8.964  0.1877  0.3576 -0.1139
  306loPI   C2B 4894   8.743  18.967   8.547 -0.1333 -0.0670 -0.1103
  306loPI   C3B 4895   8.735  18.757   8.279 -0.1897 -0.3989  0.2164
  306loPI   C4B 4896   8.791  18.287   8.060 -0.2204  0.0580 -0.2401
  307loPI    C1 4897   2.678   5.421  10.029  0.0746 -0.0259  0.0784
  307loPI    C2 4898   2.397   5.704  10.056  0.0375 -0.0642  0.0929
  307loPI    C3 4899   2.405   5.403  10.320  0.0484 -0.1023  0.0494
  307loPI   PO4 4900   2.733   5.413   9.776 -0.0808 -0.0951 -0.0132
  307loPI   GL1 4901   2.478   5.390   9.363  0.0057 -0.0492  0.1648
  307loPI   GL2 4902   2.622   5.060   9.378  0.3691 -0.0928 -0.2891
  307loPI   C1A 4903   2.746   5.548   9.024  0.2355  0.0340 -0.2542
  307loPI   C2A 4904   2.819   5.481   8.592  0.0227  0.1144  0.1321
  307loPI   C3A 4905   2.823   5.490   8.242 -0.1215  0.0529 -0.3034
  307loPI   C4A 4906   2.817   5.137   7.917  0.0368  0.1659  0.4389
  307loPI   C5A 4907   2.587   5.047   7.487  0.3415  0.2521 -0.0716
  307loPI   C6A 4908   2.586   5.370   7.118  0.1994 -0.2323 -0.1519
  307loPI   C1B 4909   2.677   5.065   8.945 -0.0583  0.1100  0.2024
  307loPI   C2B 4910   2.794   4.758   8.636  0.0009  0.1107  0.1670
  307loPI   C3B 4911   2.761   4.731   8.192 -0.0503 -0.1893 -0.1768
  307loPI   C4B 4912   3.003   4.613   7.862 -0.1463  0.0853 -0.5357
  308loPI    C1 4913   1.070  13.564  10.540 -0.1635 -0.0069  0.0847
  308loPI    C2 4914   1.291  13.868  10.678 -0.3482  0.1372  0.0669
  308loPI    C3 4915   1.180  13.573  10.924  0.0251 -0.0373  0.0327
  308loPI   PO4 4916   1.019  13.632  10.277  0.1751  0.0058 -0.3409
  308loPI   GL1 4917   1.002  13.817   9.866  0.3097  0.1080  0.0142
  308loPI   GL2 4918   1.343  13.729   9.725 -0.1896  0.4390 -0.1017
  308loPI   C1A 4919   0.787  13.903   9.450 -0.3945 -0.1490 -0.2810
  308loPI   C2A 4920   0.723  13.995   8.970 -0.1498 -0.2588 -0.0315
  308loPI   C3A 4921   0.670  14.152   8.549  0.1476 -0.3270  0.0443
  308loPI   C4A 4922   0.544  14.221   8.060 -0.0387  0.2313 -0.1611
  308loPI   C5A 4923   0.633  14.139   7.646 -0.0085  0.2630  0.1396
  308loPI   C6A 4924   0.436  14.095   7.268  0.2194 -0.0049 -0.2080
  308loPI   C1B 4925   1.270  13.836   9.287  0.2564 -0.1866  0.0913
  308loPI   C2B 4926   1.210  13.917   8.906 -0.1185  0.0345 -0.2545
  308loPI   C3B 4927   1.187  14.037   8.479  0.0407  0.2241 -0.3459
  308loPI   C4B 4928   1.446  14.206   8.059 -0.2787 -0.0522  0.0641
  309loPI    C1 4929  15.023  10.604   9.814 -0.0502  0.0458 -0.1149
  309loPI    C2 4930  14.663  10.429   9.803 -0.0257 -0.0026 -0.1537
  309loPI    C3 4931  14.968  10.249   9.989  0.0091 -0.0188 -0.2262
  309loPI   PO4 4932  15.000  10.850   9.915 -0.0460 -0.0807 -0.1682
  309loPI   GL1 4933  14.684  10.894   9.589  0.2883 -0.1460 -0.2093
  309loPI   GL2 4934  14.697  10.731   9.412 -0.1029  0.1080  0.1906
  309loPI   C1A 4935  14.742  11.150   9.198  0.0032 -0.4031  0.0125
  309loPI   C2A 4936  14.730  11.149   8.722  0.0012  0.1202 -0.0199
  309loPI   C3A 4937  14.782  10.879   8.214 -0.2521 -0.2034  0.1910
  309loPI   C4A 4938  14.995  10.735   7.894 -0.1411 -0.0775 -0.1064
  309loPI   C5A 4939  15.365  10.554   7.751  0.0192  0.6646 -0.0547
  309loPI   C6A 4940  15.532  10.087   7.744 -0.0848 -0.1523 -0.0684
  309loPI   C1B 4941  14.646  10.677   9.039  0.2676  0.1166 -0.3344
  309loPI   C2B 4942  14.682  10.645   8.618 -0.0180  0.1203 -0.1774
  309loPI   C3B 4943  14.822  10.417   8.319  0.1557 -0.2031 -0.0245
  309loPI   C4B 4944  15.065  10.234   7.953  0.0942  0.3816 -0.1062
  310loPI    C1 4945  13.663  14.696  10.039 -0.1424  0.0776 -0.0001
  310loPI    C2 4946  14.043  14.796  10.114 -0.1333  0.1615 -0.1561
  310loPI    C3 4947  13.745  14.994  10.293 -0.1003 -0.0999  0.1978
  310loPI   PO4 4948  13.672  14.634   9.753  0.0784  0.0063 -0.1975
  310loPI   GL1 4949  13.827  14.747   9.435  0.2539 -0.4447 -0.0598
  310loPI   GL2 4950  14.180  14.865   9.390  0.1538 -0.2896  0.1501
  310loPI   C1A 4951  13.794  15.307   9.196 -0.0391 -0.1858  0.1135
  310loPI   C2A 4952  13.994  15.372   8.739 -0.3862 -0.3523  0.1089
  310loPI   C3A 4953  13.966  15.264   8.342 -0.1352 -0.0022 -0.0649
  310loPI   C4A 4954  13.718  15.255   7.958  0.0561 -0.3246  0.2557
  310loPI   C5A 4955  13.845  15.265   7.517 -0.1694 -0.4987  0.0438
  310loPI   C6A 4956  13.713  15.426   7.302 -0.0283  0.1314 -0.0055
  310loPI   C1B 4957  14.148  14.786   8.952  0.0696 -0.0658 -0.3249
  310loPI   C2B 4958  14.055  14.838   8.585  0.1740 -0.1130 -0.2460
  310loPI   C3B 4959  14.213  14.930   8.094 -0.0882  0.1565  0.1880
  310loPI   C4B 4960  13.864  14.771   7.847 -0.0781 -0.2031 -0.0428
  311loPI    C1 4961   8.049   6.608  10.531 -0.0027 -0.0066  0.1284
  311loPI    C2 4962   7.957   6.761  10.173  0.3941 -0.3094 -0.1123
  311loPI    C3 4963   8.017   7.004  10.485 -0.0970 -0.0501 -0.2096
  311loPI   PO4 4964   8.225   6.395  10.418 -0.1953 -0.0216 -0.0839
  311loPI   GL1 4965   8.258   6.380   9.991  0.1328 -0.0870 -0.2693
  311loPI   GL2 4966   8.318   6.361   9.664  0.1639  0.1670 -0.0441
  311loPI   C1A 4967   8.648   6.629   9.807 -0.0244 -0.2527  0.0481
  311loPI   C2A 4968   8.724   6.799   9.370 -0.0399 -0.2105 -0.1015
  311loPI   C3A 4969   8.663   6.931   8.964  0.0201 -0.1817  0.0423
  311loPI   C4A 4970   8.665   6.791   8.555  0.1137  0.0697 -0.1273
  311loPI   C5A 4971   8.843   6.777   8.116  0.0461  0.0937  0.0506
  311loPI   C6A 4972   8.881   7.150   8.109  0.1173 -0.1631 -0.0289
  311loPI   C1B 4973   8.391   6.436   9.230 -0.0852 -0.2295  0.3826
  311loPI   C2B 4974   8.280   6.617   8.871  0.2077 -0.1885 -0.0216
  311loPI   C3B 4975   8.139   6.883   8.458  0.1102 -0.0117  0.0580
  311loPI   C4B 4976   8.427   7.008   8.096 -0.2355 -0.0947  0.0619
  312loPI    C1 4977   6.206   3.751   9.943 -0.0072 -0.0220  0.2240
  312loPI    C2 4978   6.111   3.867  10.314 -0.2788 -0.1372  0.1930
  312loPI    C3 4979   6.121   3.478  10.223 -0.0738 -0.1146  0.1140
  312loPI   PO4 4980   6.462   3.946   9.896 -0.2625 -0.4767 -0.1710
  312loPI   GL1 4981   6.498   4.156   9.524 -0.0965 -0.5476  0.0688
  312loPI   GL2 4982   6.209   3.989   9.456  0.0367 -0.1170  0.0480
  312loPI   C1A 4983   6.461   4.012   9.021 -0.1632  0.0863  0.0231
  312loPI   C2A 4984   6.483   4.000   8.639  0.1592 -0.0251  0.3506
  312loPI   C3A 4985   6.322   3.910   8.185 -0.3593  0.1789  0.3090
  312loPI   C4A 4986   6.246   3.945   7.758  0.0556 -0.1185 -0.0961
  312loPI   C5A 4987   6.620   4.202   7.497  0.1814 -0.1215 -0.1754
  312loPI   C6A 4988   6.876   4.520   7.163 -0.3173 -0.1425  0.1067
  312loPI   C1B 4989   5.948   4.239   9.156 -0.1279  0.2018 -0.1574
  312loPI   C2B 4990   5.865   4.262   8.739  0.3212  0.2136 -0.4938
  312loPI   C3B 4991   5.941   4.206   8.431 -0.1061  0.0262  0.1887
  312loPI   C4B 4992   5.712   4.298   8.022 -0.1921 -0.0457  0.0160
  313loPI    C1 4993  15.206  12.998   9.886 -0.0471  0.3774 -0.2627
  313loPI    C2 4994  15.215  12.959  10.284 -0.3091  0.2170 -0.2699
  313loPI    C3 4995  15.295  13.313  10.115  0.3611  0.1560 -0.1071
  313loPI   PO4 4996  15.002  12.815   9.801 -0.0130 -0.0417  0.0959
  313loPI   GL1 4997  14.961  13.012   9.460  0.0975  0.2482  0.1581
  313loPI   GL2 4998  14.638  12.744   9.473  0.4956 -0.1151  0.0861
  313loPI   C1A 4999  14.949  13.022   8.988  0.0338 -0.0257  0.1512
  313loPI   C2A 5000  14.998  13.060   8.597 -0.1031 -0.1590 -0.0592
  313loPI   C3A 5001  15.162  13.144   8.227  0.0070  0.0015 -0.1980
  313loPI   C4A 5002  15.401  13.177   7.853 -0.1068  0.0138  0.2187
  313loPI   C5A 5003  15.770  13.326   7.621 -0.2190  0.0644  0.2034
  313loPI   C6A 5004  16.058  13.250   7.389  0.1678 -0.2093  0.4079
  313loPI   C1B 5005  14.517  12.810   9.038 -0.3189 -0.2107 -0.2580
  313loPI   C2B 5006  14.487  12.899   8.658 -0.0031 -0.2410 -0.1203
  313loPI   C3B 5007  14.528  12.929   8.243 -0.1418 -0.0338 -0.0584
  313loPI   C4B 5008  14.648  12.595   7.947 -0.3818  0.0841 -0.0917
  314loPI    C1 5009   7.955  16.103  10.412  0.0560  0.1170 -0.1802
  314loPI    C2 5010   7.901  16.499  10.432 -0.1801  0.0705  0.2133
  314loPI    C3 5011   8.134  16.315  10.701 -0.0305 -0.0543  0.0013
  314loPI   PO4 5012   7.848  16.107  10.151 -0.0836  0.0829  0.1167
  314loPI   GL1 5013   7.881  16.179   9.729  0.0519 -0.1847 -0.1073
  314loPI   GL2 5014   7.525  16.201   9.626  0.0272  0.1633 -0.1277
  314loPI   C1A 5015   7.751  16.014   9.311  0.0309  0.1435 -0.3116
  314loPI   C2A 5016   7.728  16.002   8.905  0.2160 -0.0185 -0.0214
  314loPI   C3A 5017   7.734  16.025   8.481  0.2071  0.0347  0.2870
  314loPI   C4A 5018   7.764  15.962   8.044 -0.0738  0.0809 -0.1782
  314loPI   C5A 5019   7.735  15.531   7.869  0.2333  0.4821  0.1809
  314loPI   C6A 5020   7.671  15.080   7.884  0.1589 -0.0201  0.0153
  314loPI   C1B 5021   7.446  16.339   9.173 -0.0184 -0.2592 -0.1713
  314loPI   C2B 5022   7.350  16.230   8.692  0.1666  0.1444  0.0027
  314loPI   C3B 5023   7.106  16.074   8.376  0.2616  0.2361 -0.3300
  314loPI   C4B 5024   6.824  15.775   8.258  0.0539 -0.1854 -0.0803
  315loPI    C1 5025  18.323  11.590  10.405  0.0257 -0.1456 -0.0708
  315loPI    C2 5026  18.562  11.699  10.706  0.0456 -0.1357 -0.0901
  315loPI    C3 5027  18.377  11.345  10.717  0.0030 -0.1122 -0.0406
  315loPI   PO4 5028  18.467  11.602  10.167 -0.2107 -0.5012 -0.1453
  315loPI   GL1 5029  18.364  11.554   9.704 -0.2525 -0.1606 -0.0667
  315loPI   GL2 5030  18.678  11.748   9.530  0.2066 -0.2365 -0.0738
  315loPI   C1A 5031  18.340  11.574   9.251 -0.1848 -0.0607 -0.0778
  315loPI   C2A 5032  18.475  11.541   8.842  0.0004 -0.0111 -0.0946
  315loPI   C3A 5033  18.565  11.580   8.371  0.0455  0.1888  0.1121
  315loPI   C4A 5034  19.026  11.402   8.289  0.5424  0.1224 -0.1270
  315loPI   C5A 5035  19.349  11.197   8.196 -0.0441  0.2414  0.1120
  315loPI   C6A 5036  19.768  11.056   8.057  0.2937  0.1791 -0.1491
  315loPI   C1B 5037  18.839  11.880   9.078  0.0456 -0.0653  0.3925
  315loPI   C2B 5038  19.008  11.849   8.706  0.0085  0.2880  0.0602
  315loPI   C3B 5039  18.985  11.908   8.286  0.1194 -0.0217  0.2419
  315loPI   C4B 5040  18.802  11.829   7.950 -0.0046 -0.2559 -0.0866
  316loPI    C1 5041  11.333   1.932  10.038 -0.1681 -0.1164 -0.1419
  316loPI    C2 5042  11.272   1.765  10.396  0.0493  0.1116  0.0047
  316loPI    C3 5043  11.161   2.143  10.330 -0.0533  0.0484 -0.1918
  316loPI   PO4 5044  11.599   1.783   9.896 -0.2982  0.1134  0.1495
  316loPI   GL1 5045  11.598   1.547   9.506 -0.4484 -0.1563  0.1760
  316loPI   GL2 5046  11.683   1.275   9.689 -0.2214  0.1161 -0.1152
  316loPI   C1A 5047  11.465   1.613   9.060  0.1265 -0.2382  0.2987
  316loPI   C2A 5048  11.526   1.646   8.641  0.2698 -0.1792  0.0293
  316loPI   C3A 5049  11.536   1.258   8.328 -0.0554 -0.2617 -0.1207
  316loPI   C4A 5050  11.669   1.055   7.973 -0.1559  0.6262 -0.0051
  316loPI   C5A 5051  11.802   0.662   7.862  0.0531 -0.0013  0.0900
  316loPI   C6A 5052  11.768   0.159   8.019  0.1887 -0.0135 -0.3290
  316loPI   C1B 5053  11.452   1.124   9.260  0.0100 -0.1140 -0.3432
  316loPI   C2B 5054  11.393   1.082   8.870 -0.1396 -0.1855  0.3009
  316loPI   C3B 5055  11.475   0.777   8.541 -0.2836  0.0501 -0.3507
  316loPI   C4B 5056  11.811   0.811   8.382 -0.0149 -0.1476 -0.1647
  317loPI    C1 5057  15.942  15.087  10.370 -0.0710  0.0852  0.0336
  317loPI    C2 5058  16.296  15.248  10.466 -0.0239 -0.1706  0.3038
  317loPI    C3 5059  16.015  15.201  10.747 -0.3181  0.1328  0.0685
  317loPI   PO4 5060  15.872  15.257  10.120 -0.0776 -0.2121 -0.1742
  317loPI   GL1 5061  15.899  15.139   9.651 -0.2781 -0.0975  0.0851
  317loPI   GL2 5062  16.074  15.305   9.602 -0.3382 -0.1390 -0.1181
  317loPI   C1A 5063  15.928  14.931   9.205 -0.2620  0.0229 -0.0446
  317loPI   C2A 5064  15.819  14.949   8.774 -0.2569 -0.1310 -0.0479
  317loPI   C3A 5065  15.858  14.947   8.297 -0.0347 -0.2438 -0.2204
  317loPI   C4A 5066  16.022  14.779   7.906 -0.3706  0.1244 -0.0828
  317loPI   C5A 5067  16.150  14.544   7.554  0.3215 -0.0608  0.1597
  317loPI   C6A 5068  16.536  14.553   7.321 -0.1548  0.0759 -0.1806
  317loPI   C1B 5069  16.035  15.431   9.087  0.2470  0.0632 -0.1929
  317loPI   C2B 5070  16.242  15.323   8.786  0.2524  0.0368  0.0060
  317loPI   C3B 5071  16.340  15.103   8.483 -0.2529  0.1401  0.0903
  317loPI   C4B 5072  16.477  14.915   8.110 -0.2854  0.1444  0.0983
  318loPI    C1 5073  13.903   3.450  10.107  0.3611  0.1176 -0.1648
  318loPI    C2 5074  13.881   3.837  10.206 -0.3886  0.0155  0.1325
  318loPI    C3 5075  13.891   3.558  10.492  0.0502 -0.1987 -0.0814
  318loPI   PO4 5076  14.191   3.507   9.902  0.0714  0.0170 -0.0509
  318loPI   GL1 5077  14.450   3.689   9.563  0.1178  0.1551 -0.0548
  318loPI   GL2 5078  14.101   3.760   9.492 -0.0743  0.2583 -0.1424
  318loPI   C1A 5079  14.279   3.938   9.043 -0.0187  0.1631 -0.0618
  318loPI   C2A 5080  14.366   4.016   8.552  0.2063 -0.0368 -0.0416
  318loPI   C3A 5081  14.505   4.081   8.193 -0.1303  0.0890 -0.0933
  318loPI   C4A 5082  14.402   3.927   7.828 -0.3476 -0.2414 -0.3204
  318loPI   C5A 5083  14.686   3.861   7.486 -0.2145  0.0764 -0.2328
  318loPI   C6A 5084  15.017   3.781   7.242  0.1742 -0.1296  0.1214
  318loPI   C1B 5085  13.936   3.606   9.120  0.2419 -0.0263 -0.0337
  318loPI   C2B 5086  13.943   3.683   8.726 -0.6138  0.0987  0.3504
  318loPI   C3B 5087  14.040   3.696   8.256  0.0270  0.0002  0.0732
  318loPI   C4B 5088  14.180   3.496   8.010 -0.2580 -0.1113 -0.0823
  319loPI    C1 5089   8.943   8.862  10.405 -0.0134  0.2838  0.0934
  319loPI    C2 5090   8.774   8.500  10.428  0.1404  0.1932 -0.1600
  319loPI    C3 5091   8.749   8.752  10.738  0.0255 -0.0300  0.0157
  319loPI   PO4 5092   8.811   8.900  10.029 -0.0621 -0.0538 -0.2578
  319loPI   GL1 5093   8.904   8.833   9.600  0.0536  0.0848  0.2476
  319loPI   GL2 5094   8.894   9.117   9.544  0.2811 -0.1118 -0.0073
  319loPI   C1A 5095   8.624   8.520   9.254  0.1245 -0.1417  0.1219
  319loPI   C2A 5096   8.512   8.535   8.841 -0.0584 -0.2432 -0.1922
  319loPI   C3A 5097   8.264   8.656   8.421 -0.2407 -0.1553 -0.0364
  319loPI   C4A 5098   8.060   8.612   8.034  0.1970  0.3034  0.1110
  319loPI   C5A 5099   8.016   8.200   7.748 -0.1368  0.0220  0.0626
  319loPI   C6A 5100   7.717   8.067   7.521  0.3289 -0.0048 -0.1564
  319loPI   C1B 5101   8.838   8.939   9.103 -0.1060  0.0426 -0.2340
  319loPI   C2B 5102   8.776   8.915   8.723  0.0905  0.2882 -0.3580
  319loPI   C3B 5103   8.764   8.701   8.320  0.0160 -0.0685  0.1842
  319loPI   C4B 5104   9.096   8.710   7.972 -0.1072  0.0321  0.1471
  320loPI    C1 5105   8.765   4.013  10.263 -0.0047  0.3118  0.0192
  320loPI    C2 5106   8.882   3.807  10.586  0.2136  0.0359 -0.2302
  320loPI    C3 5107   8.614   4.102  10.623  0.0207 -0.1806  0.1591
  320loPI   PO4 5108   8.709   3.745  10.137  0.0794 -0.0938  0.0109
  320loPI   GL1 5109   8.942   3.600   9.760  0.4292  0.0843 -0.1537
  320loPI   GL2 5110   8.763   3.923   9.644 -0.0182 -0.1926 -0.1174
  320loPI   C1A 5111   8.932   3.589   9.226  0.3193  0.0292 -0.0387
  320loPI   C2A 5112   9.031   3.586   8.775 -0.1055  0.1843 -0.1081
  320loPI   C3A 5113   9.356   3.700   8.484 -0.2040 -0.1395  0.2717
  320loPI   C4A 5114   9.583   3.703   8.140  0.0870  0.0077 -0.2037
  320loPI   C5A 5115   9.789   3.820   7.750 -0.0656 -0.1278  0.0533
  320loPI   C6A 5116   9.735   3.709   7.312 -0.2479  0.2004 -0.1999
  320loPI   C1B 5117   8.891   4.049   9.320  0.0102  0.2626  0.1967
  320loPI   C2B 5118   9.116   4.124   9.023  0.0471  0.0067  0.0234
  320loPI   C3B 5119   9.043   4.103   8.579 -0.3982 -0.1747 -0.0829
  320loPI   C4B 5120   8.729   4.242   8.231  0.3482 -0.2595 -0.2476
  321loPI    C1 5121   6.190  15.008  10.487  0.0539  0.0124  0.1173
  321loPI    C2 5122   5.983  15.163  10.792  0.0552 -0.0768  0.1638
  321loPI    C3 5123   6.371  15.250  10.749 -0.0091  0.1541  0.0313
  321loPI   PO4 5124   6.012  14.803  10.375  0.0750  0.2991  0.1229
  321loPI   GL1 5125   6.166  14.531  10.105  0.0257  0.2873 -0.0101
  321loPI   GL2 5126   6.520  14.471   9.952  0.2584 -0.1935  0.0158
  321loPI   C1A 5127   6.119  14.299   9.747  0.2514  0.3352  0.0771
  321loPI   C2A 5128   5.821  14.352   9.428 -0.0748  0.2198 -0.2218
  321loPI   C3A 5129   6.005  14.353   9.018  0.0624 -0.5161  0.0398
  321loPI   C4A 5130   6.165  14.547   8.702 -0.0901  0.0162 -0.0591
  321loPI   C5A 5131   6.151  14.491   8.261 -0.0571  0.1728 -0.3226
  321loPI   C6A 5132   6.379  14.719   7.969 -0.0692  0.1820 -0.3399
  321loPI   C1B 5133   6.513  14.368   9.451 -0.2400 -0.1724 -0.0343
  321loPI   C2B 5134   6.605  14.553   9.048  0.3361 -0.1435 -0.0836
  321loPI   C3B 5135   6.730  14.399   8.641 -0.1247  0.1910 -0.1191
  321loPI   C4B 5136   6.773  14.531   8.243  0.1612 -0.0962  0.2613
  322loPI    C1 5137  11.916   5.842  10.496 -0.0929  0.1241 -0.0526
  322loPI    C2 5138  11.958   5.445  10.519 -0.3781  0.1019  0.1487
  322loPI    C3 5139  12.037   5.673  10.838  0.2366  0.2583 -0.0991
  322loPI   PO4 5140  12.047   5.942  10.233 -0.2075 -0.0347 -0.3257
  322loPI   GL1 5141  11.934   5.984   9.800  0.2528 -0.2445  0.0054
  322loPI   GL2 5142  12.064   5.740   9.574 -0.5192 -0.0070  0.0045
  322loPI   C1A 5143  11.582   6.013   9.578  0.1220  0.0892  0.1318
  322loPI   C2A 5144  11.517   5.820   9.141  0.2230 -0.2379  0.0878
  322loPI   C3A 5145  11.369   5.717   8.720  0.1336 -0.1582 -0.1691
  322loPI   C4A 5146  11.292   5.667   8.238 -0.1969  0.0132  0.1911
  322loPI   C5A 5147  11.488   5.797   7.877 -0.1792  0.1412 -0.3086
  322loPI   C6A 5148  11.421   5.886   7.439  0.3227 -0.1744  0.1067
  322loPI   C1B 5149  11.988   5.955   9.241 -0.3799 -0.0541 -0.3509
  322loPI   C2B 5150  11.893   5.849   8.813 -0.3213  0.1107  0.2372
  322loPI   C3B 5151  11.869   5.545   8.509 -0.0202 -0.1922  0.1498
  322loPI   C4B 5152  11.749   5.443   8.101 -0.0949 -0.3268  0.1262
  323loPI    C1 5153  16.027  13.307  10.345  0.0281  0.2272  0.1222
  323loPI    C2 5154  15.839  13.618  10.512 -0.1583  0.0758  0.1978
  323loPI    C3 5155  15.972  13.319  10.741  0.0914  0.1360  0.1339
  323loPI   PO4 5156  15.792  13.249  10.146  0.3316  0.0526  0.1447
  323loPI   GL1 5157  15.767  13.214   9.783 -0.0483 -0.0018 -0.2049
  323loPI   GL2 5158  15.550  13.320   9.675  0.1450  0.0416 -0.0652
  323loPI   C1A 5159  16.000  13.246   9.433  0.1571 -0.1179  0.1089
  323loPI   C2A 5160  16.047  13.331   8.969 -0.0847 -0.1496 -0.1867
  323loPI   C3A 5161  16.097  13.542   8.637 -0.0650  0.1333  0.1755
  323loPI   C4A 5162  16.234  13.917   8.346 -0.0164 -0.3237  0.1331
  323loPI   C5A 5163  16.468  14.076   8.043 -0.0087 -0.0052  0.2271
  323loPI   C6A 5164  16.860  14.077   7.770  0.0386  0.0606  0.0810
  323loPI   C1B 5165  15.632  13.537   9.301  0.1456 -0.2509 -0.4067
  323loPI   C2B 5166  15.635  13.588   8.918 -0.2403  0.1000 -0.3493
  323loPI   C3B 5167  15.729  13.901   8.588 -0.0132 -0.4288  0.2383
  323loPI   C4B 5168  15.684  13.972   8.210 -0.0964 -0.1825  0.0982
  324loPI    C1 5169  16.565   5.637  10.289 -0.0583  0.1283 -0.0179
  324loPI    C2 5170  16.833   5.897  10.434 -0.0698 -0.0593  0.3495
  324loPI    C3 5171  16.683   5.611  10.670 -0.3792 -0.1362  0.0675
  324loPI   PO4 5172  16.484   5.782  10.133  0.1416  0.2654 -0.1855
  324loPI   GL1 5173  16.645   5.973   9.870 -0.0465 -0.1756  0.3136
  324loPI   GL2 5174  16.876   6.107   9.916 -0.3856  0.1156 -0.6002
  324loPI   C1A 5175  16.523   6.148   9.462 -0.0334 -0.2108 -0.1688
  324loPI   C2A 5176  16.543   6.270   9.052  0.1783 -0.0724 -0.0808
  324loPI   C3A 5177  16.662   6.384   8.645  0.1042 -0.1323 -0.0438
  324loPI   C4A 5178  16.625   6.640   8.261  0.1232 -0.0150 -0.3650
  324loPI   C5A 5179  16.961   6.921   8.161  0.1063  0.0223  0.0375
  324loPI   C6A 5180  17.153   7.279   8.213 -0.0282  0.1980 -0.2818
  324loPI   C1B 5181  16.936   5.934   9.383 -0.0117 -0.0429  0.0806
  324loPI   C2B 5182  17.029   6.058   8.906  0.0582 -0.0573 -0.2165
  324loPI   C3B 5183  17.053   6.118   8.495  0.2193 -0.0275 -0.1398
  324loPI   C4B 5184  16.963   6.339   8.097  0.0643  0.0519  0.1625
  325loPI    C1 5185   5.551   9.727  10.827 -0.1336  0.0708 -0.2972
  325loPI    C2 5186   5.935   9.690  10.932 -0.2350  0.0232  0.0712
  325loPI    C3 5187   5.807   9.538  10.585  0.1021  0.1487 -0.1129
  325loPI   PO4 5188   5.556  10.019  10.762 -0.1117  0.1960  0.2485
  325loPI   GL1 5189   5.507   9.844  10.292 -0.2622  0.1049 -0.2792
  325loPI   GL2 5190   5.257   9.966  10.286 -0.3097 -0.0943 -0.0693
  325loPI   C1A 5191   5.460   9.567  10.000  0.0054 -0.0662 -0.1676
  325loPI   C2A 5192   5.447   9.618   9.610  0.0692 -0.1393  0.1843
  325loPI   C3A 5193   5.412   9.754   9.216 -0.1350  0.2401 -0.1197
  325loPI   C4A 5194   5.275   9.584   8.804 -0.1281 -0.2464  0.0023
  325loPI   C5A 5195   5.346   9.354   8.503  0.0542 -0.1823  0.0956
  325loPI   C6A 5196   5.698   9.239   8.094 -0.1200 -0.1675  0.2236
  325loPI   C1B 5197   4.966   9.807   9.933 -0.0663 -0.0672  0.0167
  325loPI   C2B 5198   4.937   9.791   9.430 -0.0244 -0.3675  0.1630
  325loPI   C3B 5199   4.854   9.809   8.957 -0.1190 -0.0541  0.0144
  325loPI   C4B 5200   4.527   9.851   8.746 -0.0939  0.3944  0.0465
  326loPI    C1 5201   6.263   4.557  10.113  0.1665  0.2556  0.0400
  326loPI    C2 5202   6.472   4.261  10.283 -0.0009  0.0229 -0.1516
  326loPI    C3 5203   6.132   4.387  10.451  0.0951  0.1414 -0.0442
  326loPI   PO4 5204   6.358   4.519   9.809 -0.1008 -0.0442 -0.0452
  326loPI   GL1 5205   6.475   4.783   9.523  0.1944  0.1421 -0.1709
  326loPI   GL2 5206   6.759   4.606   9.509 -0.1239 -0.3964 -0.0526
  326loPI   C1A 5207   6.287   4.892   9.190 -0.2500  0.0028  0.5970
  326loPI   C2A 5208   5.921   4.732   8.874 -0.1636 -0.0839 -0.0181
  326loPI   C3A 5209   5.933   4.868   8.452  0.0588 -0.0542  0.3922
  326loPI   C4A 5210   5.991   4.808   7.909 -0.0420 -0.0317  0.0287
  326loPI   C5A 5211   6.031   4.535   7.578  0.0499  0.4722  0.1323
  326loPI   C6A 5212   5.842   4.132   7.496  0.1084  0.0669 -0.0262
  326loPI   C1B 5213   6.651   4.444   9.111  0.1516  0.1467  0.0442
  326loPI   C2B 5214   6.391   4.525   8.806  0.3489 -0.0713 -0.0044
  326loPI   C3B 5215   6.294   4.590   8.446  0.2658 -0.0645 -0.1480
  326loPI   C4B 5216   6.210   4.379   7.995 -0.0668 -0.3191 -0.4792
  327loPI    C1 5217  13.974  10.122  10.139 -0.0771  0.1628 -0.0759
  327loPI    C2 5218  13.769  10.429  10.294 -0.1117  0.0852  0.0329
  327loPI    C3 5219  13.581  10.154  10.072 -0.0906  0.1130 -0.0198
  327loPI   PO4 5220  14.150  10.142   9.863  0.1769  0.3202 -0.3569
  327loPI   GL1 5221  14.347  10.167   9.491 -0.0793  0.0603 -0.2578
  327loPI   GL2 5222  14.609  10.261   9.316 -0.2287  0.0932  0.1135
  327loPI   C1A 5223  14.165  10.347   9.150  0.1587  0.0088  0.1260
  327loPI   C2A 5224  14.169  10.452   8.828 -0.0481  0.0091  0.0098
  327loPI   C3A 5225  14.053  10.292   8.448 -0.0223 -0.1524 -0.2245
  327loPI   C4A 5226  13.919  10.080   8.076 -0.1557 -0.0066  0.2124
  327loPI   C5A 5227  13.912  10.024   7.547 -0.0798  0.2534  0.3464
  327loPI   C6A 5228  14.151  10.100   7.189 -0.1038 -0.4247  0.0604
  327loPI   C1B 5229  14.576  10.155   8.855 -0.0164  0.2565 -0.0661
  327loPI   C2B 5230  14.484  10.123   8.514  0.0502  0.2864 -0.2529
  327loPI   C3B 5231  14.411  10.100   8.114  0.0323  0.0371 -0.1916
  327loPI   C4B 5232  14.316  10.167   7.731 -0.3190 -0.1261  0.0104
  328loPI    C1 5233   5.286   3.671   9.568  0.0033  0.1469  0.0657
  328loPI    C2 5234   5.042   3.670   9.251  0.0611  0.0657  0.0213
  328loPI    C3 5235   5.045   3.359   9.502  0.1414  0.0525  0.0041
  328loPI   PO4 5236   5.204   4.011   9.637 -0.1893  0.0127  0.2227
  328loPI   GL1 5237   5.210   4.185   9.303 -0.2327 -0.3440  0.1031
  328loPI   GL2 5238   5.481   4.400   9.075  0.3994 -0.0233 -0.1430
  328loPI   C1A 5239   5.097   3.996   8.895 -0.3677  0.0151 -0.1142
  328loPI   C2A 5240   4.791   3.822   8.671  0.1234 -0.2816  0.3249
  328loPI   C3A 5241   4.768   3.660   8.291 -0.0262 -0.1506  0.0989
  328loPI   C4A 5242   4.664   3.790   7.981  0.0565 -0.1683  0.1431
  328loPI   C5A 5243   4.734   3.794   7.579 -0.1450  0.2624  0.2693
  328loPI   C6A 5244   4.758   3.968   7.142  0.1973  0.0059 -0.1902
  328loPI   C1B 5245   5.444   4.538   8.605 -0.1326  0.2344 -0.0088
  328loPI   C2B 5246   5.465   4.790   8.210  0.0511 -0.0985  0.0547
  328loPI   C3B 5247   5.359   4.867   7.736 -0.1933  0.0637  0.2135
  328loPI   C4B 5248   5.379   4.549   7.430  0.3644  0.0690 -0.0910
  329loPI    C1 5249  12.250   9.923  10.280  0.0041 -0.0052 -0.2176
  329loPI    C2 5250  12.488   9.763  10.559 -0.1962  0.0240 -0.0272
  329loPI    C3 5251  12.091   9.748  10.603 -0.2265  0.1481 -0.2462
  329loPI   PO4 5252  12.402  10.156  10.164 -0.4241  0.1027 -0.2472
  329loPI   GL1 5253  12.730  10.220   9.781  0.1738 -0.0800 -0.0713
  329loPI   GL2 5254  13.038  10.266   9.811  0.2751  0.0395  0.1143
  329loPI   C1A 5255  12.735  10.305   9.394 -0.0707  0.0756 -0.1740
  329loPI   C2A 5256  12.683  10.326   8.879 -0.2071 -0.2017 -0.1857
  329loPI   C3A 5257  12.761  10.220   8.448 -0.0363  0.0006 -0.3503
  329loPI   C4A 5258  12.794  10.139   8.053  0.0335  0.2144  0.1298
  329loPI   C5A 5259  12.804   9.787   7.779  0.1870 -0.2121  0.1725
  329loPI   C6A 5260  12.821   9.441   7.630  0.2098 -0.1371 -0.0401
  329loPI   C1B 5261  13.209  10.294   9.392 -0.1446 -0.0787 -0.2750
  329loPI   C2B 5262  13.146  10.387   8.969  0.1739  0.0045 -0.1132
  329loPI   C3B 5263  13.079  10.532   8.647 -0.0082 -0.1021 -0.1911
  329loPI   C4B 5264  13.084  10.563   8.179 -0.3718  0.1061 -0.3869
  330loPI    C1 5265   0.652  11.839  10.289 -0.0372 -0.0118 -0.0545
  330loPI    C2 5266   0.620  11.578  10.590  0.2452  0.1574  0.1261
  330loPI    C3 5267   0.301  11.789  10.474  0.0946 -0.0298  0.1946
  330loPI   PO4 5268   0.762  11.610  10.045  0.1339  0.1336 -0.1048
  330loPI   GL1 5269   0.706  11.536   9.672  0.0161 -0.0296  0.5739
  330loPI   GL2 5270   0.450  11.616   9.523 -0.1889  0.2132  0.0762
  330loPI   C1A 5271   0.985  11.439   9.363 -0.0892 -0.2694 -0.0767
  330loPI   C2A 5272   1.092  11.356   9.007 -0.4981 -0.1302 -0.1757
  330loPI   C3A 5273   1.115  11.315   8.495  0.1463  0.0518 -0.3411
  330loPI   C4A 5274   1.118  11.529   8.110 -0.1075  0.2192  0.0306
  330loPI   C5A 5275   1.122  11.657   7.692 -0.1915  0.3716  0.1801
  330loPI   C6A 5276   1.221  11.502   7.248 -0.2405  0.2604 -0.0229
  330loPI   C1B 5277   0.620  11.675   9.134 -0.3513  0.4573 -0.0439
  330loPI   C2B 5278   0.699  11.580   8.769  0.0161 -0.2390  0.4548
  330loPI   C3B 5279   0.734  11.738   8.360  0.3100 -0.0761  0.1441
  330loPI   C4B 5280   0.608  11.775   7.886  0.0525  0.0238  0.3929
  331loPI    C1 5281   0.174   6.331  10.077  0.0735 -0.1923 -0.0994
  331loPI    C2 5282  -0.121   6.070  10.148  0.0501 -0.1894 -0.1844
  331loPI    C3 5283  -0.172   6.457  10.234  0.1427 -0.2360  0.0916
  331loPI   PO4 5284   0.271   6.388   9.759  0.2153  0.0395 -0.0121
  331loPI   GL1 5285   0.052   6.547   9.318  0.0260  0.1287  0.1728
  331loPI   GL2 5286   0.107   6.280   9.206  0.1400  0.2376  0.1517
  331loPI   C1A 5287   0.164   6.856   9.106 -0.4215 -0.0730  0.0298
  331loPI   C2A 5288   0.079   7.327   8.964 -0.0089  0.0009 -0.0670
  331loPI   C3A 5289   0.431   7.410   8.713 -0.0056 -0.1464  0.1572
  331loPI   C4A 5290   0.483   7.182   8.364 -0.0875 -0.3481  0.0527
  331loPI   C5A 5291   0.429   7.210   7.859 -0.0588  0.0265  0.0953
  331loPI   C6A 5292   0.748   7.426   7.526 -0.3709  0.1511  0.2235
  331loPI   C1B 5293   0.243   6.388   8.825  0.0421 -0.0031 -0.0503
  331loPI   C2B 5294  -0.029   6.422   8.452 -0.0329  0.0860 -0.2902
  331loPI   C3B 5295  -0.331   6.643   8.388  0.0947 -0.2486  0.2566
  331loPI   C4B 5296  -0.543   6.989   8.089 -0.0062 -0.0103  0.1001
  332loPI    C1 5297  13.434   2.369  10.182 -0.0132 -0.0453 -0.0371
  332loPI    C2 5298  13.544   2.381  10.566  0.0479  0.1089 -0.0588
  332loPI    C3 5299  13.249   2.137  10.450  0.1097 -0.0261  0.0654
  332loPI   PO4 5300  13.586   2.336  10.038 -0.0788 -0.2624  0.1135
  332loPI   GL1 5301  13.658   2.069   9.706  0.3032 -0.0934 -0.1183
  332loPI   GL2 5302  13.769   2.248   9.612  0.0391 -0.0210 -0.2446
  332loPI   C1A 5303  13.679   1.916   9.232 -0.0072  0.1335 -0.1255
  332loPI   C2A 5304  13.771   2.121   8.808  0.3571  0.0744 -0.1318
  332loPI   C3A 5305  14.021   2.355   8.481  0.2459  0.2018 -0.1355
  332loPI   C4A 5306  13.937   2.314   8.040  0.0097 -0.0886 -0.1186
  332loPI   C5A 5307  14.278   2.232   7.705  0.1522  0.0628 -0.1668
  332loPI   C6A 5308  14.583   2.597   7.867 -0.0350 -0.0187 -0.0443
  332loPI   C1B 5309  13.720   2.546   9.170 -0.4535  0.0047  0.0032
  332loPI   C2B 5310  13.701   2.701   8.736 -0.1931  0.0192 -0.0003
  332loPI   C3B 5311  13.598   2.849   8.280 -0.2077  0.1245  0.0114
  332loPI   C4B 5312  13.279   3.116   8.048  0.0446  0.3224  0.1030
  333loPI    C1 5313   9.098   4.784  10.471 -0.0926  0.0703  0.0172
  333loPI    C2 5314   9.111   4.384  10.458  0.1038  0.0786 -0.0802
  333loPI    C3 5315   9.424   4.590  10.599 -0.1189  0.1874  0.2665
  333loPI   PO4 5316   9.043   4.876  10.174  0.1205  0.0123 -0.0103
  333loPI   GL1 5317   9.050   4.992   9.735 -0.1477  0.4068 -0.1966
  333loPI   GL2 5318   8.762   5.256   9.695  0.2403 -0.0347  0.4519
  333loPI   C1A 5319   9.119   5.139   9.367 -0.0244  0.0225  0.3575
  333loPI   C2A 5320   9.092   5.128   8.927  0.1058  0.1332  0.0805
  333loPI   C3A 5321   9.366   5.389   8.691  0.4873 -0.1892 -0.3029
  333loPI   C4A 5322   9.569   5.721   8.658  0.2830 -0.2939 -0.1541
  333loPI   C5A 5323   9.804   5.939   8.876 -0.0259  0.2165 -0.1017
  333loPI   C6A 5324  10.076   5.837   9.133  0.0284 -0.0086 -0.0958
  333loPI   C1B 5325   8.620   5.319   9.279 -0.0460 -0.0544 -0.1039
  333loPI   C2B 5326   8.728   5.496   8.816  0.1091 -0.1492  0.0372
  333loPI   C3B 5327   8.581   5.643   8.455 -0.0070  0.1729 -0.0937
  333loPI   C4B 5328   8.628   5.795   8.170  0.1835  0.3368 -0.0828
  334loPI    C1 5329  17.140   5.670  10.165 -0.0151  0.3505 -0.0909
  334loPI    C2 5330  16.871   5.569   9.886 -0.0647 -0.1107  0.1149
  334loPI    C3 5331  17.217   5.370   9.912 -0.0169 -0.0041  0.3189
  334loPI   PO4 5332  17.344   6.020  10.123  0.0512 -0.0361 -0.1803
  334loPI   GL1 5333  17.426   6.432   9.954 -0.0328 -0.1114  0.0109
  334loPI   GL2 5334  17.205   6.421   9.745 -0.0178  0.2123 -0.2768
  334loPI   C1A 5335  17.569   6.226   9.512  0.0648 -0.1030 -0.2223
  334loPI   C2A 5336  17.371   6.328   9.112 -0.0161  0.3036 -0.1665
  334loPI   C3A 5337  17.393   6.477   8.674  0.0241  0.2151 -0.4912
  334loPI   C4A 5338  17.333   6.654   8.250  0.0697 -0.0516  0.0622
  334loPI   C5A 5339  17.243   6.676   7.821 -0.0619 -0.0937 -0.1091
  334loPI   C6A 5340  17.456   6.397   7.577 -0.1438 -0.1188 -0.2095
  334loPI   C1B 5341  16.925   6.436   9.369  0.1323  0.1368 -0.4329
  334loPI   C2B 5342  16.865   6.666   9.081  0.2746 -0.0486  0.1602
  334loPI   C3B 5343  16.996   6.814   8.688  0.1043 -0.0192  0.0353
  334loPI   C4B 5344  17.375   7.066   8.558 -0.1426 -0.1689  0.1167
  335loPI    C1 5345   9.252   9.758  10.338 -0.0748 -0.0878 -0.0885
  335loPI    C2 5346   9.048   9.426  10.428 -0.1486 -0.0027  0.0616
  335loPI    C3 5347   9.113   9.703  10.709 -0.0470  0.0887 -0.0510
  335loPI   PO4 5348   9.285   9.698  10.077  0.0504 -0.2392 -0.1999
  335loPI   GL1 5349   9.328   9.725   9.568 -0.0774  0.0397 -0.0638
  335loPI   GL2 5350   9.010   9.610   9.455  0.1191  0.3657 -0.0204
  335loPI   C1A 5351   9.221   9.890   9.118  0.2112 -0.3031  0.1590
  335loPI   C2A 5352   9.295   9.772   8.799 -0.0988  0.1836 -0.2843
  335loPI   C3A 5353   9.318   9.393   8.536  0.0398 -0.2770  0.2391
  335loPI   C4A 5354   8.972   9.130   8.265  0.2316  0.0266 -0.3002
  335loPI   C5A 5355   8.620   9.041   8.001 -0.2117 -0.2933 -0.0081
  335loPI   C6A 5356   8.250   9.179   7.947 -0.0220  0.2118 -0.0226
  335loPI   C1B 5357   9.043   9.382   9.068 -0.0942  0.0888 -0.1003
  335loPI   C2B 5358   8.796   9.408   8.716 -0.2038 -0.2187 -0.1128
  335loPI   C3B 5359   8.820   9.578   8.288  0.1409  0.1712  0.0974
  335loPI   C4B 5360   8.658   9.558   7.883 -0.1349  0.1028  0.2793
  336loPI    C1 5361  18.490  12.338  10.151 -0.0057 -0.0532 -0.0090
  336loPI    C2 5362  18.681  12.029   9.982  0.2502  0.0986 -0.0032
  336loPI    C3 5363  18.617  12.033  10.377  0.0358 -0.0550 -0.0345
  336loPI   PO4 5364  18.361  12.434   9.942  0.2232  0.0701 -0.3111
  336loPI   GL1 5365  18.080  12.793   9.932 -0.0815 -0.1422 -0.0322
  336loPI   GL2 5366  17.860  13.136   9.991  0.1419  0.0752  0.0019
  336loPI   C1A 5367  17.960  12.525   9.470 -0.3537  0.0932  0.0660
  336loPI   C2A 5368  17.807  12.772   9.111  0.0782  0.2098  0.1518
  336loPI   C3A 5369  17.613  13.029   8.770  0.0821 -0.2392  0.1421
  336loPI   C4A 5370  17.815  13.023   8.366  0.2862 -0.0686  0.1875
  336loPI   C5A 5371  17.918  13.321   8.175  0.0475  0.3787  0.2449
  336loPI   C6A 5372  18.012  13.500   7.789  0.2284 -0.1023  0.3181
  336loPI   C1B 5373  17.812  13.077   9.548 -0.0810  0.1778 -0.1751
  336loPI   C2B 5374  17.529  13.160   9.297  0.0296 -0.0913  0.4037
  336loPI   C3B 5375  17.326  13.501   9.007  0.2781 -0.3489  0.1408
  336loPI   C4B 5376  17.036  13.730   8.908  0.0645 -0.3094  0.2485
  337loPI    C1 5377   3.229   7.083  10.125 -0.1578 -0.0772 -0.3198
  337loPI    C2 5378   3.503   6.930   9.877 -0.0385 -0.0419 -0.2108
  337loPI    C3 5379   3.278   6.687  10.101  0.1305 -0.0610 -0.0597
  337loPI   PO4 5380   3.160   7.233  10.062 -0.4440  0.0495 -0.2191
  337loPI   GL1 5381   3.100   7.438   9.769 -0.1748 -0.0128  0.2480
  337loPI   GL2 5382   3.189   7.702   9.857 -0.3187 -0.1340 -0.0863
  337loPI   C1A 5383   2.997   7.572   9.404 -0.2459  0.2619  0.1434
  337loPI   C2A 5384   3.074   7.567   8.895 -0.1633  0.1611 -0.3975
  337loPI   C3A 5385   3.081   7.685   8.590 -0.0322 -0.0958 -0.1434
  337loPI   C4A 5386   3.308   7.788   8.239  0.2829 -0.2753 -0.0569
  337loPI   C5A 5387   3.340   7.968   7.895  0.2706  0.1694  0.2318
  337loPI   C6A 5388   3.083   7.866   7.525 -0.0652 -0.2927  0.0747
  337loPI   C1B 5389   3.317   7.950   9.525 -0.1075 -0.1260  0.0170
  337loPI   C2B 5390   3.222   7.949   9.145  0.1451 -0.3684  0.0932
  337loPI   C3B 5391   3.417   8.129   8.657 -0.2911  0.0068  0.0566
  337loPI   C4B 5392   3.615   8.146   8.385  0.0939  0.0394  0.1200
  338loPI    C1 5393   8.963   3.387  10.353 -0.0528  0.0270 -0.0441
  338loPI    C2 5394   9.248   3.484  10.617 -0.0713  0.1119 -0.0550
  338loPI    C3 5395   8.903   3.327  10.744 -0.0385  0.0530 -0.0380
  338loPI   PO4 5396   8.999   3.230  10.176  0.0836  0.1248 -0.1198
  338loPI   GL1 5397   9.036   3.109   9.795 -0.0649 -0.1097 -0.2497
  338loPI   GL2 5398   8.731   3.098   9.617 -0.1367 -0.0838  0.0812
  338loPI   C1A 5399   9.263   3.226   9.475 -0.0227 -0.0770 -0.2763
  338loPI   C2A 5400   9.310   3.222   9.082  0.2969 -0.4734 -0.2352
  338loPI   C3A 5401   9.302   3.167   8.567 -0.0521 -0.2601 -0.2870
  338loPI   C4A 5402   9.191   3.297   8.159  0.1353  0.1904 -0.1341
  338loPI   C5A 5403   9.166   3.473   7.823  0.1156 -0.3853 -0.1450
  338loPI   C6A 5404   9.339   3.898   7.641  0.1328 -0.4237  0.1101
  338loPI   C1B 5405   8.882   3.040   9.203 -0.1479 -0.1085 -0.1849
  338loPI   C2B 5406   8.886   3.036   8.843 -0.1255  0.0200 -0.1928
  338loPI   C3B 5407   8.857   2.956   8.466 -0.0656  0.1598 -0.2477
  338loPI   C4B 5408   8.817   2.968   8.100  0.2166  0.1118 -0.0497
  339loPI    C1 5409  17.032   6.371  10.424  0.1613  0.1786 -0.0727
  339loPI    C2 5410  17.066   6.534  10.787 -0.0948  0.0909 -0.0071
  339loPI    C3 5411  16.711   6.400  10.661  0.0153  0.0207 -0.2479
  339loPI   PO4 5412  17.018   6.542  10.228  0.0447  0.1149  0.0781
  339loPI   GL1 5413  16.821   6.768   9.797 -0.0348  0.1640  0.0921
  339loPI   GL2 5414  16.536   6.662   9.878  0.1690 -0.1871  0.0728
  339loPI   C1A 5415  16.925   6.972   9.443 -0.2208  0.2429  0.3372
  339loPI   C2A 5416  17.292   7.314   9.461 -0.0644 -0.0720  0.1367
  339loPI   C3A 5417  17.536   7.596   9.296  0.1614 -0.1743 -0.1187
  339loPI   C4A 5418  17.366   7.667   8.844 -0.1082  0.1715  0.0509
  339loPI   C5A 5419  17.432   7.668   8.480 -0.3419 -0.0390  0.0789
  339loPI   C6A 5420  17.539   7.607   8.054  0.1440  0.2190 -0.3073
  339loPI   C1B 5421  16.455   6.598   9.448 -0.2208  0.0477  0.0149
  339loPI   C2B 5422  16.421   6.762   9.018  0.3442  0.2003  0.0436
  339loPI   C3B 5423  16.518   7.002   8.635  0.2429 -0.2307 -0.0219
  339loPI   C4B 5424  16.552   7.266   8.227 -0.0227  0.4309 -0.0731
  340loPI    C1 5425  10.609   8.581  10.097  0.0121 -0.1584  0.1125
  340loPI    C2 5426  10.990   8.699  10.065 -0.0456 -0.0821 -0.3679
  340loPI    C3 5427  10.870   8.493  10.387  0.3927 -0.0849 -0.2003
  340loPI   PO4 5428  10.559   8.455   9.914  0.1588  0.1215 -0.2639
  340loPI   GL1 5429  10.781   8.572   9.605  0.1549 -0.1722 -0.1228
  340loPI   GL2 5430  11.019   8.442   9.538 -0.1986  0.1186  0.3507
  340loPI   C1A 5431  10.649   8.869   9.357  0.2277 -0.2417  0.2472
  340loPI   C2A 5432  10.562   8.895   8.978 -0.3924 -0.1044  0.1400
  340loPI   C3A 5433  10.507   8.984   8.654  0.0628  0.2570 -0.1913
  340loPI   C4A 5434  10.562   8.983   8.225 -0.2721 -0.2749 -0.2187
  340loPI   C5A 5435  10.772   8.988   7.884  0.3001  0.1338 -0.4205
  340loPI   C6A 5436  10.777   8.798   7.441  0.0525  0.1058  0.0864
  340loPI   C1B 5437  10.949   8.601   9.040 -0.0998  0.0694 -0.1267
  340loPI   C2B 5438  10.928   8.588   8.716  0.2116 -0.2456  0.1643
  340loPI   C3B 5439  10.922   8.634   8.288  0.2727 -0.0797 -0.0427
  340loPI   C4B 5440  11.069   8.576   7.878  0.1561 -0.3476  0.0964
  341loPI    C1 5441   3.971   9.438  10.321  0.0574 -0.1426  0.1536
  341loPI    C2 5442   3.976   9.242  10.669  0.3461 -0.3244  0.0504
  341loPI    C3 5443   3.790   9.083  10.353  0.2143 -0.2303  0.0799
  341loPI   PO4 5444   3.882   9.749  10.369  0.2454  0.1705  0.1966
  341loPI   GL1 5445   3.826  10.158  10.096 -0.1583 -0.3147 -0.0952
  341loPI   GL2 5446   3.594  10.247   9.941  0.0469 -0.2092  0.2249
  341loPI   C1A 5447   4.125   9.952   9.769 -0.0223  0.0272  0.0408
  341loPI   C2A 5448   4.200   9.986   9.335  0.1263  0.1814 -0.1553
  341loPI   C3A 5449   4.152  10.123   8.968 -0.0528  0.2226  0.0331
  341loPI   C4A 5450   3.958  10.211   8.616 -0.2982 -0.1480  0.1073
  341loPI   C5A 5451   3.593  10.385   8.372  0.0073 -0.3652  0.0604
  341loPI   C6A 5452   3.158  10.249   8.270 -0.1940 -0.0579 -0.0090
  341loPI   C1B 5453   3.718  10.081   9.527 -0.2620  0.1579  0.2475
  341loPI   C2B 5454   3.634  10.125   9.140  0.1930  0.0797  0.1204
  341loPI   C3B 5455   3.467  10.440   8.908  0.1160 -0.1346 -0.0889
  341loPI   C4B 5456   3.208  10.656   8.568 -0.0235 -0.1304 -0.0928
  342loPI    C1 5457  11.780  15.565  10.244  0.0807  0.1310  0.2502
  342loPI    C2 5458  11.731  15.235  10.466  0.0796 -0.0078  0.0470
  342loPI    C3 5459  11.596  15.588  10.599  0.0416 -0.0961  0.2464
  342loPI   PO4 5460  11.757  15.547  10.007  0.0447 -0.1497 -0.1096
  342loPI   GL1 5461  11.885  15.416   9.687  0.0464  0.1216  0.0491
  342loPI   GL2 5462  11.961  15.138   9.557  0.1337 -0.4783  0.1685
  342loPI   C1A 5463  12.029  15.693   9.381 -0.1653  0.0122  0.1958
  342loPI   C2A 5464  12.175  15.772   9.011 -0.0210  0.1785 -0.2396
  342loPI   C3A 5465  12.192  15.914   8.556 -0.4097  0.2505  0.2208
  342loPI   C4A 5466  12.085  15.882   8.034 -0.1944  0.0128  0.1495
  342loPI   C5A 5467  11.994  15.787   7.672  0.3220 -0.1692  0.2205
  342loPI   C6A 5468  11.959  15.819   7.232  0.5599 -0.0642  0.2217
  342loPI   C1B 5469  11.962  15.193   9.146 -0.0540  0.2495 -0.0103
  342loPI   C2B 5470  11.893  15.041   8.747 -0.2679  0.2111  0.0966
  342loPI   C3B 5471  12.060  14.731   8.456  0.0989  0.0916  0.0917
  342loPI   C4B 5472  12.026  14.438   8.158  0.2665 -0.3743  0.1516
  343loPI    C1 5473   6.765  10.592  10.835  0.0817  0.0318 -0.1819
  343loPI    C2 5474   6.762  10.975  10.722  0.2224  0.0693 -0.0619
  343loPI    C3 5475   6.983  10.861  11.035 -0.0969 -0.0475  0.1257
  343loPI   PO4 5476   6.735  10.487  10.599  0.0325  0.4117 -0.0657
  343loPI   GL1 5477   6.686  10.399  10.208  0.0295  0.0177 -0.0943
  343loPI   GL2 5478   6.946  10.302  10.050  0.3704 -0.2208 -0.1497
  343loPI   C1A 5479   6.483  10.563   9.827  0.1190 -0.3980  0.1676
  343loPI   C2A 5480   6.441  10.697   9.377 -0.3082  0.0196  0.0548
  343loPI   C3A 5481   6.340  10.953   9.002 -0.0447  0.1440 -0.0204
  343loPI   C4A 5482   6.273  10.922   8.565  0.2891  0.3854 -0.2139
  343loPI   C5A 5483   6.328  10.430   8.367  0.2664 -0.0956 -0.2155
  343loPI   C6A 5484   6.354  10.032   8.081 -0.2532  0.1138 -0.0941
  343loPI   C1B 5485   6.962  10.505   9.738  0.2484  0.0983 -0.1267
  343loPI   C2B 5486   6.915  10.464   9.242  0.0190  0.0396  0.2763
  343loPI   C3B 5487   7.007  10.315   8.877  0.0061 -0.0133 -0.1201
  343loPI   C4B 5488   7.083  10.390   8.480 -0.1159  0.1233 -0.2916
  344loPI    C1 5489   2.843  17.890   9.459 -0.2153 -0.3953  0.0119
  344loPI    C2 5490   2.515  18.118   9.442  0.1706  0.1803 -0.0083
  344loPI    C3 5491   2.695  18.053   9.793 -0.0564 -0.2846  0.0295
  344loPI   PO4 5492   2.996  18.126   9.280  0.0397 -0.1882  0.2158
  344loPI   GL1 5493   2.937  18.176   8.861  0.1286 -0.1221 -0.0726
  344loPI   GL2 5494   2.629  18.052   8.906  0.3328  0.0358  0.1422
  344loPI   C1A 5495   3.077  18.127   8.446  0.0679 -0.2642 -0.2069
  344loPI   C2A 5496   3.166  18.048   7.997  0.0057  0.2556  0.2439
  344loPI   C3A 5497   2.884  17.879   7.739  0.0310 -0.1048 -0.1252
  344loPI   C4A 5498   2.744  17.430   7.618  0.0013 -0.1167 -0.0091
  344loPI   C5A 5499   2.427  17.029   7.734  0.1413 -0.3065 -0.0381
  344loPI   C6A 5500   2.232  16.758   7.935  0.0659  0.3388  0.0039
  344loPI   C1B 5501   2.563  18.223   8.483 -0.1389  0.3960 -0.0376
  344loPI   C2B 5502   2.638  18.180   8.114 -0.2225  0.0321 -0.1794
  344loPI   C3B 5503   2.583  18.337   7.798  0.2032 -0.1017 -0.3542
  344loPI   C4B 5504   2.549  18.593   7.420  0.1793  0.2190 -0.1680
  345loPI    C1 5505  13.117  16.582  10.373  0.0915 -0.0194 -0.0816
  345loPI    C2 5506  13.182  16.349  10.691  0.0506  0.1108  0.0232
  345loPI    C3 5507  12.892  16.624  10.701  0.0552  0.1218 -0.1238
  345loPI   PO4 5508  13.041  16.379  10.104 -0.1260 -0.2242 -0.0328
  345loPI   GL1 5509  13.132  16.545   9.650  0.1363  0.0029 -0.1767
  345loPI   GL2 5510  13.378  16.573   9.552 -0.1002  0.1426 -0.0168
  345loPI   C1A 5511  13.088  16.685   9.159  0.1087  0.2064  0.1323
  345loPI   C2A 5512  13.160  16.830   8.782 -0.1495 -0.0333  0.5454
  345loPI   C3A 5513  13.362  16.762   8.458 -0.0443  0.1173  0.1181
  345loPI   C4A 5514  13.486  16.864   8.045 -0.1574  0.2261  0.1974
  345loPI   C5A 5515  13.683  16.727   7.534  0.0792 -0.0272 -0.2348
  345loPI   C6A 5516  13.799  16.411   7.254  0.0790 -0.0304 -0.1089
  345loPI   C1B 5517  13.464  16.299   9.074  0.0292 -0.3292  0.1919
  345loPI   C2B 5518  13.518  16.298   8.607 -0.1871  0.2226 -0.1160
  345loPI   C3B 5519  13.449  16.141   8.230  0.2387 -0.0110  0.4439
  345loPI   C4B 5520  13.682  16.280   7.990  0.1735  0.1014  0.1650
  346loPI    C1 5521   0.021  10.848  10.182 -0.0445  0.1431 -0.0578
  346loPI    C2 5522  -0.271  11.121  10.191 -0.2049 -0.0327  0.2175
  346loPI    C3 5523  -0.199  10.895  10.513  0.0095 -0.2285  0.0354
  346loPI   PO4 5524   0.028  10.755   9.967  0.3861 -0.1206 -0.0786
  346loPI   GL1 5525   0.018  10.632   9.515  0.1763 -0.1192 -0.0044
  346loPI   GL2 5526   0.016  10.344   9.450 -0.0126  0.0051  0.2083
  346loPI   C1A 5527   0.105  10.872   9.153  0.2983 -0.4183  0.1350
  346loPI   C2A 5528   0.161  10.885   8.657 -0.1697 -0.0670 -0.0067
  346loPI   C3A 5529   0.149  10.963   8.310  0.4884 -0.1778 -0.2013
  346loPI   C4A 5530  -0.026  11.316   7.902  0.0248 -0.0293 -0.1919
  346loPI   C5A 5531  -0.291  11.606   7.646 -0.0041 -0.4179  0.0635
  346loPI   C6A 5532  -0.403  11.895   7.339 -0.0781  0.0084  0.0167
  346loPI   C1B 5533   0.388  10.150   9.272 -0.2446  0.2443  0.0570
  346loPI   C2B 5534   0.321  10.158   8.857 -0.2093 -0.0027 -0.1691
  346loPI   C3B 5535   0.097  10.225   8.536  0.2401  0.1349 -0.3096
  346loPI   C4B 5536   0.255  10.450   8.182  0.0128 -0.1224  0.0291
  347loPI    C1 5537  13.433   3.303  10.216 -0.3094  0.0978  0.1165
  347loPI    C2 5538  13.360   3.635  10.427 -0.1736  0.0922  0.1736
  347loPI    C3 5539  13.163   3.297  10.511 -0.1949  0.1167  0.2227
  347loPI   PO4 5540  13.435   3.361   9.954 -0.1637  0.0758 -0.0130
  347loPI   GL1 5541  13.514   3.325   9.537  0.0209  0.1853 -0.2997
  347loPI   GL2 5542  13.325   3.068   9.408 -0.0840 -0.3258  0.1074
  347loPI   C1A 5543  13.346   3.547   9.196  0.0743 -0.1656 -0.1123
  347loPI   C2A 5544  13.511   3.592   8.916 -0.0312 -0.0455  0.1120
  347loPI   C3A 5545  13.491   3.753   8.587  0.4593  0.1820  0.3279
  347loPI   C4A 5546  13.504   3.914   8.132  0.1654  0.1987 -0.1903
  347loPI   C5A 5547  13.833   4.021   7.705  0.1282  0.0243  0.0603
  347loPI   C6A 5548  14.194   3.819   7.426  0.1987  0.1041 -0.1667
  347loPI   C1B 5549  13.361   3.019   9.051 -0.0529  0.0481  0.1988
  347loPI   C2B 5550  13.265   3.189   8.634 -0.1493 -0.0334  0.0841
  347loPI   C3B 5551  13.110   3.452   8.375  0.0266 -0.0333 -0.0260
  347loPI   C4B 5552  12.957   3.546   7.940  0.0177 -0.2492  0.1927
  348loPI    C1 5553  18.313   5.663  10.105 -0.0273 -0.0994 -0.1028
  348loPI    C2 5554  17.974   5.704  10.313 -0.0345  0.0635 -0.1449
  348loPI    C3 5555  18.304   5.567  10.493 -0.0948  0.0045 -0.0784
  348loPI   PO4 5556  18.248   5.525   9.857 -0.0203 -0.3328  0.1274
  348loPI   GL1 5557  18.337   5.610   9.450  0.3409 -0.2123 -0.0130
  348loPI   GL2 5558  18.646   5.655   9.239  0.3802 -0.0316  0.0258
  348loPI   C1A 5559  18.118   5.681   9.035  0.0473  0.0526 -0.3650
  348loPI   C2A 5560  18.055   5.789   8.762 -0.0880  0.2384  0.3222
  348loPI   C3A 5561  17.957   5.701   8.289  0.0922  0.0046 -0.0192
  348loPI   C4A 5562  18.174   5.889   7.934  0.0709  0.0510 -0.4028
  348loPI   C5A 5563  18.208   5.790   7.477  0.0913 -0.0337  0.2153
  348loPI   C6A 5564  18.103   5.405   7.153 -0.1320 -0.3459  0.2452
  348loPI   C1B 5565  18.534   5.880   8.888  0.0997 -0.3334  0.2246
  348loPI   C2B 5566  18.476   5.955   8.503 -0.2056  0.1185 -0.1325
  348loPI   C3B 5567  18.575   6.047   8.118  0.1027 -0.2382  0.3368
  348loPI   C4B 5568  18.841   6.369   7.933  0.3120 -0.1201  0.0365
  349loPI    C1 5569  13.974   2.658  10.159  0.1118  0.1128  0.1371
  349loPI    C2 5570  13.628   2.792  10.308  0.0297  0.0000  0.0493
  349loPI    C3 5571  13.956   3.020  10.328 -0.0276  0.0689  0.2178
  349loPI   PO4 5572  13.967   2.591   9.925 -0.1281 -0.1596  0.1200
  349loPI   GL1 5573  14.083   2.669   9.553  0.2510  0.1393  0.0401
  349loPI   GL2 5574  14.404   2.691   9.358  0.4121 -0.0729 -0.3579
  349loPI   C1A 5575  13.883   3.031   9.271 -0.2518  0.1601 -0.0154
  349loPI   C2A 5576  13.915   3.187   8.970  0.0382 -0.1714 -0.2789
  349loPI   C3A 5577  13.756   3.263   8.560  0.3164  0.1883 -0.2398
  349loPI   C4A 5578  13.691   3.350   8.228  0.3116 -0.2586 -0.0716
  349loPI   C5A 5579  13.703   3.052   7.742  0.1694 -0.0999 -0.2428
  349loPI   C6A 5580  13.637   2.608   7.807 -0.2766 -0.4360 -0.0274
  349loPI   C1B 5581  14.213   2.823   8.908 -0.2206  0.1895 -0.0331
  349loPI   C2B 5582  14.148   2.938   8.536 -0.1996 -0.0671 -0.0650
  349loPI   C3B 5583  14.117   2.854   8.060 -0.2072 -0.0154  0.0713
  349loPI   C4B 5584  14.112   2.683   7.653 -0.3276  0.0920 -0.0973
  350loPI    C1 5585   2.230  10.651  10.222  0.0168  0.0172 -0.1519
  350loPI    C2 5586   1.840  10.649  10.134  0.0230 -0.1091 -0.1790
  350loPI    C3 5587   1.989  10.377  10.387  0.0436  0.1169  0.0570
  350loPI   PO4 5588   2.314  10.643  10.006 -0.3002 -0.0571 -0.1869
  350loPI   GL1 5589   2.082  10.747   9.688 -0.0895 -0.5649 -0.0235
  350loPI   GL2 5590   2.045  11.000   9.844  0.1989  0.0070 -0.0151
  350loPI   C1A 5591   2.133  10.854   9.280 -0.1165 -0.2594  0.1731
  350loPI   C2A 5592   2.345  10.751   8.907 -0.0400  0.1365 -0.2060
  350loPI   C3A 5593   2.293  10.867   8.529 -0.2159  0.1511  0.1268
  350loPI   C4A 5594   2.469  10.859   8.184  0.1514 -0.0188  0.2177
  350loPI   C5A 5595   2.229  10.964   7.740  0.3151 -0.0470  0.0974
  350loPI   C6A 5596   2.152  11.282   7.508  0.2952 -0.2213  0.1437
  350loPI   C1B 5597   1.904  11.304   9.486 -0.0041  0.3474  0.3644
  350loPI   C2B 5598   2.068  11.260   9.011  0.0238 -0.1355 -0.2341
  350loPI   C3B 5599   1.976  11.264   8.627  0.1034  0.3133  0.1468
  350loPI   C4B 5600   2.048  11.235   8.206  0.3402 -0.3555  0.0373
  351loPI    C1 5601  18.121  15.564  10.024 -0.0689  0.1481 -0.0900
  351loPI    C2 5602  18.039  15.848  10.293  0.0864  0.0465  0.0669
  351loPI    C3 5603  18.392  15.846  10.105 -0.0465  0.1552 -0.1886
  351loPI   PO4 5604  17.935  15.612   9.855 -0.0122 -0.0032  0.3046
  351loPI   GL1 5605  17.945  15.359   9.495 -0.2398 -0.4232  0.0023
  351loPI   GL2 5606  17.649  15.248   9.387  0.0771 -0.2286 -0.2069
  351loPI   C1A 5607  18.078  15.378   9.114  0.0400 -0.0697 -0.0485
  351loPI   C2A 5608  18.087  15.409   8.659 -0.1659 -0.2062 -0.0099
  351loPI   C3A 5609  18.369  15.494   8.334  0.0656  0.1022  0.2409
  351loPI   C4A 5610  18.488  15.619   7.897  0.2493  0.0511 -0.4117
  351loPI   C5A 5611  18.716  15.496   7.528 -0.2283 -0.1379  0.3032
  351loPI   C6A 5612  19.071  15.503   7.252 -0.0580 -0.0364 -0.0606
  351loPI   C1B 5613  17.720  15.037   9.009 -0.0592  0.0780 -0.0627
  351loPI   C2B 5614  17.691  15.127   8.526  0.1956 -0.0372 -0.4648
  351loPI   C3B 5615  17.751  15.425   8.266 -0.0268  0.4284 -0.3417
  351loPI   C4B 5616  17.956  15.514   7.890  0.0224  0.4986  0.1765
  352loPI    C1 5617   5.142  18.078  10.157 -0.1516 -0.0828 -0.1770
  352loPI    C2 5618   5.294  18.073  10.527  0.0162  0.3990 -0.2317
  352loPI    C3 5619   4.899  18.109  10.474 -0.0661 -0.1983 -0.0992
  352loPI   PO4 5620   5.282  17.940  10.075  0.0374 -0.1670  0.2819
  352loPI   GL1 5621   5.476  17.857   9.664 -0.1646  0.1477 -0.0631
  352loPI   GL2 5622   5.123  17.916   9.597  0.2214  0.0010 -0.1862
  352loPI   C1A 5623   5.697  17.790   9.307 -0.1245 -0.4555 -0.3946
  352loPI   C2A 5624   5.521  17.740   8.885 -0.1689 -0.0852  0.0199
  352loPI   C3A 5625   5.568  17.525   8.506 -0.0578 -0.0697 -0.2375
  352loPI   C4A 5626   5.670  17.369   8.014  0.2787  0.0345  0.0195
  352loPI   C5A 5627   5.792  17.623   7.561 -0.1380 -0.0300 -0.0976
  352loPI   C6A 5628   6.016  17.442   7.210  0.1770  0.0808  0.0999
  352loPI   C1B 5629   5.298  18.180   9.232  0.1335 -0.0331 -0.0502
  352loPI   C2B 5630   5.628  18.211   8.955 -0.0176 -0.1952  0.0304
  352loPI   C3B 5631   5.788  18.005   8.536 -0.1605  0.1386  0.0182
  352loPI   C4B 5632   5.969  17.822   8.238 -0.1381  0.0781 -0.0734
  353loPI    C1 5633  16.639  16.877  10.301  0.1117 -0.1424 -0.1377
  353loPI    C2 5634  16.908  17.053  10.540 -0.0923 -0.2070  0.1440
  353loPI    C3 5635  16.561  17.236  10.459 -0.0115 -0.1711 -0.1323
  353loPI   PO4 5636  16.851  16.874  10.004  0.1509 -0.0896  0.3540
  353loPI   GL1 5637  16.669  16.661   9.615 -0.2418  0.2856  0.1647
  353loPI   GL2 5638  16.740  16.291   9.550 -0.1509  0.1562  0.1713
  353loPI   C1A 5639  16.508  16.693   9.191  0.2671  0.0956  0.1784
  353loPI   C2A 5640  16.406  16.774   8.756 -0.0281  0.0855  0.1187
  353loPI   C3A 5641  16.367  16.721   8.338 -0.1215  0.1490 -0.1724
  353loPI   C4A 5642  16.291  16.538   7.884 -0.2131 -0.0716 -0.0720
  353loPI   C5A 5643  15.909  16.213   7.684 -0.1030  0.1086  0.0556
  353loPI   C6A 5644  15.533  16.098   7.529 -0.1108  0.0151  0.0184
  353loPI   C1B 5645  16.767  16.274   9.020 -0.2234 -0.0910 -0.1069
  353loPI   C2B 5646  16.658  16.208   8.596 -0.0692  0.3234 -0.0222
  353loPI   C3B 5647  16.533  16.225   8.220  0.0207 -0.0181 -0.2329
  353loPI   C4B 5648  16.467  15.938   7.880  0.0541 -0.0320 -0.1698
  354loPI    C1 5649  15.662  17.693  10.106  0.0954 -0.1637 -0.1007
  354loPI    C2 5650  15.659  17.321  10.254 -0.0592 -0.1188  0.0123
  354loPI    C3 5651  15.338  17.556  10.297 -0.0463 -0.0491 -0.2557
  354loPI   PO4 5652  15.707  17.704   9.791 -0.1182 -0.0915  0.0243
  354loPI   GL1 5653  15.944  17.632   9.509 -0.0279 -0.3216  0.1876
  354loPI   GL2 5654  16.132  17.532   9.457 -0.0607  0.0370 -0.4517
  354loPI   C1A 5655  16.003  17.857   9.157 -0.0414 -0.1180  0.0136
  354loPI   C2A 5656  15.952  17.827   8.748 -0.2557 -0.0425 -0.0807
  354loPI   C3A 5657  15.908  17.585   8.473 -0.1165 -0.2502  0.3486
  354loPI   C4A 5658  15.816  17.180   8.187 -0.0419 -0.2155  0.0433
  354loPI   C5A 5659  15.655  17.107   7.729 -0.2598  0.0089  0.1349
  354loPI   C6A 5660  15.751  17.100   7.285 -0.0732  0.0119 -0.1997
  354loPI   C1B 5661  16.372  17.572   9.082 -0.0913  0.1454 -0.0379
  354loPI   C2B 5662  16.380  17.601   8.612  0.1520 -0.0871 -0.2669
  354loPI   C3B 5663  16.536  17.603   8.069  0.0755 -0.2231 -0.2483
  354loPI   C4B 5664  16.570  17.514   7.572 -0.0587  0.0010 -0.1799
  355loPI    C1 5665   5.807  17.247  10.543  0.0693  0.1379  0.0446
  355loPI    C2 5666   5.578  17.574  10.549  0.2278  0.2548 -0.1289
  355loPI    C3 5667   5.597  17.337  10.871 -0.2008  0.1954 -0.1415
  355loPI   PO4 5668   5.777  17.225  10.263 -0.1487 -0.0859  0.0114
  355loPI   GL1 5669   5.884  17.000   9.861 -0.0982 -0.1182 -0.2591
  355loPI   GL2 5670   6.116  16.973   9.647 -0.1692  0.1576 -0.1989
  355loPI   C1A 5671   5.663  16.750   9.528  0.1257  0.1448  0.1182
  355loPI   C2A 5672   5.466  16.817   9.119 -0.2087 -0.3853 -0.0922
  355loPI   C3A 5673   5.642  17.096   8.737  0.3617  0.1461  0.4745
  355loPI   C4A 5674   5.944  17.250   8.463  0.0282  0.2664  0.0663
  355loPI   C5A 5675   6.132  17.151   8.021  0.2431  0.1242  0.1289
  355loPI   C6A 5676   6.089  17.022   7.629 -0.1601  0.2654  0.0102
  355loPI   C1B 5677   6.075  16.902   9.138 -0.1512  0.2513  0.2246
  355loPI   C2B 5678   6.120  16.788   8.733 -0.1442  0.0376 -0.2404
  355loPI   C3B 5679   6.162  16.732   8.373 -0.1161  0.0059  0.0176
  355loPI   C4B 5680   6.389  16.628   8.043  0.1423 -0.0914  0.0981
  356loPI    C1 5681   6.811  14.244  10.412 -0.0848 -0.0936  0.0306
  356loPI    C2 5682   6.787  14.311  10.806 -0.1985  0.1340 -0.0137
  356loPI    C3 5683   7.107  14.126  10.654 -0.1236  0.1047  0.1775
  356loPI   PO4 5684   6.586  14.115  10.359  0.1573 -0.3385 -0.2629
  356loPI   GL1 5685   6.317  13.986  10.124  0.4237  0.0657  0.2722
  356loPI   GL2 5686   6.646  13.825   9.911  0.1566  0.4299  0.0367
  356loPI   C1A 5687   6.245  13.817   9.596 -0.1411  0.3178 -0.1190
  356loPI   C2A 5688   6.346  13.995   9.208  0.0611  0.1570  0.1290
  356loPI   C3A 5689   6.340  14.031   8.742 -0.1785  0.1711 -0.1323
  356loPI   C4A 5690   6.383  14.060   8.298 -0.0444  0.0764 -0.1151
  356loPI   C5A 5691   6.563  14.156   7.987 -0.0551  0.0493  0.0722
  356loPI   C6A 5692   6.679  14.248   7.459  0.2859  0.0169  0.1130
  356loPI   C1B 5693   6.775  13.843   9.485 -0.0422  0.0006 -0.2464
  356loPI   C2B 5694   6.813  13.904   9.052  0.1596 -0.0010  0.2106
  356loPI   C3B 5695   6.940  13.944   8.665 -0.1644 -0.0045  0.0667
  356loPI   C4B 5696   7.026  14.090   8.307 -0.0199 -0.2896  0.1992
  357loPI    C1 5697   3.435   2.250  10.020  0.1509  0.0320  0.0238
  357loPI    C2 5698   3.748   2.239   9.771  0.0718  0.2033 -0.0853
  357loPI    C3 5699   3.800   2.169  10.161  0.1879 -0.1230 -0.1564
  357loPI   PO4 5700   3.248   2.175   9.854 -0.2262  0.0347 -0.2980
  357loPI   GL1 5701   3.349   2.213   9.471  0.3416 -0.2686 -0.0922
  357loPI   GL2 5702   3.498   1.792   9.575  0.0755 -0.0881 -0.2307
  357loPI   C1A 5703   3.404   2.322   9.108 -0.3839  0.0129 -0.0718
  357loPI   C2A 5704   3.684   2.420   8.864  0.2532 -0.0583 -0.2870
  357loPI   C3A 5705   3.770   2.680   8.454 -0.0375 -0.0319 -0.1234
  357loPI   C4A 5706   3.640   2.546   8.087 -0.0126 -0.0835  0.0058
  357loPI   C5A 5707   3.641   2.302   7.703  0.4770 -0.0989 -0.1582
  357loPI   C6A 5708   3.335   1.957   7.398 -0.5397  0.3421 -0.6606
  357loPI   C1B 5709   3.350   1.759   9.169 -0.1654  0.1649  0.1393
  357loPI   C2B 5710   3.415   2.006   8.725 -0.0832  0.1131  0.2170
  357loPI   C3B 5711   3.558   2.199   8.439 -0.0207 -0.3854 -0.1194
  357loPI   C4B 5712   3.671   1.882   8.098 -0.1295 -0.1031 -0.0648
  358loPI    C1 5713  13.684  17.963   9.980 -0.1160  0.0172  0.0020
  358loPI    C2 5714  13.628  18.070  10.361  0.0811 -0.0569  0.0532
  358loPI    C3 5715  13.523  18.319  10.066  0.2061  0.1277  0.1624
  358loPI   PO4 5716  13.634  17.690   9.914 -0.4047  0.1660  0.1556
  358loPI   GL1 5717  13.653  17.376   9.633  0.1103  0.1835 -0.2427
  358loPI   GL2 5718  13.991  17.385   9.644 -0.3104 -0.1645  0.0990
  358loPI   C1A 5719  13.582  17.353   9.307  0.2032 -0.2701 -0.3419
  358loPI   C2A 5720  13.532  17.203   8.939 -0.1022  0.2294  0.1756
  358loPI   C3A 5721  13.677  17.205   8.491  0.2578  0.1866  0.1094
  358loPI   C4A 5722  13.741  17.285   8.023 -0.0216 -0.0745 -0.1366
  358loPI   C5A 5723  13.933  17.632   7.857 -0.1530  0.0329  0.3626
  358loPI   C6A 5724  14.101  17.885   7.502  0.0579  0.0661 -0.0023
  358loPI   C1B 5725  14.065  17.234   9.265 -0.2317 -0.0936  0.1346
  358loPI   C2B 5726  14.071  17.134   8.767 -0.1400  0.1255 -0.1651
  358loPI   C3B 5727  14.206  17.193   8.351 -0.0265 -0.0016  0.1438
  358loPI   C4B 5728  14.311  17.244   7.972 -0.2041  0.0093  0.1506
  359loPI    C1 5729  16.445   9.479  10.324 -0.0392  0.0710 -0.0827
  359loPI    C2 5730  16.104   9.533  10.524 -0.0517  0.1737 -0.1314
  359loPI    C3 5731  16.182   9.179  10.357 -0.0260  0.0767  0.0825
  359loPI   PO4 5732  16.517   9.679  10.140  0.1892 -0.0258 -0.1275
  359loPI   GL1 5733  16.689   9.867   9.734 -0.3521  0.1999  0.1654
  359loPI   GL2 5734  16.604   9.595   9.538  0.0018  0.0825  0.0164
  359loPI   C1A 5735  16.491  10.134   9.430  0.1552  0.1107 -0.1827
  359loPI   C2A 5736  16.520  10.182   8.962 -0.0980  0.0064 -0.2949
  359loPI   C3A 5737  16.467  10.292   8.618  0.0294  0.1596  0.0352
  359loPI   C4A 5738  16.495  10.420   8.207 -0.1038  0.1322 -0.1925
  359loPI   C5A 5739  16.328  10.292   7.810 -0.1178  0.0182  0.1171
  359loPI   C6A 5740  15.959  10.392   7.637 -0.1775 -0.1308 -0.1053
  359loPI   C1B 5741  16.765   9.766   9.215 -0.1400 -0.0639  0.0178
  359loPI   C2B 5742  16.818   9.861   8.779 -0.0392 -0.3455  0.0806
  359loPI   C3B 5743  16.945  10.093   8.365  0.0030 -0.0053  0.0135
  359loPI   C4B 5744  17.079  10.343   7.934  0.0986 -0.0003  0.0520
  360loPI    C1 5745   1.090   9.512  10.114  0.0251  0.0404 -0.1104
  360loPI    C2 5746   0.888   9.750   9.865 -0.0351  0.0327 -0.0690
  360loPI    C3 5747   0.983   9.879  10.231 -0.1612 -0.0454 -0.0079
  360loPI   PO4 5748   1.189   9.340   9.961  0.1612 -0.0089  0.3547
  360loPI   GL1 5749   1.070   8.973   9.699  0.4057 -0.0856  0.0003
  360loPI   GL2 5750   1.064   8.610   9.526 -0.1599 -0.0408 -0.1525
  360loPI   C1A 5751   1.050   9.065   9.198  0.0794  0.2053 -0.2208
  360loPI   C2A 5752   0.923   9.151   8.791 -0.0773  0.0837  0.1940
  360loPI   C3A 5753   1.008   9.299   8.360 -0.2322 -0.1535 -0.1172
  360loPI   C4A 5754   0.855   9.176   8.016  0.2565  0.1999  0.0808
  360loPI   C5A 5755   0.854   9.290   7.642 -0.1875  0.0853 -0.1442
  360loPI   C6A 5756   0.409   9.502   7.404 -0.1177 -0.1468 -0.0761
  360loPI   C1B 5757   0.826   8.615   9.216  0.1059  0.0813  0.0573
  360loPI   C2B 5758   0.751   8.721   8.870 -0.1195  0.0953  0.0254
  360loPI   C3B 5759   0.677   8.768   8.501 -0.1175 -0.0898  0.0423
  360loPI   C4B 5760   0.627   8.661   8.089 -0.0561  0.0309 -0.2835
  361loPI    C1 5761  16.450  17.364   9.961  0.1828  0.0264 -0.4225
  361loPI    C2 5762  16.254  17.706   9.893 -0.2795 -0.1389  0.0106
  361loPI    C3 5763  16.577  17.704  10.129 -0.2751 -0.0027  0.0070
  361loPI   PO4 5764  16.517  17.261   9.836  0.1268 -0.5097  0.1456
  361loPI   GL1 5765  16.430  17.065   9.457  0.0734 -0.2848  0.2953
  361loPI   GL2 5766  16.169  17.100   9.239  0.2757  0.0305 -0.2631
  361loPI   C1A 5767  16.685  17.155   9.053 -0.1274  0.2732 -0.0441
  361loPI   C2A 5768  16.752  17.239   8.540  0.2088 -0.1131  0.0695
  361loPI   C3A 5769  16.693  17.074   8.133  0.2362 -0.2046  0.2108
  361loPI   C4A 5770  16.687  17.053   7.734 -0.0230 -0.3032  0.0235
  361loPI   C5A 5771  16.745  17.088   7.321  0.0616  0.0731 -0.0079
  361loPI   C6A 5772  17.027  17.054   7.001 -0.1515 -0.0730  0.4185
  361loPI   C1B 5773  16.126  17.196   8.813 -0.2991 -0.1172  0.1357
  361loPI   C2B 5774  16.311  17.189   8.381 -0.0827 -0.1463 -0.2858
  361loPI   C3B 5775  16.251  17.158   7.898  0.1284  0.0338 -0.2800
  361loPI   C4B 5776  16.160  17.426   7.768  0.6413  0.1461 -0.2081
  362loPI    C1 5777   2.798   6.858  10.386  0.1752 -0.1093 -0.2977
  362loPI    C2 5778   3.159   6.825  10.554  0.1346  0.0429 -0.1785
  362loPI    C3 5779   2.971   7.178  10.552 -0.1220 -0.0895 -0.0152
  362loPI   PO4 5780   2.791   6.795  10.181  0.0599  0.0358 -0.0331
  362loPI   GL1 5781   2.934   6.961   9.778  0.2856  0.1702 -0.1280
  362loPI   GL2 5782   2.918   6.803   9.517  0.1722 -0.1555 -0.0577
  362loPI   C1A 5783   3.319   7.034   9.377 -0.2896  0.1684 -0.3283
  362loPI   C2A 5784   3.403   7.186   8.885  0.0413  0.0233 -0.2132
  362loPI   C3A 5785   3.439   7.350   8.485  0.1414  0.0690 -0.1721
  362loPI   C4A 5786   3.589   7.116   8.200  0.0021  0.0594  0.2322
  362loPI   C5A 5787   3.549   7.143   7.903  0.0637 -0.2320  0.2186
  362loPI   C6A 5788   3.431   7.002   7.565  0.0651  0.0587  0.0924
  362loPI   C1B 5789   2.509   6.846   9.218  0.2585 -0.1328  0.0781
  362loPI   C2B 5790   2.406   7.044   8.831 -0.1812  0.0881  0.0710
  362loPI   C3B 5791   2.441   7.239   8.412 -0.2345 -0.4034 -0.0043
  362loPI   C4B 5792   2.555   7.154   7.945  0.1671  0.0670  0.1215
  363loPI    C1 5793  13.344   1.495  10.239 -0.1314  0.1980 -0.0558
  363loPI    C2 5794  13.518   1.180  10.065 -0.0411  0.2351 -0.0332
  363loPI    C3 5795  13.591   1.262  10.450 -0.2461  0.1490  0.0254
  363loPI   PO4 5796  13.090   1.510  10.121  0.2240 -0.4517  0.2036
  363loPI   GL1 5797  12.921   1.657   9.694  0.1149 -0.0978  0.0748
  363loPI   GL2 5798  13.045   1.863   9.490 -0.1057  0.3293  0.4775
  363loPI   C1A 5799  13.221   1.473   9.272 -0.2950  0.0069  0.1161
  363loPI   C2A 5800  13.173   1.285   8.926  0.0189 -0.1740 -0.1194
  363loPI   C3A 5801  13.016   1.325   8.549  0.0284 -0.0323 -0.1697
  363loPI   C4A 5802  13.053   1.453   8.200 -0.1527  0.1422  0.0431
  363loPI   C5A 5803  13.348   1.649   7.841 -0.0506  0.4997 -0.1875
  363loPI   C6A 5804  13.758   1.877   7.838  0.1387  0.0454  0.0152
  363loPI   C1B 5805  13.126   1.945   9.026 -0.1044  0.1570 -0.0262
  363loPI   C2B 5806  13.231   1.969   8.622  0.1016 -0.1071 -0.0049
  363loPI   C3B 5807  13.027   2.031   8.242  0.2804 -0.0627  0.2627
  363loPI   C4B 5808  12.828   1.861   7.869  0.1483 -0.0254 -0.1415
  364loPI    C1 5809   8.015   9.378  10.468  0.0041  0.1239 -0.0221
  364loPI    C2 5810   7.988   8.989  10.557  0.1636  0.0685 -0.2094
  364loPI    C3 5811   8.019   9.259  10.850  0.2569 -0.0765 -0.0845
  364loPI   PO4 5812   7.918   9.323  10.176  0.1820  0.0537  0.3459
  364loPI   GL1 5813   7.987   9.457   9.691  0.1932  0.1736  0.0107
  364loPI   GL2 5814   8.039   9.189   9.624  0.0362  0.0833 -0.2550
  364loPI   C1A 5815   8.025   9.515   9.289  0.0078 -0.2753  0.0312
  364loPI   C2A 5816   8.078   9.584   9.023  0.1382 -0.3397  0.0992
  364loPI   C3A 5817   8.358   9.591   8.665 -0.0670 -0.1441  0.2864
  364loPI   C4A 5818   8.217   9.592   8.261 -0.1404  0.0922 -0.0944
  364loPI   C5A 5819   8.023   9.706   7.909 -0.1737 -0.2323  0.2696
  364loPI   C6A 5820   7.615   9.820   7.735 -0.3144  0.3791 -0.2926
  364loPI   C1B 5821   7.673   9.218   9.289  0.0751 -0.2695 -0.3374
  364loPI   C2B 5822   7.324   9.413   8.991  0.0025  0.0974  0.5765
  364loPI   C3B 5823   7.382   9.480   8.526  0.1502  0.0160 -0.4298
  364loPI   C4B 5824   6.944   9.449   8.239  0.0411  0.3683  0.0383
  365loPI    C1 5825  13.071  15.466   9.894 -0.0889  0.1171 -0.0334
  365loPI    C2 5826  13.394  15.254   9.997 -0.1895 -0.0855 -0.1289
  365loPI    C3 5827  13.028  15.103  10.055 -0.2687  0.1387 -0.0301
  365loPI   PO4 5828  13.055  15.671   9.945 -0.2543  0.1579 -0.1034
  365loPI   GL1 5829  13.238  15.986   9.842 -0.1042 -0.0053 -0.0060
  365loPI   GL2 5830  13.574  16.180   9.776 -0.0962  0.1997 -0.1738
  365loPI   C1A 5831  13.177  16.070   9.470  0.1120  0.1299  0.0647
  365loPI   C2A 5832  13.114  15.946   9.101  0.3548  0.2829 -0.1097
  365loPI   C3A 5833  13.131  15.855   8.561 -0.1371  0.1111  0.1733
  365loPI   C4A 5834  13.176  15.739   8.140 -0.3295  0.4071 -0.2839
  365loPI   C5A 5835  13.149  16.119   7.806 -0.0081 -0.3605  0.0476
  365loPI   C6A 5836  13.244  16.570   7.695 -0.1839  0.3367  0.1947
  365loPI   C1B 5837  13.945  16.312   9.443  0.4847 -0.0618  0.1567
  365loPI   C2B 5838  13.970  16.211   9.020 -0.0087  0.1529 -0.0511
  365loPI   C3B 5839  13.954  16.160   8.482 -0.2127  0.1364 -0.1227
  365loPI   C4B 5840  14.124  16.378   8.222 -0.0535 -0.0106  0.0445
  366loPI    C1 5841  10.104   2.425  10.380 -0.1524 -0.0202 -0.2937
  366loPI    C2 5842  10.342   2.681  10.187  0.2556  0.0004  0.2156
  366loPI    C3 5843  10.126   2.806  10.500  0.0100 -0.1506  0.1091
  366loPI   PO4 5844   9.936   2.370  10.160 -0.3846 -0.1130 -0.2456
  366loPI   GL1 5845   9.887   2.485   9.743  0.0158  0.1626  0.1325
  366loPI   GL2 5846  10.167   2.339   9.587  0.0691 -0.2367 -0.1114
  366loPI   C1A 5847   9.659   2.504   9.395 -0.1730 -0.2457  0.3294
  366loPI   C2A 5848  10.022   2.485   9.073  0.0781 -0.1799  0.0451
  366loPI   C3A 5849  10.090   2.556   8.631  0.1301 -0.1776  0.0471
  366loPI   C4A 5850  10.070   2.737   8.334 -0.1484 -0.2188  0.0918
  366loPI   C5A 5851   9.971   2.871   7.931  0.0232 -0.0725  0.0296
  366loPI   C6A 5852   9.708   2.703   7.644 -0.0297  0.0679 -0.2018
  366loPI   C1B 5853  10.232   1.997   9.324  0.1296 -0.0998  0.0593
  366loPI   C2B 5854  10.126   1.979   8.924  0.0396 -0.2464  0.0495
  366loPI   C3B 5855  10.015   2.046   8.539 -0.0267  0.2377  0.0738
  366loPI   C4B 5856  10.022   1.883   8.094 -0.3943 -0.2005  0.1810
  367loPI    C1 5857   6.775  15.844  10.626  0.2003 -0.1140 -0.1132
  367loPI    C2 5858   6.859  15.475  10.757  0.3001 -0.0548 -0.0088
  367loPI    C3 5859   7.085  15.785  10.872  0.3370  0.0111 -0.2531
  367loPI   PO4 5860   6.748  15.802  10.341  0.2679 -0.3431  0.0864
  367loPI   GL1 5861   6.844  15.646   9.968  0.1515 -0.1029 -0.2051
  367loPI   GL2 5862   6.794  15.253   9.889 -0.3007 -0.3465 -0.1630
  367loPI   C1A 5863   6.841  15.660   9.512 -0.2149 -0.0880 -0.2962
  367loPI   C2A 5864   6.773  15.599   9.089 -0.1680 -0.1949 -0.1081
  367loPI   C3A 5865   6.808  15.486   8.690 -0.2684  0.2994 -0.2359
  367loPI   C4A 5866   7.024  15.228   8.383 -0.0176  0.0534 -0.1784
  367loPI   C5A 5867   6.813  15.284   8.032 -0.1415  0.0377 -0.0192
  367loPI   C6A 5868   6.558  15.353   7.635  0.1363  0.1308 -0.3960
  367loPI   C1B 5869   6.590  15.179   9.531 -0.1010  0.3152  0.2594
  367loPI   C2B 5870   6.553  15.046   9.133 -0.1385 -0.3640  0.2355
  367loPI   C3B 5871   6.661  15.051   8.826  0.1460  0.2504 -0.0297
  367loPI   C4B 5872   6.575  14.932   8.421 -0.1542  0.0563 -0.2915
  368loPI    C1 5873  11.449  13.444  10.280  0.3551  0.2962 -0.2188
  368loPI    C2 5874  11.075  13.584  10.305  0.2130 -0.1088  0.0221
  368loPI    C3 5875  11.331  13.641  10.608  0.1877 -0.2705  0.0748
  368loPI   PO4 5876  11.489  13.457  10.095  0.0481 -0.0367  0.1446
  368loPI   GL1 5877  11.730  13.349   9.744 -0.2223  0.1206  0.2361
  368loPI   GL2 5878  11.497  13.040   9.717  0.1216  0.2271 -0.2496
  368loPI   C1A 5879  11.544  13.476   9.302  0.2045  0.0163 -0.1303
  368loPI   C2A 5880  11.592  13.475   8.814 -0.0832  0.2455  0.2711
  368loPI   C3A 5881  11.670  13.517   8.368  0.1326 -0.0279 -0.2082
  368loPI   C4A 5882  11.782  13.184   8.038 -0.0375  0.0070  0.0377
  368loPI   C5A 5883  11.815  12.791   7.858 -0.3459 -0.1262  0.0289
  368loPI   C6A 5884  11.606  12.393   7.854  0.0302 -0.1331 -0.2714
  368loPI   C1B 5885  11.663  13.029   9.338 -0.1548  0.1251 -0.1925
  368loPI   C2B 5886  11.668  12.915   8.909  0.1226  0.3450  0.0101
  368loPI   C3B 5887  11.471  12.995   8.631 -0.2107 -0.1436  0.0314
  368loPI   C4B 5888  11.246  13.258   8.288  0.0886 -0.1344  0.0038
  369loPI    C1 5889   1.150   4.515   9.925 -0.1086 -0.2116  0.2887
  369loPI    C2 5890   1.448   4.565  10.187  0.1999 -0.3341 -0.0295
  369loPI    C3 5891   1.338   4.867   9.949  0.0760 -0.2929  0.0788
  369loPI   PO4 5892   1.171   4.305   9.846  0.1139 -0.2576  0.0183
  369loPI   GL1 5893   1.113   4.095   9.492  0.2633 -0.3537 -0.3544
  369loPI   GL2 5894   1.407   4.182   9.404 -0.1116 -0.1491 -0.2920
  369loPI   C1A 5895   0.892   4.333   9.185  0.0144  0.1936 -0.2300
  369loPI   C2A 5896   0.994   4.434   8.704 -0.0585 -0.0965  0.1379
  369loPI   C3A 5897   1.005   4.373   8.233 -0.2131 -0.3663  0.1024
  369loPI   C4A 5898   0.818   4.193   7.813 -0.0254  0.0181  0.0945
  369loPI   C5A 5899   0.759   3.865   7.490 -0.2706  0.4077  0.1942
  369loPI   C6A 5900   0.685   3.564   7.255 -0.0046 -0.3623 -0.0682
  369loPI   C1B 5901   1.383   4.226   8.976 -0.0388  0.0503 -0.0848
  369loPI   C2B 5902   1.462   4.229   8.486 -0.0381  0.2975  0.1210
  369loPI   C3B 5903   1.440   4.048   7.999  0.0806  0.0389 -0.2341
  369loPI   C4B 5904   1.623   3.940   7.602  0.1666 -0.0287  0.2234
  370loPI    C1 5905  14.769   9.658  10.197 -0.1759 -0.0457 -0.1067
  370loPI    C2 5906  14.812   9.388  10.489  0.2674  0.0694 -0.0574
  370loPI    C3 5907  14.689   9.759  10.575 -0.1482 -0.0535 -0.0988
  370loPI   PO4 5908  14.986   9.712  10.133  0.2308  0.0714  0.0127
  370loPI   GL1 5909  15.272   9.561   9.810  0.0489 -0.3856  0.2449
  370loPI   GL2 5910  15.006   9.302   9.836  0.0327  0.0031 -0.0428
  370loPI   C1A 5911  15.313   9.317   9.397 -0.0641 -0.2101 -0.1882
  370loPI   C2A 5912  15.445   8.942   9.179  0.1468  0.2062 -0.1481
  370loPI   C3A 5913  15.756   8.806   8.841 -0.0070  0.2457 -0.3376
  370loPI   C4A 5914  15.802   8.939   8.435  0.0254 -0.2015 -0.0947
  370loPI   C5A 5915  15.659   8.781   7.985  0.1237  0.0928  0.0746
  370loPI   C6A 5916  15.693   8.605   7.579  0.1431 -0.0335  0.1191
  370loPI   C1B 5917  14.796   9.414   9.404 -0.2484  0.1311 -0.0076
  370loPI   C2B 5918  14.994   9.490   8.926  0.2612 -0.0156 -0.0579
  370loPI   C3B 5919  15.181   9.501   8.520  0.3656 -0.0250 -0.1045
  370loPI   C4B 5920  15.542   9.335   8.309  0.0361  0.1003  0.0042
  371loPI    C1 5921   9.757   6.344  10.307  0.0258  0.1236  0.1246
  371loPI    C2 5922   9.736   6.092  10.616  0.2503  0.0853  0.1108
  371loPI    C3 5923  10.052   6.333  10.578  0.0985  0.2772  0.0530
  371loPI   PO4 5924   9.546   6.456  10.239  0.0291 -0.0336 -0.4012
  371loPI   GL1 5925   9.241   6.475  10.017  0.2716  0.0619 -0.2618
  371loPI   GL2 5926   9.153   6.716   9.908 -0.2174  0.2745 -0.0735
  371loPI   C1A 5927   9.355   6.184   9.680 -0.2776  0.0016  0.0950
  371loPI   C2A 5928   9.431   6.102   9.232  0.0915 -0.1222 -0.3957
  371loPI   C3A 5929   9.420   6.221   8.813  0.0705  0.1220 -0.0086
  371loPI   C4A 5930   9.509   6.053   8.341  0.0837 -0.4883  0.1356
  371loPI   C5A 5931   9.481   5.725   8.013  0.1986  0.3025 -0.0772
  371loPI   C6A 5932   9.450   5.230   7.911 -0.1416 -0.1268  0.0788
  371loPI   C1B 5933   9.232   6.645   9.487  0.0706 -0.0427  0.0312
  371loPI   C2B 5934   9.430   6.670   9.130  0.4120  0.4359  0.3074
  371loPI   C3B 5935   9.561   6.710   8.789  0.0461 -0.0809  0.0436
  371loPI   C4B 5936   9.747   6.821   8.385 -0.0833  0.1283  0.3063
  372loPI    C1 5937   6.221  11.651  10.670 -0.0404 -0.1956 -0.0347
  372loPI    C2 5938   6.577  11.637  10.852 -0.1060  0.2365  0.1390
  372loPI    C3 5939   6.307  11.911  10.962 -0.4074  0.0622 -0.1490
  372loPI   PO4 5940   6.177  11.362  10.535 -0.1097 -0.1173  0.3244
  372loPI   GL1 5941   5.904  11.236  10.199 -0.3668 -0.1839 -0.0016
  372loPI   GL2 5942   6.065  11.175  10.018 -0.1310 -0.0365 -0.5434
  372loPI   C1A 5943   5.617  11.051   9.777 -0.3999  0.3295 -0.0436
  372loPI   C2A 5944   5.363  11.091   9.428  0.4459  0.1431 -0.1204
  372loPI   C3A 5945   5.315  11.089   9.001  0.2606  0.2365 -0.0346
  372loPI   C4A 5946   5.300  11.070   8.599  0.0087  0.1062  0.0959
  372loPI   C5A 5947   5.399  11.221   8.228 -0.3336 -0.1808  0.0805
  372loPI   C6A 5948   5.536  11.638   7.987  0.1060  0.0912  0.2157
  372loPI   C1B 5949   6.088  11.018   9.534  0.0924  0.1936 -0.1258
  372loPI   C2B 5950   5.935  10.777   9.206  0.2233 -0.2973 -0.1051
  372loPI   C3B 5951   5.849  10.492   8.787  0.0888  0.0331 -0.0793
  372loPI   C4B 5952   5.788  10.260   8.340 -0.1283  0.1784 -0.1544
  373loPI    C1 5953   2.137   7.931   9.987 -0.1195  0.0433 -0.0963
  373loPI    C2 5954   1.793   8.131  10.030 -0.0405  0.1396  0.1015
  373loPI    C3 5955   2.109   8.227  10.255  0.0594 -0.0751  0.0554
  373loPI   PO4 5956   2.044   7.659   9.853 -0.0435 -0.0826  0.1598
  373loPI   GL1 5957   2.202   7.366   9.726 -0.3324  0.2025 -0.0050
  373loPI   GL2 5958   2.574   7.222   9.565 -0.1665  0.0806 -0.0805
  373loPI   C1A 5959   2.192   7.274   9.290  0.1585 -0.0984  0.2010
  373loPI   C2A 5960   2.068   7.491   8.956 -0.1344 -0.0625  0.2123
  373loPI   C3A 5961   1.744   7.756   8.759 -0.1838  0.0054 -0.1051
  373loPI   C4A 5962   1.578   7.899   8.341 -0.1220 -0.0372  0.1140
  373loPI   C5A 5963   1.430   7.935   7.888 -0.0809  0.2257 -0.3974
  373loPI   C6A 5964   1.628   7.935   7.470  0.1852  0.6146  0.0984
  373loPI   C1B 5965   2.863   7.170   9.199 -0.1965  0.1748  0.0228
  373loPI   C2B 5966   2.912   7.186   8.711  0.2189  0.1418 -0.1309
  373loPI   C3B 5967   2.942   7.279   8.294  0.0089  0.0964  0.1218
  373loPI   C4B 5968   3.017   7.456   7.916 -0.1657  0.0984 -0.2473
  374loPI    C1 5969   9.678  10.852  10.286  0.0299  0.1351  0.0083
  374loPI    C2 5970  10.039  10.910  10.123  0.0950 -0.0083  0.0993
  374loPI    C3 5971  10.002  10.872  10.520 -0.0151 -0.0362  0.0868
  374loPI   PO4 5972   9.578  10.685  10.076  0.1415  0.0065 -0.1993
  374loPI   GL1 5973   9.640  10.930   9.696 -0.0780 -0.2731  0.0063
  374loPI   GL2 5974   9.907  10.770   9.633 -0.1341 -0.1158  0.0691
  374loPI   C1A 5975   9.852  11.311   9.565  0.1646 -0.0733 -0.2807
  374loPI   C2A 5976   9.832  11.420   9.033  0.3292 -0.2945 -0.2580
  374loPI   C3A 5977   9.511  11.522   8.736  0.2373 -0.1206  0.0931
  374loPI   C4A 5978   9.361  11.702   8.312 -0.3651  0.0389 -0.1319
  374loPI   C5A 5979   9.564  11.855   7.886  0.2996 -0.2279 -0.1729
  374loPI   C6A 5980  10.014  12.120   7.883 -0.1263 -0.0508 -0.0467
  374loPI   C1B 5981   9.795  10.950   9.218 -0.1430  0.1215 -0.0509
  374loPI   C2B 5982   9.818  10.976   8.813  0.2950  0.0292 -0.0353
  374loPI   C3B 5983   9.735  10.745   8.457  0.4980  0.1694  0.1601
  374loPI   C4B 5984   9.441  10.548   8.160 -0.1651  0.2072 -0.0872
  375loPI    C1 5985  12.164   6.790  10.108 -0.2342 -0.1049  0.0027
  375loPI    C2 5986  11.984   6.812  10.465  0.0413 -0.1770  0.1495
  375loPI    C3 5987  12.017   7.139  10.237 -0.0471 -0.1085  0.2341
  375loPI   PO4 5988  12.027   6.600   9.996 -0.0353 -0.0921 -0.0319
  375loPI   GL1 5989  12.017   6.452   9.609 -0.1537 -0.2150 -0.0976
  375loPI   GL2 5990  11.766   6.481   9.519 -0.1953  0.2804  0.1208
  375loPI   C1A 5991  12.270   6.413   9.268  0.2534  0.0236  0.1078
  375loPI   C2A 5992  12.157   6.257   8.884 -0.2221  0.0354 -0.2623
  375loPI   C3A 5993  12.157   6.238   8.480  0.2012  0.1343  0.0169
  375loPI   C4A 5994  12.381   6.355   8.123 -0.1997  0.4119  0.2247
  375loPI   C5A 5995  12.746   6.339   7.939 -0.0884  0.0497  0.0400
  375loPI   C6A 5996  13.240   6.313   8.022 -0.3565 -0.0802  0.0781
  375loPI   C1B 5997  11.751   6.395   9.075  0.3008 -0.1116  0.2176
  375loPI   C2B 5998  11.716   6.315   8.715  0.2361 -0.0767 -0.7092
  375loPI   C3B 5999  11.674   6.027   8.391 -0.1379 -0.0304 -0.2229
  375loPI   C4B 6000  11.990   5.943   8.090 -0.0694 -0.2030  0.1559
  376loPI    C1 6001  17.247  17.146  10.128 -0.0043  0.1701 -0.0026
  376loPI    C2 6002  17.410  17.501  10.212  0.2478 -0.0119  0.2991
  376loPI    C3 6003  17.022  17.438  10.285  0.2360  0.1538  0.3865
  376loPI   PO4 6004  17.384  17.085   9.803 -0.2136  0.0707  0.0491
  376loPI   GL1 6005  17.410  17.149   9.410  0.3960 -0.3243 -0.3080
  376loPI   GL2 6006  17.600  16.798   9.442 -0.1817 -0.2603  0.1679
  376loPI   C1A 6007  17.181  17.196   9.077  0.1472 -0.0274 -0.1476
  376loPI   C2A 6008  17.280  17.277   8.725  0.1206  0.0870  0.1656
  376loPI   C3A 6009  17.190  17.314   8.316 -0.0153 -0.1136 -0.2231
  376loPI   C4A 6010  17.046  17.451   7.932  0.3766 -0.0771 -0.1463
  376loPI   C5A 6011  17.161  17.413   7.600 -0.1870  0.0741  0.0742
  376loPI   C6A 6012  17.396  17.122   7.327 -0.0362  0.0489 -0.1003
  376loPI   C1B 6013  17.556  16.808   8.993 -0.0572  0.0236  0.0360
  376loPI   C2B 6014  17.577  16.865   8.469  0.3839 -0.2021  0.1793
  376loPI   C3B 6015  17.492  16.937   8.086  0.2495  0.0291 -0.0180
  376loPI   C4B 6016  17.284  16.924   7.772  0.2295 -0.2771 -0.0458
  377loPI    C1 6017  13.397   9.064  10.320  0.0035 -0.0073  0.0278
  377loPI    C2 6018  13.030   8.988  10.461  0.0618  0.0946  0.2383
  377loPI    C3 6019  13.351   8.838  10.648  0.1301  0.0382  0.0775
  377loPI   PO4 6020  13.398   9.233  10.139  0.2293  0.2496  0.1332
  377loPI   GL1 6021  13.343   9.218   9.712  0.0277 -0.3665  0.0155
  377loPI   GL2 6022  13.116   9.415   9.640 -0.1683  0.1157 -0.0023
  377loPI   C1A 6023  13.236   8.934   9.403  0.2235 -0.3495 -0.0975
  377loPI   C2A 6024  13.443   8.825   9.059  0.1650  0.0534  0.1231
  377loPI   C3A 6025  13.627   8.883   8.699  0.0363  0.1509 -0.3238
  377loPI   C4A 6026  13.570   9.084   8.340 -0.0773 -0.3291 -0.4452
  377loPI   C5A 6027  13.592   9.227   7.984 -0.2208 -0.1141 -0.0457
  377loPI   C6A 6028  13.839   9.409   7.589  0.1487 -0.1564 -0.2488
  377loPI   C1B 6029  13.086   9.443   9.145  0.0500  0.2858  0.3800
  377loPI   C2B 6030  13.156   9.236   8.747  0.3350 -0.1318  0.0305
  377loPI   C3B 6031  13.053   9.154   8.425  0.1716 -0.1621 -0.2521
  377loPI   C4B 6032  13.102   9.003   7.979  0.1009 -0.0439  0.0290
  378loPI    C1 6033  11.377  16.305  10.032  0.1483 -0.1067  0.0318
  378loPI    C2 6034  11.142  16.621  10.096  0.2015 -0.0486 -0.0559
  378loPI    C3 6035  11.082  16.283  10.301  0.0189 -0.0465 -0.1035
  378loPI   PO4 6036  11.415  16.169   9.858 -0.1360  0.1361  0.2305
  378loPI   GL1 6037  11.432  15.849   9.573 -0.0110  0.1328  0.0095
  378loPI   GL2 6038  11.751  15.981   9.643  0.2926 -0.1863 -0.0166
  378loPI   C1A 6039  11.507  15.595   9.192 -0.2230  0.0597 -0.0245
  378loPI   C2A 6040  11.692  15.524   8.822  0.0343 -0.2796 -0.2942
  378loPI   C3A 6041  11.942  15.447   8.460 -0.0951  0.0961 -0.1394
  378loPI   C4A 6042  11.695  15.169   8.204 -0.0788  0.1030 -0.2245
  378loPI   C5A 6043  11.713  14.843   8.049 -0.0107 -0.0548 -0.1236
  378loPI   C6A 6044  11.686  14.562   7.777  0.1517 -0.1003 -0.3227
  378loPI   C1B 6045  11.792  16.122   9.220  0.2814  0.1689  0.2669
  378loPI   C2B 6046  11.838  16.082   8.848 -0.0600  0.3159  0.1403
  378loPI   C3B 6047  11.621  15.896   8.475  0.0990 -0.0217 -0.1744
  378loPI   C4B 6048  11.632  15.610   8.021 -0.0987  0.0546 -0.3162
  379loPI    C1 6049  11.307   6.553  10.298  0.1963 -0.2059 -0.0421
  379loPI    C2 6050  11.557   6.470   9.997  0.3619  0.0412  0.0239
  379loPI    C3 6051  11.564   6.831  10.168 -0.0179  0.0393  0.0514
  379loPI   PO4 6052  11.072   6.415  10.114  0.2169  0.0270 -0.0513
  379loPI   GL1 6053  10.905   6.189   9.763 -0.0134 -0.2853 -0.2701
  379loPI   GL2 6054  11.228   6.289   9.690  0.0967  0.0646  0.1384
  379loPI   C1A 6055  11.133   5.839   9.523 -0.0059 -0.4985 -0.1145
  379loPI   C2A 6056  10.971   5.829   9.111  0.2117  0.1431  0.2040
  379loPI   C3A 6057  10.807   5.993   8.742  0.0920 -0.2228  0.3148
  379loPI   C4A 6058  10.766   5.965   8.261  0.0131 -0.1458  0.0408
  379loPI   C5A 6059  10.496   5.740   7.990  0.1151 -0.4115 -0.0294
  379loPI   C6A 6060  10.309   5.604   7.524  0.0283  0.3597  0.0417
  379loPI   C1B 6061  11.293   6.341   9.299 -0.2087  0.3922 -0.2773
  379loPI   C2B 6062  11.277   6.176   8.868 -0.2264 -0.1722  0.2219
  379loPI   C3B 6063  11.263   6.277   8.477 -0.2167  0.1058 -0.0111
  379loPI   C4B 6064  11.289   6.220   8.080  0.1065  0.1379 -0.1115
  380loPI    C1 6065   7.094  12.318  10.333  0.2443 -0.2326  0.1216
  380loPI    C2 6066   7.339  12.492  10.597 -0.0336  0.1598  0.1296
  380loPI    C3 6067   7.001  12.318  10.722  0.0497 -0.0416  0.0776
  380loPI   PO4 6068   7.154  12.417  10.136  0.2909  0.0759  0.0776
  380loPI   GL1 6069   7.380  12.271   9.829 -0.1650 -0.1164 -0.0025
  380loPI   GL2 6070   7.149  12.082   9.737 -0.1495  0.1422 -0.0389
  380loPI   C1A 6071   7.597  12.408   9.495  0.0892 -0.2078  0.1273
  380loPI   C2A 6072   7.515  12.411   8.951 -0.0825  0.0696  0.4106
  380loPI   C3A 6073   7.515  12.378   8.432  0.4094  0.1135  0.0636
  380loPI   C4A 6074   7.205  12.345   8.038 -0.0157  0.0344  0.2359
  380loPI   C5A 6075   6.728  12.424   7.958 -0.0830  0.2516 -0.1433
  380loPI   C6A 6076   6.372  12.258   7.772  0.1102  0.0604  0.2852
  380loPI   C1B 6077   7.519  11.921   9.456 -0.1837 -0.2338 -0.1513
  380loPI   C2B 6078   7.547  11.917   9.066 -0.3622 -0.1068 -0.0485
  380loPI   C3B 6079   7.369  11.843   8.723 -0.1619 -0.0238 -0.1001
  380loPI   C4B 6080   6.928  11.834   8.553  0.0300  0.5264  0.0500
  381loPI    C1 6081  18.458   3.952   9.916 -0.1258 -0.1077 -0.0426
  381loPI    C2 6082  18.537   4.340   9.969  0.0963 -0.1407 -0.1231
  381loPI    C3 6083  18.494   4.100  10.286 -0.0857 -0.0432 -0.0723
  381loPI   PO4 6084  18.291   3.932   9.795  0.1878 -0.0174  0.0857
  381loPI   GL1 6085  18.229   4.135   9.394 -0.0497  0.3612 -0.6218
  381loPI   GL2 6086  18.484   4.258   9.493  0.1684  0.0410 -0.1036
  381loPI   C1A 6087  18.130   4.249   9.032  0.1648 -0.0885 -0.0173
  381loPI   C2A 6088  18.147   4.357   8.658  0.1333 -0.0605  0.1613
  381loPI   C3A 6089  18.132   4.276   8.210  0.0659  0.1273 -0.2221
  381loPI   C4A 6090  18.175   4.513   8.098 -0.1983 -0.0491 -0.0945
  381loPI   C5A 6091  18.093   4.832   7.868  0.0222 -0.2871  0.2152
  381loPI   C6A 6092  18.133   4.803   7.463 -0.2253 -0.3544 -0.1408
  381loPI   C1B 6093  18.638   4.302   9.065  0.0107 -0.0567  0.1374
  381loPI   C2B 6094  18.752   4.395   8.614 -0.0482 -0.0353  0.1134
  381loPI   C3B 6095  18.677   4.312   8.182 -0.1744  0.0340 -0.1206
  381loPI   C4B 6096  18.462   4.178   7.862 -0.1025  0.3330  0.0937
  382loPI    C1 6097   1.468  12.750  10.266  0.0045 -0.1372 -0.0541
  382loPI    C2 6098   1.797  12.791  10.490  0.0152 -0.0481 -0.0858
  382loPI    C3 6099   1.479  12.598  10.636  0.0513 -0.0613 -0.0241
  382loPI   PO4 6100   1.602  12.813   9.943  0.1891  0.0118 -0.0765
  382loPI   GL1 6101   1.789  12.747   9.605  0.0821  0.1241 -0.0515
  382loPI   GL2 6102   1.943  12.500   9.687  0.0609 -0.1068 -0.4636
  382loPI   C1A 6103   1.580  12.650   9.218 -0.2880 -0.2102 -0.2022
  382loPI   C2A 6104   1.436  12.808   8.811 -0.1552  0.3593 -0.0642
  382loPI   C3A 6105   1.394  13.009   8.461 -0.1470 -0.1516  0.0803
  382loPI   C4A 6106   1.484  13.027   8.035 -0.1425 -0.1202  0.1767
  382loPI   C5A 6107   1.900  13.096   7.846 -0.1311  0.1177  0.2663
  382loPI   C6A 6108   2.304  13.176   7.697 -0.5128 -0.2361 -0.1340
  382loPI   C1B 6109   2.113  12.616   9.296 -0.1247 -0.0627  0.4154
  382loPI   C2B 6110   1.969  12.637   8.890 -0.2070 -0.0189  0.1311
  382loPI   C3B 6111   1.869  12.666   8.475  0.0119  0.0602  0.0388
  382loPI   C4B 6112   1.622  12.610   8.127 -0.0005  0.1785 -0.3207
  383loPI    C1 6113   9.709   8.174  10.235  0.3251 -0.0857 -0.2114
  383loPI    C2 6114   9.718   7.914   9.931  0.1557 -0.1729 -0.1428
  383loPI    C3 6115   9.917   7.834  10.269  0.0097 -0.2702 -0.0783
  383loPI   PO4 6116   9.683   8.399  10.052 -0.0636 -0.3360 -0.2738
  383loPI   GL1 6117   9.682   8.435   9.682 -0.1712  0.2566 -0.0486
  383loPI   GL2 6118   9.716   8.811   9.609 -0.0558  0.0263  0.0441
  383loPI   C1A 6119   9.768   8.159   9.407 -0.1371 -0.0024 -0.2008
  383loPI   C2A 6120   9.556   7.957   9.085 -0.0281  0.0909  0.0091
  383loPI   C3A 6121   9.565   7.818   8.730 -0.3156  0.1058 -0.0380
  383loPI   C4A 6122   9.618   7.941   8.265  0.3018  0.0270 -0.2158
  383loPI   C5A 6123   9.540   8.165   7.936  0.2838  0.0236 -0.1445
  383loPI   C6A 6124   9.512   8.518   7.616 -0.0280 -0.0860 -0.1220
  383loPI   C1B 6125   9.580   8.645   9.231  0.1116  0.0831 -0.1620
  383loPI   C2B 6126   9.759   8.301   8.821  0.0900 -0.2440 -0.1335
  383loPI   C3B 6127   9.967   8.237   8.418  0.2336 -0.1294  0.0561
  383loPI   C4B 6128  10.300   8.031   8.301  0.3416  0.1212 -0.1192
  384loPI    C1 6129   1.629  14.171  10.408  0.0082 -0.1542 -0.0919
  384loPI    C2 6130   1.355  14.146  10.117 -0.1156 -0.0856  0.0174
  384loPI    C3 6131   1.367  14.469  10.352  0.1511 -0.0244 -0.0767
  384loPI   PO4 6132   1.819  14.090  10.135 -0.0186  0.2300  0.1568
  384loPI   GL1 6133   1.805  13.972   9.735 -0.0404  0.0129 -0.4180
  384loPI   GL2 6134   1.830  14.307   9.588 -0.2132  0.0700 -0.3761
  384loPI   C1A 6135   1.811  13.756   9.440  0.2322  0.0983  0.0572
  384loPI   C2A 6136   1.804  13.793   9.011  0.2343 -0.0788  0.2329
  384loPI   C3A 6137   1.688  13.794   8.568 -0.4060 -0.0204  0.1171
  384loPI   C4A 6138   1.818  13.900   8.098  0.1175  0.1608 -0.0059
  384loPI   C5A 6139   1.705  13.549   7.784  0.0088  0.1503 -0.0983
  384loPI   C6A 6140   1.544  13.347   7.592 -0.0053  0.1551 -0.3997
  384loPI   C1B 6141   1.642  14.154   9.277  0.0573  0.1888  0.3136
  384loPI   C2B 6142   1.622  14.213   8.908 -0.1211  0.1387  0.3423
  384loPI   C3B 6143   1.632  14.284   8.508 -0.0644  0.5468 -0.1095
  384loPI   C4B 6144   1.926  14.376   8.102 -0.0475 -0.0805  0.0053
  385loPI    C1 6145  12.707  14.001  10.292 -0.0447 -0.2094 -0.0236
  385loPI    C2 6146  12.703  14.189  10.645  0.0461 -0.3064  0.0298
  385loPI    C3 6147  12.389  13.969  10.532 -0.0042 -0.2336  0.0270
  385loPI   PO4 6148  12.908  14.234  10.043  0.4808  0.2028  0.1385
  385loPI   GL1 6149  13.135  14.474   9.731  0.1175  0.5576  0.3049
  385loPI   GL2 6150  13.188  14.823   9.697  0.0130 -0.0680  0.0663
  385loPI   C1A 6151  13.238  14.328   9.327  0.2969 -0.0755  0.3979
  385loPI   C2A 6152  13.325  14.511   8.854  0.2278  0.3933  0.3915
  385loPI   C3A 6153  13.324  14.459   8.509  0.1180  0.1351  0.0221
  385loPI   C4A 6154  13.049  14.546   8.195  0.3949 -0.0254  0.0677
  385loPI   C5A 6155  12.912  14.847   7.962 -0.0093  0.2788  0.0163
  385loPI   C6A 6156  12.895  15.279   7.949 -0.1181  0.2217  0.3508
  385loPI   C1B 6157  13.356  14.892   9.307  0.0594 -0.0386 -0.2322
  385loPI   C2B 6158  13.491  14.978   8.929  0.0483  0.3642 -0.4562
  385loPI   C3B 6159  13.577  15.080   8.518 -0.0095  0.2631  0.2962
  385loPI   C4B 6160  13.581  14.747   8.230  0.0758 -0.4986 -0.0350
  386loPI    C1 6161   5.250  10.692  10.908  0.0001  0.1417  0.0067
  386loPI    C2 6162   5.408  10.363  11.072  0.0274  0.0907 -0.1205
  386loPI    C3 6163   5.011  10.403  11.047  0.0248  0.0288 -0.1813
  386loPI   PO4 6164   5.423  10.789  10.742  0.0940  0.0722 -0.0563
  386loPI   GL1 6165   5.560  10.891  10.258  0.0956  0.0459  0.2086
  386loPI   GL2 6166   5.807  10.738  10.075 -0.0777 -0.0455 -0.0543
  386loPI   C1A 6167   5.211  10.837   9.933  0.4999 -0.2815  0.1902
  386loPI   C2A 6168   5.380  10.601   9.620 -0.4451 -0.1174 -0.0789
  386loPI   C3A 6169   5.488  10.631   9.173  0.3934 -0.2542 -0.0181
  386loPI   C4A 6170   5.363  10.590   8.730 -0.0808  0.3278  0.1447
  386loPI   C5A 6171   5.339  10.519   8.375  0.6375 -0.2134 -0.1300
  386loPI   C6A 6172   5.164  10.847   8.114 -0.0997 -0.0843 -0.0275
  386loPI   C1B 6173   5.894  10.581   9.695  0.0596 -0.1666 -0.1853
  386loPI   C2B 6174   5.721  10.272   9.438  0.4505 -0.1672  0.2781
  386loPI   C3B 6175   5.526  10.141   8.929  0.2600  0.0493 -0.2251
  386loPI   C4B 6176   5.397   9.967   8.556 -0.0492 -0.1038  0.0341
  387loPI    C1 6177   6.036   5.640  10.413 -0.0162  0.2050 -0.0260
  387loPI    C2 6178   5.646   5.705  10.476 -0.0183  0.1227  0.0464
  387loPI    C3 6179   5.796   5.335  10.510  0.1155  0.1967  0.2848
  387loPI   PO4 6180   6.050   5.695  10.214  0.1106  0.1488 -0.2112
  387loPI   GL1 6181   6.294   5.631   9.890 -0.0434 -0.0756  0.1983
  387loPI   GL2 6182   6.071   5.576   9.717  0.0802 -0.0820 -0.2030
  387loPI   C1A 6183   6.398   5.274   9.495  0.1469  0.0317 -0.0242
  387loPI   C2A 6184   6.362   5.342   8.996  0.0373  0.0914  0.2084
  387loPI   C3A 6185   6.272   5.256   8.559 -0.2621  0.1720  0.1760
  387loPI   C4A 6186   6.289   5.069   8.211 -0.3762 -0.0949  0.1892
  387loPI   C5A 6187   6.485   5.080   7.847 -0.0588  0.0143 -0.2306
  387loPI   C6A 6188   6.150   5.149   7.567 -0.0725 -0.1379  0.3885
  387loPI   C1B 6189   5.858   5.812   9.433  0.1755  0.0853  0.4573
  387loPI   C2B 6190   5.629   5.831   9.056  0.2604  0.1191  0.0045
  387loPI   C3B 6191   5.573   5.908   8.701  0.0891  0.3943 -0.1000
  387loPI   C4B 6192   5.769   5.893   8.326 -0.1957 -0.3716 -0.4798
  388loPI    C1 6193   8.408   9.713  10.282 -0.0192 -0.0125  0.0849
  388loPI    C2 6194   8.317  10.102  10.272 -0.1640 -0.0498 -0.1259
  388loPI    C3 6195   8.183   9.873  10.572  0.1746  0.1210  0.1635
  388loPI   PO4 6196   8.370   9.659  10.057  0.0984 -0.1306 -0.0855
  388loPI   GL1 6197   8.406   9.881   9.739  0.2203 -0.0703 -0.0306
  388loPI   GL2 6198   8.734   9.983   9.629 -0.1106 -0.0478  0.1339
  388loPI   C1A 6199   8.187  10.074   9.369 -0.1035 -0.0683 -0.2492
  388loPI   C2A 6200   8.098  10.085   8.905 -0.0066  0.2550  0.3440
  388loPI   C3A 6201   7.973   9.892   8.600 -0.0480  0.1010 -0.0077
  388loPI   C4A 6202   7.647   9.846   8.315 -0.3656 -0.0369 -0.0001
  388loPI   C5A 6203   7.620   9.405   8.133 -0.0931  0.3488  0.2379
  388loPI   C6A 6204   7.618   9.030   7.984  0.0178  0.1382  0.0032
  388loPI   C1B 6205   8.906  10.271   9.226  0.0504  0.2783  0.2619
  388loPI   C2B 6206   8.914  10.715   9.001  0.1479  0.0118  0.1460
  388loPI   C3B 6207   8.826  11.074   8.555  0.2148 -0.2530 -0.1839
  388loPI   C4B 6208   9.002  11.425   8.513  0.5102  0.0347  0.0895
  389loPI    C1 6209   1.484   2.668   9.989 -0.1228 -0.0981 -0.0797
  389loPI    C2 6210   1.367   2.379  10.240 -0.1122 -0.1302 -0.1115
  389loPI    C3 6211   1.565   2.697  10.380 -0.3562 -0.0089 -0.0365
  389loPI   PO4 6212   1.532   2.619   9.752 -0.1047 -0.0797  0.1276
  389loPI   GL1 6213   1.768   2.624   9.406  0.0065  0.1568 -0.2706
  389loPI   GL2 6214   1.610   2.940   9.308 -0.1581  0.0132  0.0158
  389loPI   C1A 6215   1.578   2.543   8.977  0.3313 -0.0229  0.0483
  389loPI   C2A 6216   1.583   2.690   8.591  0.1898  0.0547  0.2773
  389loPI   C3A 6217   1.667   2.578   8.274 -0.2116  0.0511 -0.2240
  389loPI   C4A 6218   1.499   2.649   7.862  0.1414  0.3537 -0.0368
  389loPI   C5A 6219   1.460   3.016   7.536  0.0523 -0.2561 -0.1124
  389loPI   C6A 6220   1.653   3.388   7.364 -0.0343 -0.1234  0.0879
  389loPI   C1B 6221   1.679   3.055   8.919 -0.2634 -0.1807 -0.1147
  389loPI   C2B 6222   1.575   3.305   8.585 -0.4107  0.1304  0.1195
  389loPI   C3B 6223   1.243   3.526   8.332 -0.2105 -0.1021 -0.3420
  389loPI   C4B 6224   0.970   3.550   8.032 -0.1024 -0.1729 -0.2590
  390loPI    C1 6225   4.447  13.760  10.258  0.3087 -0.0445 -0.0152
  390loPI    C2 6226   4.453  14.005  10.574  0.0002 -0.1915  0.1086
  390loPI    C3 6227   4.602  13.636  10.605 -0.1369 -0.2467  0.1190
  390loPI   PO4 6228   4.251  13.649  10.174  0.3585  0.0688  0.1557
  390loPI   GL1 6229   4.065  13.516   9.941  0.3167 -0.3270 -0.0702
  390loPI   GL2 6230   3.819  13.489   9.882 -0.0094  0.0316 -0.0011
  390loPI   C1A 6231   4.070  13.412   9.495  0.1851  0.0835 -0.0249
  390loPI   C2A 6232   4.051  13.543   9.085 -0.0985  0.0009 -0.0171
  390loPI   C3A 6233   4.044  13.374   8.688 -0.1789  0.1137 -0.1999
  390loPI   C4A 6234   4.106  13.225   8.251 -0.0786  0.0156  0.0049
  390loPI   C5A 6235   4.440  13.214   8.035  0.0960 -0.1854  0.0894
  390loPI   C6A 6236   4.774  13.175   7.715 -0.0275 -0.2071 -0.3447
  390loPI   C1B 6237   3.772  13.882   9.619 -0.1003 -0.0632 -0.0517
  390loPI   C2B 6238   3.886  13.974   9.176 -0.0082 -0.0355  0.0059
  390loPI   C3B 6239   3.863  13.942   8.743 -0.1037  0.0883 -0.2555
  390loPI   C4B 6240   3.707  13.895   8.373 -0.0133  0.1438  0.1014
  391loPI    C1 6241   3.729   3.484   9.854 -0.0739  0.2248 -0.3996
  391loPI    C2 6242   3.353   3.617   9.889 -0.1738 -0.1451  0.0386
  391loPI    C3 6243   3.617   3.682  10.183  0.0360 -0.1118 -0.1540
  391loPI   PO4 6244   3.741   3.506   9.604 -0.4040 -0.0043  0.1171
  391loPI   GL1 6245   3.742   3.304   9.208  0.4747  0.0439  0.2236
  391loPI   GL2 6246   3.371   3.255   9.079 -0.1809  0.1756 -0.0472
  391loPI   C1A 6247   3.737   3.591   8.853  0.3025  0.3701  0.1239
  391loPI   C2A 6248   3.611   3.637   8.452  0.2355  0.1588 -0.0722
  391loPI   C3A 6249   3.554   3.629   8.014  0.2475 -0.0098 -0.1042
  391loPI   C4A 6250   3.543   3.809   7.629  0.2524 -0.2618 -0.1164
  391loPI   C5A 6251   3.466   3.973   7.279  0.0590 -0.0712  0.0611
  391loPI   C6A 6252   3.891   4.131   7.115 -0.1367  0.0238  0.7384
  391loPI   C1B 6253   3.403   3.146   8.712 -0.1032  0.2558 -0.1381
  391loPI   C2B 6254   3.442   3.228   8.256 -0.1111  0.0782 -0.1144
  391loPI   C3B 6255   3.465   2.983   7.923 -0.0311 -0.2672 -0.0645
  391loPI   C4B 6256   3.412   2.758   7.551 -0.3921  0.1558 -0.1309
  392loPI    C1 6257   4.285   8.089  10.477  0.3623  0.1143 -0.0076
  392loPI    C2 6258   4.083   8.162  10.815 -0.0724  0.1255 -0.2624
  392loPI    C3 6259   4.388   8.398  10.709 -0.0359  0.2178  0.0389
  392loPI   PO4 6260   4.307   7.833  10.457 -0.0009 -0.2379 -0.1715
  392loPI   GL1 6261   4.688   7.674  10.233  0.6167  0.0051  0.2768
  392loPI   GL2 6262   4.746   7.885   9.896  0.1688  0.3015  0.0266
  392loPI   C1A 6263   4.659   7.447   9.717 -0.1256 -0.3083 -0.3127
  392loPI   C2A 6264   4.690   7.549   9.332 -0.0174  0.0185 -0.1035
  392loPI   C3A 6265   4.869   7.624   8.904 -0.1932  0.1351  0.3484
  392loPI   C4A 6266   5.059   8.007   8.640 -0.4928  0.1336 -0.2104
  392loPI   C5A 6267   5.493   8.174   8.612 -0.1872  0.2263  0.0934
  392loPI   C6A 6268   5.650   8.329   8.120 -0.2299  0.0724 -0.2470
  392loPI   C1B 6269   4.783   8.042   9.476  0.0124 -0.2263 -0.0525
  392loPI   C2B 6270   4.779   8.069   9.073 -0.1043  0.1784 -0.0123
  392loPI   C3B 6271   4.527   8.110   8.724  0.2910 -0.0207  0.0384
  392loPI   C4B 6272   4.668   8.170   8.276 -0.1978 -0.0390 -0.0986
  393loPI    C1 6273  11.265   3.528  10.094  0.3467  0.2288 -0.0997
  393loPI    C2 6274  11.205   3.400  10.468 -0.3837 -0.1361 -0.3212
  393loPI    C3 6275  11.186   3.791  10.385 -0.0924 -0.0408  0.0352
  393loPI   PO4 6276  11.451   3.492   9.980 -0.2611  0.1743  0.0542
  393loPI   GL1 6277  11.509   3.232   9.603 -0.3816 -0.0615 -0.3264
  393loPI   GL2 6278  11.665   3.263   9.352  0.0671 -0.1243 -0.0053
  393loPI   C1A 6279  11.255   3.372   9.111 -0.2343 -0.1310  0.0505
  393loPI   C2A 6280  11.194   3.563   8.735 -0.1920  0.4629 -0.1786
  393loPI   C3A 6281  11.118   3.602   8.317 -0.2517  0.0740  0.2993
  393loPI   C4A 6282  11.282   3.528   8.015 -0.1755  0.1883 -0.1550
  393loPI   C5A 6283  11.489   3.125   7.807 -0.1756  0.3263 -0.0583
  393loPI   C6A 6284  11.807   2.790   7.849  0.1309  0.1732  0.0541
  393loPI   C1B 6285  11.683   3.385   8.858 -0.0422  0.0520  0.1186
  393loPI   C2B 6286  11.742   3.637   8.544 -0.1315  0.1520  0.6560
  393loPI   C3B 6287  12.008   3.682   8.179  0.0308  0.0687  0.1189
  393loPI   C4B 6288  12.426   3.696   8.129 -0.0955  0.2064 -0.1668
  394loPI    C1 6289   4.384  18.059  10.103 -0.0134  0.1401 -0.2489
  394loPI    C2 6290   4.703  18.230   9.931  0.1701 -0.0162 -0.0700
  394loPI    C3 6291   4.465  18.445  10.171  0.3451  0.0136  0.0784
  394loPI   PO4 6292   4.347  17.832   9.843 -0.0631 -0.0191 -0.3589
  394loPI   GL1 6293   4.340  17.934   9.445  0.0212  0.0041 -0.0446
  394loPI   GL2 6294   4.313  17.617   9.350 -0.4145 -0.0918  0.0834
  394loPI   C1A 6295   4.274  17.894   8.970 -0.0365 -0.1504 -0.7822
  394loPI   C2A 6296   4.441  17.710   8.682 -0.1379 -0.0953 -0.1148
  394loPI   C3A 6297   4.723  17.420   8.474  0.1005 -0.0172 -0.1090
  394loPI   C4A 6298   5.124  17.330   8.204 -0.0537  0.2945  0.0849
  394loPI   C5A 6299   5.254  16.994   8.004  0.0067  0.0984 -0.0149
  394loPI   C6A 6300   5.583  17.004   7.684 -0.0292  0.1009 -0.2041
  394loPI   C1B 6301   4.601  17.505   9.113  0.1705 -0.3341  0.1210
  394loPI   C2B 6302   4.716  17.146   8.884 -0.0696  0.2817 -0.1418
  394loPI   C3B 6303   4.829  16.929   8.484 -0.0492 -0.0958 -0.1824
  394loPI   C4B 6304   4.938  16.649   8.162 -0.0283 -0.0644  0.1718
  395loPI    C1 6305  15.910  10.435  10.167  0.2544 -0.0658 -0.1007
  395loPI    C2 6306  15.896  10.384  10.563  0.1041  0.1337 -0.0791
  395loPI    C3 6307  15.793  10.736  10.403 -0.3052 -0.0915 -0.3286
  395loPI   PO4 6308  15.814  10.177  10.018  0.0923 -0.0578  0.0571
  395loPI   GL1 6309  15.654   9.961   9.656  0.4555 -0.1295 -0.0347
  395loPI   GL2 6310  15.330  10.173   9.658 -0.3063  0.1240 -0.0672
  395loPI   C1A 6311  16.083   9.867   9.418  0.0712 -0.0834 -0.0385
  395loPI   C2A 6312  16.276   9.652   9.041 -0.0613  0.0914 -0.1113
  395loPI   C3A 6313  16.337   9.748   8.660 -0.0130  0.0570  0.0633
  395loPI   C4A 6314  16.484   9.902   8.315 -0.0366  0.3352  0.0277
  395loPI   C5A 6315  16.297   9.811   7.864  0.0799  0.3386 -0.1955
  395loPI   C6A 6316  16.345   9.552   7.553 -0.4809  0.0312  0.0057
  395loPI   C1B 6317  15.066  10.448   9.380 -0.1037  0.0502  0.0596
  395loPI   C2B 6318  15.033  10.346   9.026 -0.0619  0.0179 -0.0736
  395loPI   C3B 6319  15.014  10.020   8.584 -0.2374  0.1624  0.0319
  395loPI   C4B 6320  14.854   9.836   8.280 -0.1947 -0.2395 -0.1790
  396loPI    C1 6321  14.201   6.721  10.324 -0.1805 -0.3337  0.0350
  396loPI    C2 6322  14.482   6.650  10.600  0.0265  0.3196  0.0096
  396loPI    C3 6323  14.095   6.635  10.700  0.0901  0.2097  0.2473
  396loPI   PO4 6324  14.338   6.877  10.169  0.0705 -0.3803 -0.0744
  396loPI   GL1 6325  14.520   6.963   9.841 -0.1622  0.0785  0.0450
  396loPI   GL2 6326  14.134   7.108   9.710 -0.3163  0.5102 -0.0963
  396loPI   C1A 6327  14.554   6.841   9.352 -0.3314 -0.3095 -0.3130
  396loPI   C2A 6328  14.490   6.684   8.983 -0.1983  0.3009  0.1760
  396loPI   C3A 6329  14.613   6.769   8.484 -0.0265  0.2726 -0.1397
  396loPI   C4A 6330  14.635   6.825   8.097 -0.4812 -0.0116 -0.1962
  396loPI   C5A 6331  14.727   6.743   7.684 -0.0380 -0.0056  0.1108
  396loPI   C6A 6332  14.581   6.324   7.531 -0.5271  0.1152 -0.0824
  396loPI   C1B 6333  14.130   6.981   9.203 -0.1059 -0.0422 -0.1254
  396loPI   C2B 6334  14.125   6.941   8.747 -0.0822  0.1776  0.1904
  396loPI   C3B 6335  14.164   6.810   8.235  0.1836 -0.1845  0.2610
  396loPI   C4B 6336  14.162   6.865   7.830 -0.1638  0.4172  0.2480
  397loPI    C1 6337   6.791  11.927  10.464  0.0649  0.1002 -0.1894
  397loPI    C2 6338   7.089  11.857  10.207  0.0018 -0.3533 -0.1466
  397loPI    C3 6339   7.149  11.813  10.600  0.0136  0.0443 -0.1001
  397loPI   PO4 6340   6.524  11.899  10.330 -0.1105 -0.1164 -0.0969
  397loPI   GL1 6341   6.536  11.730   9.929  0.0205 -0.2241 -0.0646
  397loPI   GL2 6342   6.822  11.596   9.885 -0.1690 -0.2045  0.1906
  397loPI   C1A 6343   6.192  11.896   9.664  0.2617  0.2161  0.1175
  397loPI   C2A 6344   6.102  12.095   9.216 -0.1298  0.1944 -0.1745
  397loPI   C3A 6345   6.117  12.240   8.833  0.0018  0.0381  0.1917
  397loPI   C4A 6346   6.470  12.074   8.531  0.0260 -0.0421 -0.0771
  397loPI   C5A 6347   6.528  11.878   8.218  0.2293 -0.1991 -0.0953
  397loPI   C6A 6348   6.771  11.624   7.899  0.0262 -0.0026  0.2957
  397loPI   C1B 6349   6.796  11.896   9.425  0.1104 -0.2104 -0.2911
  397loPI   C2B 6350   7.067  12.046   9.251 -0.0617 -0.2185  0.1870
  397loPI   C3B 6351   7.055  12.233   8.818 -0.1790  0.2957 -0.2325
  397loPI   C4B 6352   6.943  12.330   8.434  0.1400 -0.0170 -0.0022
  398loPI    C1 6353   9.258  10.258  10.262 -0.2176  0.1902  0.1710
  398loPI    C2 6354   9.378  10.520  10.539  0.1458  0.0195  0.1809
  398loPI    C3 6355   9.223  10.168  10.651  0.0369  0.0622  0.1659
  398loPI   PO4 6356   9.548  10.167  10.096  0.0868 -0.3389 -0.1874
  398loPI   GL1 6357   9.701  10.072   9.689  0.2209  0.0732 -0.0398
  398loPI   GL2 6358   9.571  10.396   9.638  0.0751 -0.0030  0.3646
  398loPI   C1A 6359   9.719   9.924   9.231  0.2796  0.1205 -0.2151
  398loPI   C2A 6360   9.791   9.739   8.748 -0.1104  0.0471  0.1138
  398loPI   C3A 6361   9.576   9.731   8.261  0.2319  0.1132 -0.3341
  398loPI   C4A 6362   9.280   9.607   7.997  0.3084  0.0971  0.2381
  398loPI   C5A 6363   9.263   9.559   7.560  0.2056 -0.1040  0.0253
  398loPI   C6A 6364   9.320   9.873   7.227 -0.1013 -0.1332  0.1092
  398loPI   C1B 6365   9.902  10.363   9.287  0.1615  0.1834  0.2499
  398loPI   C2B 6366   9.938  10.373   8.820  0.0608 -0.2508 -0.0697
  398loPI   C3B 6367   9.943  10.169   8.460  0.2211  0.0439 -0.1487
  398loPI   C4B 6368   9.792  10.205   8.089 -0.2131  0.0979 -0.2438
  399loPI    C1 6369   5.873   2.576   9.894 -0.1289  0.2375  0.0660
  399loPI    C2 6370   6.038   2.758  10.209  0.1554  0.0974  0.0009
  399loPI    C3 6371   6.074   2.362  10.165 -0.0347  0.0919 -0.1159
  399loPI   PO4 6372   5.777   2.681   9.690  0.3373 -0.1292  0.0251
  399loPI   GL1 6373   5.915   2.718   9.277 -0.2014  0.0532 -0.1210
  399loPI   GL2 6374   5.913   3.010   9.341 -0.0345  0.0008  0.0452
  399loPI   C1A 6375   6.013   2.460   8.936 -0.1280 -0.1179  0.0064
  399loPI   C2A 6376   6.195   2.344   8.545 -0.1685 -0.1523 -0.0852
  399loPI   C3A 6377   6.187   2.350   8.173  0.1193 -0.1389 -0.0565
  399loPI   C4A 6378   5.918   2.581   7.839  0.0363 -0.0139 -0.2616
  399loPI   C5A 6379   6.059   2.940   7.657 -0.1265 -0.1455  0.0103
  399loPI   C6A 6380   6.167   3.392   7.640 -0.1129 -0.3889 -0.0551
  399loPI   C1B 6381   5.971   3.156   8.845  0.1919  0.2619  0.0552
  399loPI   C2B 6382   5.721   3.113   8.466 -0.1457 -0.1298 -0.3813
  399loPI   C3B 6383   5.734   3.343   8.032  0.0407  0.1298 -0.0094
  399loPI   C4B 6384   5.705   3.327   7.529  0.1460 -0.1058  0.1041
  400loPI    C1 6385   0.793   1.892   9.977 -0.0300  0.0432  0.2913
  400loPI    C2 6386   1.162   1.880  10.130 -0.0041  0.2173  0.2447
  400loPI    C3 6387   0.882   1.627  10.263  0.1231  0.1055  0.3021
  400loPI   PO4 6388   0.900   1.893   9.710  0.0761  0.0890  0.0530
  400loPI   GL1 6389   0.800   1.620   9.308 -0.0209 -0.2364  0.1947
  400loPI   GL2 6390   0.555   1.464   9.231  0.2551 -0.2648  0.0519
  400loPI   C1A 6391   1.047   1.601   9.018 -0.2960 -0.2093  0.0216
  400loPI   C2A 6392   1.188   1.592   8.658  0.0024  0.3215  0.3475
  400loPI   C3A 6393   1.359   1.378   8.264  0.1750  0.1329 -0.2107
  400loPI   C4A 6394   1.573   1.234   7.862 -0.0841 -0.4208  0.0499
  400loPI   C5A 6395   1.535   0.962   7.484 -0.0734 -0.2686  0.1304
  400loPI   C6A 6396   1.461   0.765   7.040 -0.1909 -0.0494 -0.0227
  400loPI   C1B 6397   0.565   1.571   8.849 -0.0768  0.2061 -0.0018
  400loPI   C2B 6398   0.757   1.414   8.381 -0.0277  0.3539 -0.3958
  400loPI   C3B 6399   0.944   1.447   7.962 -0.2016 -0.2866  0.2483
  400loPI   C4B 6400   0.797   1.700   7.652  0.3187 -0.1455 -0.2655
  401loPI    C1 6401   2.839  17.562   9.875  0.0177  0.0697 -0.0886
  401loPI    C2 6402   3.026  17.610  10.225 -0.0408  0.1607 -0.0695
  401loPI    C3 6403   2.689  17.396  10.206 -0.0980  0.2484 -0.0499
  401loPI   PO4 6404   3.007  17.487   9.730 -0.2635 -0.1024 -0.0643
  401loPI   GL1 6405   3.036  17.417   9.353  0.0297 -0.0397  0.1311
  401loPI   GL2 6406   2.886  17.567   9.114  0.0560 -0.1992  0.2987
  401loPI   C1A 6407   3.351  17.424   9.020  0.1448  0.0321  0.4341
  401loPI   C2A 6408   3.682  17.173   8.777 -0.0369  0.3269 -0.1121
  401loPI   C3A 6409   3.789  17.128   8.364 -0.0665 -0.4222  0.1349
  401loPI   C4A 6410   3.953  16.929   8.117  0.0686 -0.0220  0.2259
  401loPI   C5A 6411   3.823  16.584   7.860  0.1724  0.2476  0.1067
  401loPI   C6A 6412   3.603  16.504   7.559  0.0789 -0.1535  0.2386
  401loPI   C1B 6413   2.944  17.729   8.699  0.2322 -0.0244 -0.0189
  401loPI   C2B 6414   2.950  17.648   8.267  0.1026  0.3089 -0.0231
  401loPI   C3B 6415   3.132  17.412   7.879  0.0916  0.1135 -0.0117
  401loPI   C4B 6416   3.214  17.377   7.453  0.1131 -0.1373  0.2217
  402loPI    C1 6417  13.855   4.589   9.992  0.0121  0.0013  0.0338
  402loPI    C2 6418  13.776   4.430  10.350 -0.0656  0.1426  0.0806
  402loPI    C3 6419  14.083   4.683  10.307  0.1281 -0.1044 -0.0180
  402loPI   PO4 6420  13.700   4.373   9.736  0.0019 -0.3515  0.1300
  402loPI   GL1 6421  13.510   4.600   9.530  0.0448 -0.1553 -0.0874
  402loPI   GL2 6422  13.889   4.778   9.437  0.2659 -0.3140  0.1166
  402loPI   C1A 6423  13.223   4.464   9.163  0.2423 -0.2964  0.0733
  402loPI   C2A 6424  13.357   4.606   8.729 -0.1075 -0.0531 -0.1124
  402loPI   C3A 6425  13.343   4.520   8.334 -0.3000 -0.4071 -0.0665
  402loPI   C4A 6426  13.435   4.364   7.920  0.1117  0.1257  0.1971
  402loPI   C5A 6427  13.356   3.996   7.630 -0.0483  0.0400 -0.2462
  402loPI   C6A 6428  13.647   3.845   7.239  0.0495 -0.1262 -0.2379
  402loPI   C1B 6429  13.752   4.699   9.066 -0.0752  0.0213 -0.0866
  402loPI   C2B 6430  13.937   4.714   8.693 -0.0269  0.1255 -0.0747
  402loPI   C3B 6431  14.026   4.773   8.320 -0.1094  0.4033  0.1506
  402loPI   C4B 6432  14.135   4.903   8.036 -0.2072 -0.0376  0.0105
  403loPI    C1 6433   8.368   2.121   9.769  0.0119 -0.2234  0.1918
  403loPI    C2 6434   8.520   2.006  10.121 -0.1548 -0.2157  0.2673
  403loPI    C3 6435   8.537   2.391  10.012 -0.1139 -0.2161  0.2719
  403loPI   PO4 6436   8.119   2.023   9.784  0.1677  0.1725 -0.1521
  403loPI   GL1 6437   8.185   1.884   9.338 -0.1660 -0.2010 -0.0307
  403loPI   GL2 6438   7.906   1.662   9.452 -0.1005  0.2620 -0.0150
  403loPI   C1A 6439   8.003   1.867   8.937 -0.0003  0.2267 -0.2116
  403loPI   C2A 6440   8.029   1.787   8.565 -0.3786 -0.0424  0.2118
  403loPI   C3A 6441   8.034   1.830   8.096  0.0393  0.1616 -0.3010
  403loPI   C4A 6442   8.261   1.686   7.737 -0.1159  0.1408  0.1616
  403loPI   C5A 6443   8.313   1.915   7.398 -0.3162 -0.2839 -0.1126
  403loPI   C6A 6444   8.694   2.203   7.282 -0.1930  0.1054  0.1933
  403loPI   C1B 6445   7.590   1.740   9.246  0.0537 -0.3722 -0.0986
  403loPI   C2B 6446   7.514   1.877   8.798 -0.0212  0.1626 -0.0871
  403loPI   C3B 6447   7.590   2.168   8.358 -0.2616 -0.1601  0.1715
  403loPI   C4B 6448   7.796   2.417   8.080  0.0563 -0.0019  0.2515
  404loPI    C1 6449   6.254   1.936   9.968 -0.2594  0.0154 -0.2768
  404loPI    C2 6450   5.949   1.686   9.899 -0.2993 -0.0698  0.1756
  404loPI    C3 6451   6.164   1.651  10.234 -0.0620  0.2637  0.0637
  404loPI   PO4 6452   6.391   1.904   9.793  0.2446  0.0557 -0.4017
  404loPI   GL1 6453   6.335   1.575   9.484  0.0745  0.3918  0.0184
  404loPI   GL2 6454   5.941   1.419   9.447  0.1806  0.4172 -0.5499
  404loPI   C1A 6455   6.413   1.563   9.039  0.1452 -0.0428  0.3623
  404loPI   C2A 6456   6.344   1.496   8.617  0.0167 -0.0597  0.0049
  404loPI   C3A 6457   6.240   1.285   8.246  0.0325 -0.1609 -0.1177
  404loPI   C4A 6458   6.241   1.565   8.059 -0.1941  0.0238  0.2274
  404loPI   C5A 6459   6.765   1.694   7.872 -0.0834  0.3606 -0.1015
  404loPI   C6A 6460   7.146   1.566   7.953 -0.5472 -0.0166  0.3771
  404loPI   C1B 6461   5.924   1.422   9.005 -0.2411  0.6408  0.0953
  404loPI   C2B 6462   5.875   1.383   8.551  0.2264 -0.1889  0.1405
  404loPI   C3B 6463   5.751   1.335   8.110  0.1031  0.2198  0.2336
  404loPI   C4B 6464   5.862   1.364   7.728  0.1072  0.0967 -0.0891
  405loPI    C1 6465   6.475   1.001  10.039  0.0538 -0.0089 -0.1411
  405loPI    C2 6466   6.486   1.382   9.919 -0.0273 -0.0205 -0.1860
  405loPI    C3 6467   6.135   1.193   9.953 -0.0063 -0.0165  0.0733
  405loPI   PO4 6468   6.673   0.911   9.899 -0.3341  0.5142 -0.2346
  405loPI   GL1 6469   6.833   0.876   9.391  0.1378 -0.0368 -0.0509
  405loPI   GL2 6470   6.554   0.604   9.497 -0.1055 -0.2170  0.1425
  405loPI   C1A 6471   7.035   0.959   9.016  0.0783 -0.0924 -0.1192
  405loPI   C2A 6472   7.051   0.944   8.571  0.0086  0.2440  0.1477
  405loPI   C3A 6473   7.126   0.911   8.145  0.0425  0.0224  0.3281
  405loPI   C4A 6474   7.314   1.142   7.731  0.1471  0.0005 -0.1500
  405loPI   C5A 6475   7.603   1.031   7.451 -0.1422  0.0873  0.2421
  405loPI   C6A 6476   8.030   1.161   7.361 -0.2123  0.0428  0.0545
  405loPI   C1B 6477   6.712   0.515   9.068 -0.1730  0.1542 -0.1873
  405loPI   C2B 6478   6.767   0.500   8.695  0.2265 -0.0780 -0.1827
  405loPI   C3B 6479   6.581   0.842   8.296  0.0057  0.0464  0.3103
  405loPI   C4B 6480   6.384   0.945   7.940  0.2388  0.0201 -0.1045
  406POPI    C1 6481   8.572  10.889  10.243 -0.2617  0.0153  0.1654
  406POPI    C2 6482   8.672  10.868  10.630  0.1671 -0.0146  0.0578
  406POPI    C3 6483   8.536  10.543  10.440 -0.0054 -0.0098  0.1704
  406POPI   PO4 6484   8.370  11.078  10.265 -0.1269 -0.1093  0.0845
  406POPI   GL1 6485   8.272  11.296   9.950  0.0054 -0.2637 -0.1202
  406POPI   GL2 6486   8.326  10.925   9.790 -0.0006 -0.0898  0.1883
  406POPI   C1A 6487   7.988  11.351   9.598 -0.0702 -0.3318  0.0584
  406POPI   D2A 6488   7.782  11.558   9.278  0.0863  0.0851 -0.1140
  406POPI   C3A 6489   7.865  11.575   8.804  0.2942 -0.1121  0.4915
  406POPI   C4A 6490   7.833  11.448   8.379 -0.1606  0.2906 -0.0913
  406POPI   C1B 6491   8.534  11.125   9.541  0.3405 -0.0289  0.0239
  406POPI   C2B 6492   8.531  10.974   9.102  0.0411  0.1847  0.2477
  406POPI   C3B 6493   8.359  10.917   8.704 -0.2484  0.0339 -0.4316
  406POPI   C4B 6494   8.204  11.022   8.356 -0.0655  0.2006  0.1404
  407POPI    C1 6495  10.167  12.671  10.276  0.0859  0.0325 -0.0855
  407POPI    C2 6496  10.483  12.878  10.146  0.0421  0.1259 -0.0443
  407POPI    C3 6497  10.462  12.484  10.082  0.1281  0.1332 -0.1190
  407POPI   PO4 6498   9.940  12.913  10.258 -0.1839 -0.1062  0.2929
  407POPI   GL1 6499   9.634  12.735   9.963 -0.4498 -0.1120  0.2101
  407POPI   GL2 6500   9.554  13.016   9.986  0.2265 -0.1938  0.2923
  407POPI   C1A 6501   9.560  12.449   9.592 -0.0489  0.1331  0.0752
  407POPI   D2A 6502   9.565  12.011   9.639  0.0361 -0.2391 -0.0589
  407POPI   C3A 6503   9.310  11.779   9.266 -0.4051  0.1228  0.1665
  407POPI   C4A 6504   9.098  11.830   8.795  0.1829  0.0189  0.0202
  407POPI   C1B 6505   9.594  13.016   9.523 -0.3639 -0.3696 -0.1206
  407POPI   C2B 6506   9.940  12.885   9.338 -0.3468  0.0851  0.0579
  407POPI   C3B 6507  10.076  12.821   8.832  0.2889 -0.3035 -0.0965
  407POPI   C4B 6508   9.935  12.947   8.366  0.0462  0.1216  0.3305
  408POPI    C1 6509  17.920   1.221   9.929 -0.1745 -0.1000 -0.0464
  408POPI    C2 6510  17.943   1.588  10.084  0.1761 -0.1499  0.0281
  408POPI    C3 6511  17.955   1.269  10.324  0.0837 -0.2149 -0.0533
  408POPI   PO4 6512  18.053   1.212   9.820  0.0617 -0.0679  0.1201
  408POPI   GL1 6513  18.062   1.251   9.393 -0.0487 -0.0074  0.2353
  408POPI   GL2 6514  18.177   1.581   9.530  0.0962  0.0916  0.0479
  408POPI   C1A 6515  18.114   1.200   8.886  0.0887 -0.1564 -0.0851
  408POPI   D2A 6516  18.130   0.934   8.389  0.3516  0.0608  0.1940
  408POPI   C3A 6517  17.863   0.641   8.348  0.2295  0.0540 -0.0791
  408POPI   C4A 6518  17.617   0.434   8.632  0.1436  0.1662 -0.0428
  408POPI   C1B 6519  18.120   1.666   9.081 -0.1257 -0.0054  0.1822
  408POPI   C2B 6520  18.010   1.748   8.651 -0.0940 -0.0956  0.1890
  408POPI   C3B 6521  17.879   1.509   8.433 -0.1724  0.3411  0.0175
  408POPI   C4B 6522  17.647   1.517   8.101  0.0328  0.1735 -0.2084
  409POPI    C1 6523  17.859  17.989   9.402 -0.0315  0.0883  0.0818
  409POPI    C2 6524  17.600  18.207   9.616 -0.1780 -0.0476  0.0448
  409POPI    C3 6525  17.947  18.090   9.779 -0.1713  0.0736  0.1187
  409POPI   PO4 6526  17.950  18.043   9.208  0.2398  0.0077 -0.0797
  409POPI   GL1 6527  18.018  18.081   8.790 -0.0484 -0.0479 -0.1201
  409POPI   GL2 6528  17.706  18.410   8.917 -0.2323 -0.0632  0.1508
  409POPI   C1A 6529  17.887  17.967   8.393 -0.4005 -0.0457 -0.5036
  409POPI   D2A 6530  18.242  17.864   8.121  0.1320 -0.1708 -0.0633
  409POPI   C3A 6531  18.232  17.696   7.707  0.2275 -0.1474  0.2155
  409POPI   C4A 6532  18.414  17.563   7.273  0.2810 -0.0656  0.0810
  409POPI   C1B 6533  17.707  18.538   8.518  0.0393 -0.2401  0.1009
  409POPI   C2B 6534  17.620  18.860   8.220 -0.1776 -0.0796  0.1960
  409POPI   C3B 6535  17.630  18.685   7.721  0.1980 -0.1661 -0.1759
  409POPI   C4B 6536  17.670  18.938   7.287  0.0078 -0.0598 -0.1206
  410POPI    C1 6537  10.910   4.391   9.881  0.1937 -0.2136 -0.2176
  410POPI    C2 6538  11.090   4.291  10.224  0.1350  0.1924 -0.0635
  410POPI    C3 6539  11.219   4.607  10.015 -0.1140  0.2174 -0.1824
  410POPI   PO4 6540  10.573   4.209   9.962 -0.0380  0.1042  0.0642
  410POPI   GL1 6541  10.238   4.442   9.638 -0.1629 -0.1188 -0.3392
  410POPI   GL2 6542  10.547   4.620   9.614 -0.0056  0.1851  0.0762
  410POPI   C1A 6543  10.160   4.286   9.248  0.0150 -0.2097  0.1789
  410POPI   D2A 6544  10.229   4.342   8.751 -0.1283  0.0385 -0.1836
  410POPI   C3A 6545  10.037   4.331   8.414 -0.1207 -0.2067  0.0249
  410POPI   C4A 6546  10.014   4.311   7.981 -0.1793 -0.2078  0.0697
  410POPI   C1B 6547  10.593   4.622   9.205  0.2343 -0.0144  0.1248
  410POPI   C2B 6548  10.692   4.618   8.797  0.0500  0.1489  0.1810
  410POPI   C3B 6549  10.636   4.519   8.384 -0.4434  0.0695  0.2067
  410POPI   C4B 6550  10.521   4.319   7.967  0.0043 -0.0747 -0.0830
  411POPI    C1 6551   7.398  14.357  10.282  0.3195 -0.1711  0.2308
  411POPI    C2 6552   7.581  14.635  10.504  0.2689 -0.3024  0.4405
  411POPI    C3 6553   7.188  14.662  10.433  0.3271 -0.1328  0.1643
  411POPI   PO4 6554   7.546  14.276  10.078 -0.0368 -0.0237 -0.2492
  411POPI   GL1 6555   7.421  14.550   9.668  0.0160  0.1635 -0.0104
  411POPI   GL2 6556   7.724  14.663   9.794  0.4615  0.0454  0.1616
  411POPI   C1A 6557   7.562  14.228   9.352  0.0604  0.3461 -0.1031
  411POPI   D2A 6558   7.829  14.198   9.009 -0.2043 -0.3089  0.0241
  411POPI   C3A 6559   7.881  14.271   8.626  0.1022  0.4841 -0.3020
  411POPI   C4A 6560   7.993  14.406   8.207  0.0060 -0.0468 -0.2245
  411POPI   C1B 6561   7.952  14.549   9.450 -0.0176  0.3619  0.0881
  411POPI   C2B 6562   8.111  14.584   9.109 -0.1214  0.1034 -0.2113
  411POPI   C3B 6563   8.243  14.702   8.664  0.2317  0.1442 -0.2594
  411POPI   C4B 6564   8.435  14.694   8.259 -0.0597  0.0472  0.0439
  412POPI    C1 6565   2.570  12.975  10.242 -0.2361 -0.0281 -0.2760
  412POPI    C2 6566   2.357  12.717  10.460 -0.0271 -0.0680 -0.1160
  412POPI    C3 6567   2.511  13.043  10.632  0.0664 -0.0554 -0.2230
  412POPI   PO4 6568   2.792  12.805  10.132  0.0616  0.1401 -0.1490
  412POPI   GL1 6569   3.080  12.806   9.832 -0.0611 -0.2847 -0.1540
  412POPI   GL2 6570   2.839  12.696   9.516 -0.2234  0.0935 -0.1389
  412POPI   C1A 6571   3.157  13.120   9.526  0.2858  0.2722 -0.1729
  412POPI   D2A 6572   3.156  13.326   9.174 -0.0590  0.0519  0.0050
  412POPI   C3A 6573   3.181  13.121   8.876  0.1045 -0.1284  0.1750
  412POPI   C4A 6574   3.146  13.149   8.480  0.2108 -0.0558  0.0165
  412POPI   C1B 6575   2.566  12.574   9.161  0.1033  0.0785  0.1860
  412POPI   C2B 6576   2.434  12.464   8.752  0.0643  0.1994 -0.0011
  412POPI   C3B 6577   2.335  12.476   8.414 -0.2279 -0.1612 -0.2325
  412POPI   C4B 6578   2.075  12.624   8.012  0.1962  0.2206  0.1823
  413POPI    C1 6579   9.318   9.159  10.070 -0.0570  0.0620  0.1409
  413POPI    C2 6580   9.694   9.023  10.091 -0.0172  0.1741  0.1603
  413POPI    C3 6581   9.431   8.928  10.377 -0.0534 -0.0522  0.0545
  413POPI   PO4 6582   9.315   9.188   9.723  0.1009  0.0329  0.0304
  413POPI   GL1 6583   9.447   9.115   9.321  0.0604 -0.0078  0.0090
  413POPI   GL2 6584   9.515   9.408   9.273 -0.0138 -0.0652 -0.2324
  413POPI   C1A 6585   9.303   8.896   8.840 -0.2860  0.2119 -0.1012
  413POPI   D2A 6586   9.457   8.583   8.509  0.5125  0.1756 -0.1037
  413POPI   C3A 6587   9.610   8.646   8.069  0.2250 -0.1717  0.1044
  413POPI   C4A 6588   9.862   8.817   7.677 -0.1865 -0.0783  0.0741
  413POPI   C1B 6589   9.683   9.255   8.851 -0.0228 -0.0281 -0.1368
  413POPI   C2B 6590   9.752   9.149   8.412  0.1840 -0.2167  0.3552
  413POPI   C3B 6591   9.680   9.257   8.006 -0.0672 -0.0114 -0.2449
  413POPI   C4B 6592   9.388   9.058   7.692  0.0626 -0.0158  0.0642
  414POPI    C1 6593   4.611  14.236  10.035  0.1240  0.1654 -0.0449
  414POPI    C2 6594   4.404  14.361   9.717 -0.0089  0.3282  0.1038
  414POPI    C3 6595   4.570  14.628   9.965  0.0093  0.2045  0.2261
  414POPI   PO4 6596   4.824  14.085   9.846 -0.3706  0.0968 -0.0570
  414POPI   GL1 6597   5.137  14.040   9.554 -0.3328  0.3022  0.2457
  414POPI   GL2 6598   5.387  14.171   9.466  0.1968 -0.2067 -0.1246
  414POPI   C1A 6599   4.950  13.841   9.192  0.0151 -0.2195  0.0604
  414POPI   D2A 6600   4.888  13.677   8.799  0.0017  0.2408 -0.0510
  414POPI   C3A 6601   4.915  13.901   8.433 -0.0055 -0.2825  0.0497
  414POPI   C4A 6602   5.035  14.008   7.966  0.1966  0.2785 -0.0826
  414POPI   C1B 6603   5.450  14.083   8.961 -0.0934 -0.4259 -0.1857
  414POPI   C2B 6604   5.447  13.967   8.526  0.3732 -0.1018 -0.0293
  414POPI   C3B 6605   5.478  13.769   8.105  0.3016  0.2719  0.1088
  414POPI   C4B 6606   5.220  13.570   7.640 -0.2414  0.1896 -0.0350
  415POPI    C1 6607  16.986  14.437  10.531  0.1970 -0.1232  0.2192
  415POPI    C2 6608  16.707  14.180  10.657 -0.0886  0.0903  0.0353
  415POPI    C3 6609  16.667  14.571  10.731  0.1698  0.1225  0.0167
  415POPI   PO4 6610  17.011  14.369  10.288  0.2442 -0.1582  0.0640
  415POPI   GL1 6611  17.014  14.261   9.816 -0.1421 -0.0445  0.2603
  415POPI   GL2 6612  16.868  14.537   9.815 -0.2423  0.2517 -0.1333
  415POPI   C1A 6613  17.461  14.274   9.577 -0.0811  0.3325  0.0533
  415POPI   D2A 6614  17.930  14.149   9.583  0.1560 -0.0638 -0.2701
  415POPI   C3A 6615  17.951  14.150   9.149  0.1418 -0.0959 -0.2177
  415POPI   C4A 6616  17.867  14.224   8.768  0.4349  0.4112 -0.0832
  415POPI   C1B 6617  16.968  14.356   9.366  0.2627  0.0805  0.3222
  415POPI   C2B 6618  17.034  14.175   9.003  0.0117 -0.0819 -0.1125
  415POPI   C3B 6619  17.134  14.317   8.569 -0.0781 -0.0831 -0.1352
  415POPI   C4B 6620  17.255  14.217   8.122 -0.0839 -0.0247  0.0284
  416POPI    C1 6621   3.202   2.650   9.902  0.0792  0.1416  0.1140
  416POPI    C2 6622   2.889   2.897   9.870 -0.2371 -0.2534  0.0760
  416POPI    C3 6623   3.046   2.819  10.229 -0.1069  0.0308  0.0840
  416POPI   PO4 6624   3.448   2.693   9.775 -0.3826 -0.0086  0.2480
  416POPI   GL1 6625   3.639   2.607   9.429 -0.2102 -0.0505 -0.1972
  416POPI   GL2 6626   3.594   2.792   9.209  0.2423  0.0974 -0.0046
  416POPI   C1A 6627   4.046   2.490   9.215 -0.3236 -0.1883 -0.1972
  416POPI   D2A 6628   4.358   2.363   8.809 -0.1653 -0.0916 -0.2783
  416POPI   C3A 6629   4.185   2.329   8.454 -0.0002  0.2478 -0.0467
  416POPI   C4A 6630   4.073   2.398   8.124 -0.1328  0.4732  0.3393
  416POPI   C1B 6631   3.835   2.946   8.921 -0.2802 -0.0288 -0.0588
  416POPI   C2B 6632   3.885   3.165   8.531  0.0983 -0.1685 -0.1309
  416POPI   C3B 6633   3.906   3.060   8.162 -0.1374  0.1060  0.1837
  416POPI   C4B 6634   3.860   3.281   7.746  0.0055 -0.0369 -0.1291
  417POPI    C1 6635  12.055  12.994  10.438  0.0312  0.0206  0.2721
  417POPI    C2 6636  11.696  12.999  10.262  0.1238 -0.3615  0.0602
  417POPI    C3 6637  11.763  13.222  10.587 -0.2755 -0.2174  0.0486
  417POPI   PO4 6638  12.268  12.907  10.208 -0.3118  0.0299 -0.2524
  417POPI   GL1 6639  12.515  12.766   9.917  0.0788 -0.0475 -0.1495
  417POPI   GL2 6640  12.401  12.394   9.968 -0.0538 -0.0204  0.1748
  417POPI   C1A 6641  12.324  12.736   9.520 -0.0265 -0.2550  0.4832
  417POPI   D2A 6642  12.145  12.478   9.230 -0.3037  0.2273  0.0149
  417POPI   C3A 6643  12.085  12.639   8.869 -0.1409 -0.0033  0.0150
  417POPI   C4A 6644  11.999  12.429   8.382  0.0146 -0.1008 -0.0946
  417POPI   C1B 6645  12.564  12.262   9.666  0.0961 -0.2339  0.1180
  417POPI   C2B 6646  12.763  12.426   9.263 -0.0411  0.1658 -0.1404
  417POPI   C3B 6647  12.781  12.503   8.738 -0.1733  0.1383 -0.2102
  417POPI   C4B 6648  12.760  12.521   8.291 -0.4929 -0.0683  0.3002
  418POPI    C1 6649   5.433   3.926  10.177  0.0878 -0.1369 -0.0535
  418POPI    C2 6650   5.668   3.731  10.435  0.0072  0.2671  0.3372
  418POPI    C3 6651   5.594   4.121  10.487 -0.0238  0.3557 -0.2952
  418POPI   PO4 6652   5.626   3.873   9.903 -0.0121 -0.3021  0.0751
  418POPI   GL1 6653   5.749   3.867   9.482  0.3372  0.0526 -0.2342
  418POPI   GL2 6654   5.868   3.566   9.566 -0.1412  0.2964  0.0502
  418POPI   C1A 6655   5.621   3.849   9.080 -0.1996  0.2311  0.1033
  418POPI   D2A 6656   5.462   3.986   8.546 -0.3149  0.0165 -0.0777
  418POPI   C3A 6657   5.161   4.143   8.426  0.1261  0.1914  0.0078
  418POPI   C4A 6658   5.213   4.321   8.081 -0.1634  0.0955 -0.0024
  418POPI   C1B 6659   6.037   3.513   9.222  0.2892  0.0988  0.2916
  418POPI   C2B 6660   6.052   3.727   8.776 -0.3036  0.2781 -0.0736
  418POPI   C3B 6661   5.854   3.720   8.298  0.0843  0.1369 -0.2232
  418POPI   C4B 6662   5.700   3.797   7.841 -0.0556 -0.0190 -0.2938
  419POPI    C1 6663   1.709  16.380  10.000  0.1037 -0.1121  0.3034
  419POPI    C2 6664   1.337  16.527  10.016  0.1366  0.0258 -0.0908
  419POPI    C3 6665   1.616  16.659  10.271  0.0129  0.2067 -0.0472
  419POPI   PO4 6666   1.758  16.353   9.782  0.3956 -0.0362  0.0788
  419POPI   GL1 6667   1.633  16.467   9.467 -0.1367  0.0982  0.0988
  419POPI   GL2 6668   1.375  16.723   9.534 -0.0280 -0.1395 -0.1792
  419POPI   C1A 6669   1.524  16.241   9.142 -0.2004 -0.0940 -0.2005
  419POPI   D2A 6670   1.604  16.186   8.733  0.2481  0.0557  0.1037
  419POPI   C3A 6671   2.030  16.234   8.507 -0.2197 -0.0192 -0.1836
  419POPI   C4A 6672   2.295  15.869   8.402 -0.2087  0.0569 -0.1667
  419POPI   C1B 6673   1.402  16.713   9.107 -0.0805  0.2065  0.0720
  419POPI   C2B 6674   1.286  16.669   8.658  0.1216 -0.3877 -0.2501
  419POPI   C3B 6675   1.306  16.744   8.280  0.0024 -0.1142  0.0281
  419POPI   C4B 6676   1.581  16.870   7.943 -0.2284  0.1674  0.0245
  420POPI    C1 6677   1.047  15.587  10.162 -0.1038  0.0974  0.1314
  420POPI    C2 6678   1.396  15.593  10.358 -0.0548 -0.0171  0.0482
  420POPI    C3 6679   1.059  15.701  10.546  0.0189  0.0528  0.1410
  420POPI   PO4 6680   1.112  15.538   9.930  0.2964  0.0496 -0.0546
  420POPI   GL1 6681   0.859  15.763   9.645 -0.1676 -0.1553 -0.0224
  420POPI   GL2 6682   0.548  15.844   9.604  0.0964 -0.0693  0.2185
  420POPI   C1A 6683   0.896  15.876   9.255 -0.0657 -0.4067 -0.1180
  420POPI   D2A 6684   1.192  15.876   8.979 -0.2454 -0.0886 -0.3063
  420POPI   C3A 6685   1.160  15.647   8.665 -0.3550 -0.4350 -0.2220
  420POPI   C4A 6686   0.991  15.658   8.260 -0.4853  0.0699 -0.1360
  420POPI   C1B 6687   0.362  15.794   9.274  0.0787  0.2353 -0.1623
  420POPI   C2B 6688   0.299  15.697   8.845  0.1095  0.1034  0.0823
  420POPI   C3B 6689   0.493  15.648   8.402  0.0203 -0.0570  0.1247
  420POPI   C4B 6690   0.616  15.666   7.953 -0.3276 -0.1800 -0.1503
  421POPI    C1 6691  14.899   0.229   9.789 -0.2470 -0.0909 -0.1710
  421POPI    C2 6692  15.061   0.201  10.154 -0.1923 -0.0937 -0.1954
  421POPI    C3 6693  14.721   0.007  10.070 -0.2321 -0.0520 -0.1309
  421POPI   PO4 6694  14.938   0.412   9.705 -0.1921  0.0414  0.2596
  421POPI   GL1 6695  14.929   0.596   9.322  0.2969 -0.2370 -0.0808
  421POPI   GL2 6696  14.767   0.347   9.230 -0.1072  0.1063 -0.0173
  421POPI   C1A 6697  14.747   0.803   8.994  0.3240 -0.0891 -0.0855
  421POPI   D2A 6698  14.578   0.960   8.608 -0.0427  0.1974 -0.0533
  421POPI   C3A 6699  14.343   0.857   8.212  0.2828  0.0090 -0.1643
  421POPI   C4A 6700  14.228   0.529   7.844  0.0768 -0.0952  0.0065
  421POPI   C1B 6701  14.981   0.271   8.995 -0.2095 -0.0290  0.0301
  421POPI   C2B 6702  15.243   0.348   8.658  0.0809 -0.0631 -0.0617
  421POPI   C3B 6703  15.372   0.216   8.264  0.0353 -0.1509 -0.1441
  421POPI   C4B 6704  15.385   0.228   7.837  0.0733  0.0160 -0.0640
  422POPI    C1 6705  11.015  15.015  10.093 -0.0533 -0.1361 -0.0130
  422POPI    C2 6706  11.283  14.927  10.377 -0.2346 -0.0279  0.1955
  422POPI    C3 6707  11.227  15.307  10.266 -0.0496 -0.0843 -0.1042
  422POPI   PO4 6708  11.051  14.810   9.942  0.1440  0.0236 -0.3509
  422POPI   GL1 6709  11.163  14.370   9.755 -0.2193 -0.2496  0.1211
  422POPI   GL2 6710  10.862  14.374   9.589 -0.0205  0.4571  0.0526
  422POPI   C1A 6711  11.348  14.461   9.370  0.1840 -0.3121  0.1722
  422POPI   D2A 6712  11.537  14.854   9.390  0.1292  0.3870 -0.1794
  422POPI   C3A 6713  11.464  15.102   9.058 -0.1251 -0.0583 -0.0894
  422POPI   C4A 6714  11.221  15.348   8.687 -0.0446  0.0783 -0.2012
  422POPI   C1B 6715  10.939  14.322   9.058 -0.1514  0.1440 -0.1020
  422POPI   C2B 6716  11.116  14.290   8.723  0.0761 -0.2089 -0.0659
  422POPI   C3B 6717  11.265  14.148   8.369 -0.0401 -0.1369  0.1136
  422POPI   C4B 6718  11.568  14.108   8.055  0.0550 -0.1906 -0.3033
  423POPI    C1 6719   7.004   7.911  10.254 -0.0047 -0.1313  0.0059
  423POPI    C2 6720   6.725   7.849  10.533 -0.1455  0.0327 -0.0962
  423POPI    C3 6721   6.788   8.218  10.392  0.0245 -0.0263 -0.1773
  423POPI   PO4 6722   6.873   7.611  10.153  0.0654 -0.1475  0.1086
  423POPI   GL1 6723   6.795   7.425   9.665  0.2838 -0.0244  0.3142
  423POPI   GL2 6724   6.399   7.444   9.717 -0.0494  0.0317 -0.0120
  423POPI   C1A 6725   6.752   7.697   9.264 -0.0619 -0.4033  0.1735
  423POPI   D2A 6726   6.715   7.681   8.795  0.1066  0.2238 -0.2850
  423POPI   C3A 6727   6.359   7.579   8.458  0.0345  0.0421 -0.5330
  423POPI   C4A 6728   5.960   7.422   8.253 -0.4449 -0.6522  0.1631
  423POPI   C1B 6729   6.368   7.281   9.355 -0.1162 -0.0780  0.5915
  423POPI   C2B 6730   6.248   6.959   9.112 -0.0957 -0.4724  0.2342
  423POPI   C3B 6731   5.912   6.730   8.829 -0.0803 -0.0420 -0.0486
  423POPI   C4B 6732   5.750   6.385   8.449 -0.2365  0.2271  0.1325
  424POPI    C1 6733  11.476   4.013  10.020  0.0334 -0.0666  0.0339
  424POPI    C2 6734  11.539   4.212  10.361 -0.2386 -0.1605  0.1414
  424POPI    C3 6735  11.762   3.892  10.272 -0.1002 -0.0761  0.1826
  424POPI   PO4 6736  11.442   4.139   9.829  0.4541  0.0640  0.1310
  424POPI   GL1 6737  11.287   4.234   9.571  0.1623  0.2680  0.1427
  424POPI   GL2 6738  11.584   4.281   9.348  0.0368 -0.1884  0.2737
  424POPI   C1A 6739  11.027   4.359   9.341 -0.1973 -0.1140  0.3163
  424POPI   D2A 6740  10.672   4.170   9.296  0.0401  0.2106 -0.1820
  424POPI   C3A 6741  10.618   4.099   8.930 -0.1803  0.1614 -0.5596
  424POPI   C4A 6742  10.605   4.021   8.539 -0.0958  0.0228  0.2673
  424POPI   C1B 6743  11.573   4.499   8.976 -0.0884  0.3205  0.1259
  424POPI   C2B 6744  11.738   4.567   8.555  0.4335  0.0688 -0.0006
  424POPI   C3B 6745  11.662   4.427   8.025 -0.0163 -0.3213  0.0436
  424POPI   C4B 6746  11.351   4.347   7.757 -0.0616 -0.0058 -0.3819
  425POPI    C1 6747  12.460  15.774  10.299 -0.0986  0.1389  0.1422
  425POPI    C2 6748  12.652  15.450  10.164 -0.0084  0.2239  0.0644
  425POPI    C3 6749  12.695  15.564  10.545 -0.1670  0.0536  0.1350
  425POPI   PO4 6750  12.315  15.822  10.105  0.0321 -0.1173  0.0870
  425POPI   GL1 6751  12.392  15.625   9.735  0.2341  0.0939  0.1094
  425POPI   GL2 6752  12.735  15.673   9.573 -0.0653 -0.5670 -0.1446
  425POPI   C1A 6753  12.396  15.350   9.377 -0.3888  0.0958 -0.0260
  425POPI   D2A 6754  12.598  15.328   9.043 -0.4337 -0.2501 -0.3076
  425POPI   C3A 6755  12.402  15.455   8.655  0.0894 -0.1474  0.0588
  425POPI   C4A 6756  12.364  15.508   8.185 -0.1888  0.0556 -0.2684
  425POPI   C1B 6757  12.602  15.800   9.259  0.1167  0.0150  0.0238
  425POPI   C2B 6758  12.693  15.827   8.808 -0.0354  0.2589 -0.0816
  425POPI   C3B 6759  12.692  15.946   8.392 -0.1010  0.4103 -0.1554
  425POPI   C4B 6760  12.669  16.025   7.996 -0.0059 -0.0278 -0.1535
  426POPI    C1 6761  16.093   0.578   9.814 -0.1952  0.1446 -0.2037
  426POPI    C2 6762  16.108   0.807  10.142  0.2365  0.0997 -0.1852
  426POPI    C3 6763  15.761   0.642  10.028  0.0622  0.1937  0.1920
  426POPI   PO4 6764  16.215   0.341   9.779  0.2923  0.0069 -0.1699
  426POPI   GL1 6765  16.419   0.303   9.330  0.0531 -0.1088 -0.1848
  426POPI   GL2 6766  16.230   0.638   9.275 -0.2758  0.3444  0.5632
  426POPI   C1A 6767  16.354  -0.029   8.995 -0.0380 -0.0858 -0.1868
  426POPI   D2A 6768  16.314  -0.048   8.545 -0.0825  0.1497  0.0062
  426POPI   C3A 6769  16.109  -0.078   8.177  0.4136 -0.4391 -0.2757
  426POPI   C4A 6770  15.656  -0.120   7.995 -0.1671 -0.1342 -0.1382
  426POPI   C1B 6771  16.251   0.411   8.867  0.2419  0.1639  0.1594
  426POPI   C2B 6772  16.217   0.489   8.431 -0.0243 -0.0440 -0.0333
  426POPI   C3B 6773  16.393   0.342   7.900 -0.0313 -0.0199 -0.0779
  426POPI   C4B 6774  16.495   0.070   7.533  0.2984  0.1092  0.1211
  427POPI    C1 6775  18.647  16.371  10.011  0.0248  0.0964 -0.2284
  427POPI    C2 6776  18.551  16.246  10.379  0.0645 -0.0220 -0.2579
  427POPI    C3 6777  18.541  16.636  10.291 -0.0896 -0.0062 -0.1733
  427POPI   PO4 6778  18.499  16.316   9.884  0.2592 -0.3468  0.0615
  427POPI   GL1 6779  18.426  16.043   9.609 -0.0852  0.1804 -0.0118
  427POPI   GL2 6780  18.110  15.889   9.462 -0.0356  0.1226  0.0090
  427POPI   C1A 6781  18.557  15.753   9.293  0.1131 -0.4167 -0.0489
  427POPI   D2A 6782  18.463  15.710   8.844  0.3000  0.2487  0.3030
  427POPI   C3A 6783  18.700  15.839   8.454  0.0782 -0.0270 -0.0658
  427POPI   C4A 6784  18.833  15.911   7.985  0.2620  0.1622 -0.1972
  427POPI   C1B 6785  18.061  15.963   9.001  0.1997  0.0814 -0.1232
  427POPI   C2B 6786  18.113  15.898   8.577  0.2490 -0.2678 -0.2351
  427POPI   C3B 6787  18.062  15.959   8.078 -0.1950  0.0993 -0.1430
  427POPI   C4B 6788  17.893  16.158   7.667  0.3757  0.3980 -0.0736
  428POPI    C1 6789   8.002  11.917  10.479 -0.0185  0.2666 -0.2303
  428POPI    C2 6790   8.361  12.040  10.605  0.0436  0.0314 -0.1739
  428POPI    C3 6791   8.219  11.684  10.720 -0.2423  0.1559 -0.1328
  428POPI   PO4 6792   7.977  11.851  10.228 -0.1920  0.1500 -0.2635
  428POPI   GL1 6793   8.135  11.804   9.877 -0.0377 -0.2285  0.1751
  428POPI   GL2 6794   8.321  12.115   9.828 -0.1447  0.0962 -0.0749
  428POPI   C1A 6795   8.378  11.716   9.598  0.0581  0.0039  0.2572
  428POPI   D2A 6796   8.305  11.610   9.180 -0.1539  0.5266  0.0439
  428POPI   C3A 6797   8.136  11.274   9.048  0.3154  0.1668  0.1325
  428POPI   C4A 6798   7.901  11.106   8.680 -0.0824 -0.0489 -0.1133
  428POPI   C1B 6799   8.253  12.191   9.400  0.0156  0.0184  0.3160
  428POPI   C2B 6800   8.171  12.147   8.947  0.3056  0.0705 -0.0109
  428POPI   C3B 6801   7.814  12.098   8.655  0.0625 -0.0467 -0.3449
  428POPI   C4B 6802   7.657  11.894   8.304 -0.1341  0.2474  0.0853
  429POPI    C1 6803  12.838  10.588  10.162  0.1011  0.1993 -0.0799
  429POPI    C2 6804  12.828  10.942  10.347 -0.1250  0.0873  0.1294
  429POPI    C3 6805  12.881  10.608  10.559 -0.2972 -0.0364 -0.0192
  429POPI   PO4 6806  12.891  10.754   9.837  0.2052  0.1830  0.0967
  429POPI   GL1 6807  12.668  10.805   9.516 -0.0955  0.0736  0.2467
  429POPI   GL2 6808  12.316  10.774   9.476 -0.1008 -0.1957  0.0990
  429POPI   C1A 6809  12.683  10.903   9.084 -0.0083 -0.0322 -0.0323
  429POPI   D2A 6810  12.757  10.987   8.686 -0.1848 -0.1114  0.0005
  429POPI   C3A 6811  12.603  10.760   8.340 -0.0895 -0.1686 -0.1652
  429POPI   C4A 6812  12.615  10.548   7.827  0.2705 -0.2767 -0.1085
  429POPI   C1B 6813  12.077  10.938   9.120 -0.0256 -0.3353  0.1365
  429POPI   C2B 6814  12.240  11.124   8.828 -0.1249 -0.2123 -0.1566
  429POPI   C3B 6815  12.325  11.137   8.389  0.0368  0.1621 -0.1165
  429POPI   C4B 6816  12.379  11.066   7.941 -0.0090  0.0630 -0.1225
  430POPI    C1 6817   6.447  18.326   9.908 -0.2918 -0.0010 -0.1677
  430POPI    C2 6818   6.118  18.548   9.956 -0.2880 -0.0423  0.0648
  430POPI    C3 6819   6.141  18.186  10.124 -0.1241 -0.0403  0.0477
  430POPI   PO4 6820   6.535  18.388   9.622 -0.1598 -0.2037  0.0278
  430POPI   GL1 6821   6.931  18.162   9.423 -0.1129 -0.1022  0.1392
  430POPI   GL2 6822   7.021  17.822   9.398 -0.1569 -0.2763  0.1108
  430POPI   C1A 6823   6.947  18.090   8.938 -0.0645 -0.3058  0.1917
  430POPI   D2A 6824   6.775  18.023   8.575  0.0476  0.1471 -0.1741
  430POPI   C3A 6825   6.786  18.325   8.266 -0.2260  0.0827  0.1497
  430POPI   C4A 6826   6.888  18.530   7.917  0.0105  0.3432 -0.0811
  430POPI   C1B 6827   7.308  17.761   9.014 -0.1881 -0.0286 -0.2625
  430POPI   C2B 6828   7.478  17.847   8.669  0.0614  0.4320  0.1804
  430POPI   C3B 6829   7.511  17.628   8.298 -0.0843  0.0215 -0.0579
  430POPI   C4B 6830   7.612  17.632   7.806 -0.1212  0.0092  0.0989
  431POPI    C1 6831   5.228   1.688  10.218 -0.2813  0.1886  0.0317
  431POPI    C2 6832   5.211   1.342  10.417 -0.1148  0.2149  0.0931
  431POPI    C3 6833   4.877   1.552  10.352 -0.2058  0.0796  0.1200
  431POPI   PO4 6834   5.401   1.670  10.009 -0.0429 -0.2662  0.1642
  431POPI   GL1 6835   5.480   1.652   9.594  0.0112  0.2381 -0.2907
  431POPI   GL2 6836   5.358   1.467   9.490  0.1244  0.2188  0.1060
  431POPI   C1A 6837   5.267   1.926   9.310  0.0707 -0.1160  0.1334
  431POPI   D2A 6838   5.126   2.434   9.297  0.0121  0.1830 -0.0513
  431POPI   C3A 6839   4.983   2.511   8.903 -0.2506 -0.2233 -0.0857
  431POPI   C4A 6840   4.790   2.774   8.588  0.1416  0.3015  0.0630
  431POPI   C1B 6841   5.429   1.541   8.988  0.0357  0.1707 -0.0818
  431POPI   C2B 6842   5.264   1.619   8.645 -0.1804 -0.3088 -0.1981
  431POPI   C3B 6843   5.518   1.681   8.281 -0.0769  0.1266 -0.2069
  431POPI   C4B 6844   5.384   1.705   7.879 -0.3442 -0.0586  0.1308
  432POPI    C1 6845   8.895  15.609  10.442  0.1852  0.0441 -0.0850
  432POPI    C2 6846   8.909  15.951  10.650  0.1803  0.0768 -0.1382
  432POPI    C3 6847   8.818  15.608  10.835  0.0729  0.1220 -0.1064
  432POPI   PO4 6848   9.004  15.744  10.173  0.1943 -0.2186  0.0694
  432POPI   GL1 6849   9.162  15.668   9.774 -0.2031  0.0233  0.3584
  432POPI   GL2 6850   9.397  15.837   9.560  0.0604 -0.1442  0.1457
  432POPI   C1A 6851   9.103  15.229   9.459  0.2854  0.1092 -0.0345
  432POPI   D2A 6852   8.935  15.081   9.152 -0.1850  0.0993 -0.1673
  432POPI   C3A 6853   9.132  14.948   8.779  0.0991 -0.1895 -0.0551
  432POPI   C4A 6854   9.202  15.017   8.299  0.1066  0.0226 -0.0985
  432POPI   C1B 6855   9.517  15.722   9.080  0.0099  0.3298 -0.0651
  432POPI   C2B 6856   9.708  15.788   8.718  0.2749 -0.1897  0.3643
  432POPI   C3B 6857   9.757  15.886   8.198  0.0637 -0.0979 -0.1819
  432POPI   C4B 6858   9.730  16.009   7.763 -0.0089  0.0770 -0.2695
  433POPI    C1 6859   7.467   6.697  10.069 -0.1689  0.1638 -0.0549
  433POPI    C2 6860   7.375   6.984  10.331  0.5133  0.3260  0.0254
  433POPI    C3 6861   7.534   6.640  10.459  0.0005  0.0325 -0.1017
  433POPI   PO4 6862   7.239   6.737   9.931  0.4585  0.1912  0.3213
  433POPI   GL1 6863   6.824   6.794   9.868  0.0675  0.0500  0.2106
  433POPI   GL2 6864   6.589   7.006   9.660 -0.2176  0.0632 -0.0757
  433POPI   C1A 6865   6.694   6.581   9.453 -0.2121 -0.1534  0.1754
  433POPI   D2A 6866   6.594   6.610   9.068 -0.0106 -0.2303 -0.1919
  433POPI   C3A 6867   6.450   6.510   8.693 -0.0964 -0.1935  0.1627
  433POPI   C4A 6868   6.176   6.622   8.377 -0.0939 -0.1739 -0.2733
  433POPI   C1B 6869   6.169   6.894   9.599  0.1794 -0.0062 -0.3088
  433POPI   C2B 6870   5.807   6.897   9.358  0.1781 -0.0260 -0.6184
  433POPI   C3B 6871   5.288   6.787   9.199 -0.3871 -0.0071  0.2577
  433POPI   C4B 6872   5.026   6.319   9.297 -0.2826 -0.0884  0.1990
  434POPI    C1 6873  11.236   2.990  10.017 -0.0005  0.0446 -0.0179
  434POPI    C2 6874  11.421   3.010  10.371  0.1331 -0.0212 -0.0836
  434POPI    C3 6875  11.357   2.655  10.198  0.1944  0.0197 -0.1911
  434POPI   PO4 6876  10.972   3.136  10.087 -0.0948  0.0839  0.0574
  434POPI   GL1 6877  10.758   3.292   9.765  0.4514  0.1482 -0.2296
  434POPI   GL2 6878  11.008   3.144   9.601 -0.3032 -0.0282  0.1592
  434POPI   C1A 6879  10.835   3.659   9.474  0.2542 -0.0251  0.0401
  434POPI   D2A 6880  10.829   3.657   9.047 -0.0016  0.0233 -0.1320
  434POPI   C3A 6881  11.077   4.032   8.964 -0.0298  0.0744 -0.2180
  434POPI   C4A 6882  11.081   4.295   8.759  0.0771 -0.1955  0.0691
  434POPI   C1B 6883  10.892   2.815   9.322  0.1971  0.0514  0.2222
  434POPI   C2B 6884  10.605   2.776   8.855 -0.0681 -0.0970  0.2949
  434POPI   C3B 6885  10.566   2.732   8.399 -0.1120  0.1730 -0.0164
  434POPI   C4B 6886  10.465   2.784   7.991 -0.0584 -0.1722  0.1884
  435POPI    C1 6887  12.045  10.872  10.007  0.0095  0.0419 -0.1290
  435POPI    C2 6888  12.405  11.047  10.013 -0.0542  0.1761 -0.1672
  435POPI    C3 6889  12.376  10.648  10.002  0.0920  0.1525  0.1635
  435POPI   PO4 6890  11.910  11.039   9.907 -0.1198  0.0535 -0.3680
  435POPI   GL1 6891  11.968  11.178   9.551 -0.1313 -0.0139  0.1751
  435POPI   GL2 6892  11.880  11.550   9.497 -0.3802  0.0059 -0.0822
  435POPI   C1A 6893  12.311  11.390   9.325 -0.1632 -0.0226  0.0531
  435POPI   D2A 6894  12.613  11.446   9.076  0.1120  0.1366  0.0358
  435POPI   C3A 6895  12.574  11.596   8.763  0.0952 -0.0013 -0.0150
  435POPI   C4A 6896  12.706  11.541   8.263  0.0164  0.1579 -0.0986
  435POPI   C1B 6897  11.942  11.546   9.066  0.2573 -0.0558  0.0813
  435POPI   C2B 6898  12.027  11.549   8.694  0.0121  0.1781  0.1983
  435POPI   C3B 6899  11.903  11.433   8.229 -0.1459 -0.2843  0.1905
  435POPI   C4B 6900  11.833  11.436   7.750  0.0164 -0.0441 -0.1776
  436POPI    C1 6901  12.384   9.373  10.332 -0.0424  0.0665 -0.0243
  436POPI    C2 6902  12.750   9.377  10.493 -0.0228  0.1618 -0.0704
  436POPI    C3 6903  12.465   9.146  10.651  0.0834  0.0131 -0.0933
  436POPI   PO4 6904  12.429   9.281  10.127 -0.0771  0.1373  0.0575
  436POPI   GL1 6905  12.511   9.192   9.689 -0.2808 -0.2463  0.2107
  436POPI   GL2 6906  12.743   9.052   9.578 -0.1822 -0.0924  0.0188
  436POPI   C1A 6907  12.278   9.080   9.299 -0.2565 -0.0600  0.2929
  436POPI   D2A 6908  12.222   9.037   8.740  0.0779  0.1440 -0.0967
  436POPI   C3A 6909  12.498   8.989   8.378  0.2420  0.0270 -0.2667
  436POPI   C4A 6910  12.678   8.725   7.991  0.1293  0.1447  0.1926
  436POPI   C1B 6911  12.760   8.983   9.219  0.0674 -0.1382 -0.1962
  436POPI   C2B 6912  12.663   9.219   8.979  0.0527  0.0285  0.2355
  436POPI   C3B 6913  12.628   9.388   8.603 -0.0766 -0.3532  0.0289
  436POPI   C4B 6914  12.688   9.351   8.088 -0.2030  0.2218 -0.1155
  437POPI    C1 6915   0.709   6.057   9.804 -0.0113 -0.0665  0.2386
  437POPI    C2 6916   0.385   5.912   9.619  0.0782 -0.0854  0.0950
  437POPI    C3 6917   0.408   5.904  10.019 -0.0746 -0.1332  0.1034
  437POPI   PO4 6918   0.969   5.888   9.638  0.1473 -0.2598  0.1515
  437POPI   GL1 6919   1.178   6.161   9.377  0.3769 -0.0092 -0.2169
  437POPI   GL2 6920   1.252   6.502   9.435  0.0170  0.0311 -0.2044
  437POPI   C1A 6921   1.270   6.258   8.943  0.3851 -0.1719 -0.0019
  437POPI   D2A 6922   1.307   6.298   8.505 -0.2473 -0.0888  0.1898
  437POPI   C3A 6923   1.561   6.300   8.221 -0.1870  0.2549  0.0055
  437POPI   C4A 6924   1.611   6.246   7.729 -0.0322 -0.3488  0.1989
  437POPI   C1B 6925   1.573   6.530   9.228  0.0122  0.0378  0.1981
  437POPI   C2B 6926   1.712   6.495   8.831  0.2419  0.1119  0.0304
  437POPI   C3B 6927   1.981   6.578   8.518 -0.0058  0.1712 -0.3935
  437POPI   C4B 6928   2.263   6.795   8.309 -0.0919 -0.0974  0.0020
  438POPI    C1 6929  13.220  13.790  10.226  0.1124  0.4615 -0.2677
  438POPI    C2 6930  13.176  14.115  10.455  0.1837  0.2174  0.1011
  438POPI    C3 6931  13.399  13.809  10.583  0.0420 -0.0173 -0.2008
  438POPI   PO4 6932  12.980  13.643  10.134  0.0045 -0.3150  0.1459
  438POPI   GL1 6933  12.759  13.710   9.897  0.0110 -0.0018 -0.1023
  438POPI   GL2 6934  12.990  13.860   9.692 -0.5024  0.0798 -0.1238
  438POPI   C1A 6935  12.516  13.575   9.522 -0.1460  0.0555 -0.2451
  438POPI   D2A 6936  12.385  13.710   9.122  0.2263  0.0321 -0.1095
  438POPI   C3A 6937  12.646  13.825   8.830  0.0153 -0.0820  0.0752
  438POPI   C4A 6938  12.486  14.003   8.480 -0.0204 -0.0389  0.3548
  438POPI   C1B 6939  12.876  13.959   9.312  0.1328  0.0310 -0.0503
  438POPI   C2B 6940  13.054  14.050   8.880  0.0462 -0.0361  0.1494
  438POPI   C3B 6941  13.017  14.049   8.457  0.1517  0.0763  0.4624
  438POPI   C4B 6942  13.056  14.029   8.026 -0.2038 -0.2373  0.0610
  439POPI    C1 6943   2.109  15.643  10.003  0.3180  0.2699 -0.0451
  439POPI    C2 6944   2.123  15.829  10.357 -0.0127 -0.2928  0.2784
  439POPI    C3 6945   1.792  15.849  10.133  0.2654  0.2276 -0.1059
  439POPI   PO4 6946   2.248  15.751   9.813  0.0281 -0.0503 -0.3124
  439POPI   GL1 6947   2.141  15.980   9.541  0.0444 -0.0705  0.1029
  439POPI   GL2 6948   1.813  15.858   9.586 -0.1023  0.1799  0.1231
  439POPI   C1A 6949   2.488  15.987   9.176 -0.0432 -0.0775  0.1308
  439POPI   D2A 6950   2.547  16.199   8.766  0.1628  0.3677 -0.1721
  439POPI   C3A 6951   2.659  16.277   8.336 -0.0466  0.2409  0.0617
  439POPI   C4A 6952   2.586  15.924   8.012  0.0863  0.0152  0.0827
  439POPI   C1B 6953   1.871  15.661   9.240  0.0182 -0.1818  0.0237
  439POPI   C2B 6954   1.628  15.626   8.879 -0.0221  0.2750  0.0349
  439POPI   C3B 6955   1.710  15.700   8.500  0.2486  0.1089 -0.0635
  439POPI   C4B 6956   1.847  15.891   8.116  0.3765 -0.1979 -0.2130
  440POPI    C1 6957  17.747   2.570   9.697 -0.1369  0.0661 -0.0231
  440POPI    C2 6958  17.515   2.475  10.009 -0.0713 -0.1975 -0.0527
  440POPI    C3 6959  17.907   2.392  10.018 -0.1112 -0.4253 -0.2992
  440POPI   PO4 6960  17.465   2.743   9.509 -0.0172  0.0071 -0.1656
  440POPI   GL1 6961  17.347   2.627   9.135 -0.0495  0.0057  0.2927
  440POPI   GL2 6962  17.641   2.487   9.130 -0.3597 -0.1367  0.1577
  440POPI   C1A 6963  17.184   2.536   8.712  0.1744 -0.0147 -0.3040
  440POPI   D2A 6964  17.277   2.687   8.467 -0.2258  0.3257 -0.0067
  440POPI   C3A 6965  16.988   2.686   8.108 -0.0086 -0.3095  0.0569
  440POPI   C4A 6966  16.494   2.799   8.191  0.2088 -0.0602  0.3611
  440POPI   C1B 6967  17.541   2.228   8.738  0.2360 -0.3322 -0.1134
  440POPI   C2B 6968  17.644   2.017   8.514  0.1221  0.1643 -0.4426
  440POPI   C3B 6969  17.627   1.976   8.132 -0.1496  0.0612  0.1200
  440POPI   C4B 6970  17.607   1.770   7.677 -0.2180 -0.3443  0.0337
  441POPI    C1 6971  14.257   5.123  10.024 -0.1075 -0.0709  0.0583
  441POPI    C2 6972  14.020   5.346  10.257 -0.0169  0.0057  0.0776
  441POPI    C3 6973  14.291   5.102  10.422 -0.0400 -0.0358  0.0545
  441POPI   PO4 6974  14.067   5.051   9.883 -0.0697 -0.2902 -0.1147
  441POPI   GL1 6975  13.876   5.221   9.545 -0.0535 -0.0051 -0.0821
  441POPI   GL2 6976  13.770   5.518   9.501 -0.0722 -0.1631  0.1570
  441POPI   C1A 6977  13.790   5.211   9.116  0.1054 -0.1117 -0.1456
  441POPI   D2A 6978  13.826   5.330   8.634 -0.0010  0.0065  0.0278
  441POPI   C3A 6979  13.926   5.298   8.233  0.1004  0.2373 -0.0089
  441POPI   C4A 6980  13.860   5.440   7.887  0.2462  0.0035 -0.0377
  441POPI   C1B 6981  13.864   5.717   9.033  0.0279  0.2633  0.0910
  441POPI   C2B 6982  13.901   5.901   8.660 -0.1502 -0.1501 -0.0566
  441POPI   C3B 6983  13.749   5.836   8.273  0.1070  0.0459  0.1064
  441POPI   C4B 6984  13.684   6.051   7.979 -0.0656  0.3689 -0.1175
  442POPI    C1 6985  16.437  14.985  10.102 -0.0239  0.1917  0.0470
  442POPI    C2 6986  16.551  14.610  10.182  0.0632  0.2100  0.0105
  442POPI    C3 6987  16.686  14.912  10.406 -0.0770  0.2106  0.0951
  442POPI   PO4 6988  16.443  15.009   9.812  0.2800 -0.0928 -0.0173
  442POPI   GL1 6989  16.346  14.766   9.526  0.0525  0.2166  0.2824
  442POPI   GL2 6990  16.590  14.652   9.372  0.1263 -0.0628 -0.2808
  442POPI   C1A 6991  16.426  15.017   9.103  0.0264 -0.0183 -0.1547
  442POPI   D2A 6992  16.665  15.191   8.920 -0.1421  0.1316 -0.0351
  442POPI   C3A 6993  16.785  15.260   8.560  0.3035 -0.1215 -0.2552
  442POPI   C4A 6994  16.930  15.159   8.194  0.2308 -0.1605  0.1339
  442POPI   C1B 6995  16.625  14.425   8.971  0.3099 -0.2540 -0.1891
  442POPI   C2B 6996  16.629  14.620   8.558 -0.0654  0.0825 -0.1140
  442POPI   C3B 6997  16.876  14.606   8.245  0.0231 -0.1391  0.0886
  442POPI   C4B 6998  16.612  14.525   7.811 -0.0946  0.0904  0.1509
  443POPI    C1 6999  18.330  10.539  10.183 -0.1785  0.0587 -0.0862
  443POPI    C2 7000  18.102  10.249  10.339 -0.2126 -0.0435 -0.3217
  443POPI    C3 7001  18.484  10.286  10.452 -0.2155 -0.1636 -0.2713
  443POPI   PO4 7002  18.219  10.568   9.959 -0.2403 -0.1486 -0.1260
  443POPI   GL1 7003  18.154  10.419   9.559  0.3768 -0.1449  0.1001
  443POPI   GL2 7004  17.886  10.507   9.470 -0.0761 -0.1799  0.0385
  443POPI   C1A 7005  18.308  10.449   9.086  0.1082  0.0131 -0.1006
  443POPI   D2A 7006  18.574  10.526   8.896  0.0843  0.1793  0.0161
  443POPI   C3A 7007  18.440  10.626   8.528  0.2832  0.1286  0.0609
  443POPI   C4A 7008  18.478  10.662   8.060 -0.0913 -0.0692  0.0142
  443POPI   C1B 7009  17.833  10.574   9.046  0.2139  0.0787 -0.2909
  443POPI   C2B 7010  17.896  10.511   8.597 -0.3301  0.3241 -0.1620
  443POPI   C3B 7011  18.004  10.739   8.236  0.0535 -0.3908 -0.1687
  443POPI   C4B 7012  18.103  10.901   7.847 -0.0292  0.1116 -0.0408
  444POPI    C1 7013  15.839   5.119  10.069 -0.0733 -0.0250 -0.0260
  444POPI    C2 7014  15.854   4.846  10.360  0.2424  0.0003 -0.0147
  444POPI    C3 7015  16.093   5.166  10.374 -0.2204  0.3540  0.0438
  444POPI   PO4 7016  15.575   5.157  10.011 -0.2432 -0.3883  0.0860
  444POPI   GL1 7017  15.269   5.251   9.768  0.0862  0.1848  0.1024
  444POPI   GL2 7018  15.240   4.923   9.626 -0.2206 -0.1396 -0.1977
  444POPI   C1A 7019  15.354   5.388   9.342 -0.0280  0.0905 -0.0589
  444POPI   D2A 7020  15.327   5.525   8.962  0.0202  0.2850 -0.2109
  444POPI   C3A 7021  15.615   5.702   8.701 -0.0287  0.1363  0.0343
  444POPI   C4A 7022  15.622   5.823   8.266 -0.0479  0.1999 -0.3151
  444POPI   C1B 7023  15.315   4.925   9.218 -0.0899 -0.0350  0.2812
  444POPI   C2B 7024  15.444   5.048   8.882  0.1351 -0.0357 -0.1462
  444POPI   C3B 7025  15.635   5.173   8.548 -0.3258 -0.1941  0.0274
  444POPI   C4B 7026  15.627   5.224   8.139 -0.4055 -0.2487 -0.1845
  445POPI    C1 7027  17.739   7.267  10.380 -0.1360 -0.1654 -0.1265
  445POPI    C2 7028  17.893   7.090  10.705 -0.1225 -0.1674 -0.1338
  445POPI    C3 7029  17.555   7.303  10.734  0.0415  0.0876 -0.0570
  445POPI   PO4 7030  17.646   7.102  10.189  0.3707 -0.2299 -0.0594
  445POPI   GL1 7031  17.763   6.938   9.807 -0.0676  0.0712 -0.0392
  445POPI   GL2 7032  17.994   7.076   9.505 -0.0326  0.1831 -0.2017
  445POPI   C1A 7033  17.447   6.774   9.569 -0.2748  0.1479  0.4330
  445POPI   D2A 7034  17.326   6.821   9.159  0.0209  0.3283 -0.1814
  445POPI   C3A 7035  17.101   7.194   8.981  0.1588 -0.2461  0.1622
  445POPI   C4A 7036  16.870   7.352   8.611 -0.1932 -0.1484 -0.1491
  445POPI   C1B 7037  17.670   7.141   9.291  0.1601 -0.1364 -0.1107
  445POPI   C2B 7038  17.756   7.295   8.817  0.1528 -0.0310 -0.2527
  445POPI   C3B 7039  17.836   7.270   8.402 -0.0337  0.0718  0.1410
  445POPI   C4B 7040  17.568   7.094   8.060 -0.2260  0.0530 -0.1208
  446POPI    C1 7041   3.548  13.993  10.052 -0.0445  0.2349 -0.1165
  446POPI    C2 7042   3.925  14.105  10.125  0.0508 -0.0182 -0.2081
  446POPI    C3 7043   3.764  13.800  10.328 -0.1433  0.1585 -0.0918
  446POPI   PO4 7044   3.454  14.227  10.031 -0.0334  0.0993  0.2717
  446POPI   GL1 7045   3.691  14.398   9.730  0.0854  0.1127 -0.4563
  446POPI   GL2 7046   3.465  14.503   9.484 -0.0896  0.0161 -0.1063
  446POPI   C1A 7047   3.994  14.366   9.486 -0.2811 -0.1612 -0.0586
  446POPI   D2A 7048   4.167  14.505   9.258 -0.0785 -0.0474  0.0222
  446POPI   C3A 7049   4.126  14.387   8.797 -0.2994 -0.0551  0.0028
  446POPI   C4A 7050   4.118  14.249   8.357  0.5609 -0.0216  0.2320
  446POPI   C1B 7051   3.576  14.342   9.096 -0.0934  0.0563 -0.0277
  446POPI   C2B 7052   3.624  14.356   8.704  0.2770  0.0785  0.1949
  446POPI   C3B 7053   3.553  14.440   8.261  0.1379 -0.2331 -0.1027
  446POPI   C4B 7054   3.568  14.842   7.963 -0.3234  0.0513  0.0414
  447POPI    C1 7055  10.997  15.741   9.996  0.0185 -0.0766  0.2044
  447POPI    C2 7056  11.017  15.758  10.395 -0.0716  0.2406  0.1983
  447POPI    C3 7057  11.346  15.819  10.176 -0.0405  0.1567  0.2215
  447POPI   PO4 7058  10.875  15.910   9.921 -0.0276 -0.1144  0.1287
  447POPI   GL1 7059  10.473  15.795   9.826  0.0937 -0.0249 -0.0371
  447POPI   GL2 7060  10.246  15.608   9.632 -0.1535  0.0879  0.0826
  447POPI   C1A 7061  10.558  15.860   9.316  0.0309  0.1774 -0.2519
  447POPI   D2A 7062  10.598  16.263   9.192  0.0701 -0.0699  0.3175
  447POPI   C3A 7063  10.619  16.259   8.790  0.1033 -0.0432  0.2740
  447POPI   C4A 7064  10.608  16.445   8.341 -0.0864  0.1316  0.1707
  447POPI   C1B 7065  10.034  15.522   9.350 -0.2063  0.4182  0.1590
  447POPI   C2B 7066   9.936  15.390   9.023 -0.0548  0.0431 -0.0025
  447POPI   C3B 7067  10.104  15.521   8.616  0.0398  0.2067  0.1915
  447POPI   C4B 7068  10.258  15.521   8.302  0.1734  0.0184 -0.0068
  448POPI    C1 7069   9.269  18.057  10.255 -0.0645  0.0270 -0.4586
  448POPI    C2 7070   9.375  18.442  10.253  0.0392  0.0011 -0.2350
  448POPI    C3 7071   9.059  18.323  10.467  0.2525 -0.0985  0.0317
  448POPI   PO4 7072   9.356  17.928   9.984  0.2847  0.1031  0.1856
  448POPI   GL1 7073   9.211  17.551   9.665 -0.2240  0.3409  0.1223
  448POPI   GL2 7074   9.434  17.307   9.464 -0.0441 -0.2180  0.0167
  448POPI   C1A 7075   8.979  17.739   9.295  0.0599 -0.0096 -0.1890
  448POPI   D2A 7076   8.961  17.787   8.910 -0.2776  0.0286  0.0477
  448POPI   C3A 7077   8.900  17.777   8.587  0.1440 -0.0708 -0.2773
  448POPI   C4A 7078   8.571  17.841   8.223 -0.0290 -0.0572  0.1471
  448POPI   C1B 7079   9.419  17.349   8.979  0.4209 -0.2873 -0.0365
  448POPI   C2B 7080   9.434  17.347   8.574  0.0265  0.0157 -0.1376
  448POPI   C3B 7081   9.509  17.311   8.109 -0.1164 -0.0773  0.0720
  448POPI   C4B 7082   9.397  17.462   7.732  0.1140  0.1354 -0.3397
  449POPI    C1 7083   8.960  13.217  10.416  0.0894 -0.1272 -0.1965
  449POPI    C2 7084   8.760  13.526  10.259  0.2081 -0.0428 -0.1835
  449POPI    C3 7085   8.709  13.431  10.644  0.1384 -0.0673 -0.1985
  449POPI   PO4 7086   9.191  13.235  10.293  0.1053  0.2006 -0.2964
  449POPI   GL1 7087   9.134  13.420   9.898  0.0233  0.1075 -0.1403
  449POPI   GL2 7088   8.995  13.267   9.857 -0.2836  0.1218  0.0136
  449POPI   C1A 7089   9.387  13.610   9.645  0.0946 -0.0726  0.0184
  449POPI   D2A 7090   9.395  13.645   9.217 -0.0055  0.1377 -0.0444
  449POPI   C3A 7091   9.420  13.271   9.104  0.0666  0.1144  0.2296
  449POPI   C4A 7092   9.611  13.017   8.914  0.1337 -0.3355  0.0970
  449POPI   C1B 7093   9.045  13.360   9.410  0.2172  0.1804  0.2811
  449POPI   C2B 7094   8.933  13.391   9.049 -0.1454  0.1716 -0.2541
  449POPI   C3B 7095   8.776  13.266   8.642 -0.3455  0.1837 -0.2045
  449POPI   C4B 7096   8.895  13.494   8.199  0.1374 -0.4338  0.1070
  450POPI    C1 7097   2.932   6.397  10.529 -0.1751  0.1687 -0.0781
  450POPI    C2 7098   2.676   6.107  10.634 -0.0479  0.1131  0.0828
  450POPI    C3 7099   2.594   6.489  10.721 -0.2151  0.1270 -0.1282
  450POPI   PO4 7100   3.247   6.363  10.505  0.0671  0.0829  0.4506
  450POPI   GL1 7101   3.522   6.124  10.215 -0.0519 -0.0495  0.0492
  450POPI   GL2 7102   3.236   6.160  10.024 -0.2420 -0.1279  0.1525
  450POPI   C1A 7103   3.648   6.430   9.839  0.0166  0.0978  0.1025
  450POPI   D2A 7104   3.794   6.517   9.428 -0.0618  0.0000 -0.3633
  450POPI   C3A 7105   3.635   6.541   9.031  0.2465 -0.0127  0.2167
  450POPI   C4A 7106   3.735   6.830   8.662  0.0827 -0.2284 -0.0153
  450POPI   C1B 7107   3.147   6.380   9.705  0.0569  0.1223  0.0131
  450POPI   C2B 7108   3.267   6.475   9.339  0.0306  0.0384  0.2480
  450POPI   C3B 7109   3.197   6.726   8.992  0.0763 -0.1178 -0.1158
  450POPI   C4B 7110   3.278   6.844   8.575 -0.1632 -0.1066 -0.0506
  451POPI    C1 7111   4.358   2.196  10.002  0.1709  0.2837  0.1184
  451POPI    C2 7112   4.247   1.863  10.193  0.0850  0.2666  0.0395
  451POPI    C3 7113   4.635   1.950  10.151  0.1234 -0.0497 -0.3219
  451POPI   PO4 7114   4.260   2.207   9.735  0.0044  0.0681  0.1272
  451POPI   GL1 7115   4.378   2.167   9.448 -0.0059  0.1729 -0.4714
  451POPI   GL2 7116   4.307   1.743   9.254 -0.0502  0.3569  0.0849
  451POPI   C1A 7117   4.646   2.507   9.256  0.4260  0.3411 -0.3157
  451POPI   D2A 7118   4.512   2.903   9.103  0.2621  0.1390 -0.0215
  451POPI   C3A 7119   4.222   2.788   8.654 -0.0040 -0.2991  0.0603
  451POPI   C4A 7120   4.402   2.814   8.284  0.1124  0.1686  0.0302
  451POPI   C1B 7121   4.416   1.817   8.968 -0.3413 -0.0447  0.1553
  451POPI   C2B 7122   4.500   1.887   8.550 -0.0322 -0.1172 -0.1022
  451POPI   C3B 7123   4.363   1.987   8.106  0.1009 -0.2690 -0.3742
  451POPI   C4B 7124   4.054   2.028   7.779 -0.1569 -0.4205  0.0074
  452POPI    C1 7125  12.285  13.665  10.003 -0.2487 -0.1298 -0.3495
  452POPI    C2 7126  12.008  13.428  10.168 -0.1435  0.1492  0.2563
  452POPI    C3 7127  12.358  13.486  10.353  0.0063  0.4312 -0.1027
  452POPI   PO4 7128  12.208  13.908  10.073 -0.0441 -0.0299 -0.0909
  452POPI   GL1 7129  12.207  14.247   9.760  0.0696 -0.3100 -0.4575
  452POPI   GL2 7130  12.507  14.079   9.694  0.2835  0.2518 -0.1351
  452POPI   C1A 7131  11.907  14.294   9.382  0.1143 -0.1732 -0.1014
  452POPI   D2A 7132  11.703  14.330   9.018  0.2243  0.0562 -0.1057
  452POPI   C3A 7133  11.447  14.650   8.921 -0.0441 -0.1691 -0.1555
  452POPI   C4A 7134  11.436  14.835   8.509  0.1980  0.0986  0.0737
  452POPI   C1B 7135  12.440  14.224   9.323  0.0101  0.0302  0.0561
  452POPI   C2B 7136  12.288  14.160   8.914  0.0847  0.0945  0.2398
  452POPI   C3B 7137  12.074  14.230   8.620  0.1020  0.1809  0.1035
  452POPI   C4B 7138  11.984  13.962   8.315 -0.1031 -0.0710 -0.0481
  453POPI    C1 7139   3.065   9.272  10.745 -0.1169  0.1640  0.0709
  453POPI    C2 7140   2.948   9.558  10.491 -0.0270  0.0873 -0.0580
  453POPI    C3 7141   3.183   9.650  10.801  0.0056  0.1526 -0.1017
  453POPI   PO4 7142   3.061   9.092  10.595  0.0707 -0.0952  0.1083
  453POPI   GL1 7143   3.065   9.158  10.233  0.2727  0.1601 -0.2297
  453POPI   GL2 7144   3.015   9.365  10.039  0.1091 -0.0924  0.1705
  453POPI   C1A 7145   3.375   9.001   9.963 -0.2989 -0.0769  0.0907
  453POPI   D2A 7146   3.701   8.821   9.689 -0.1976 -0.0048 -0.1332
  453POPI   C3A 7147   3.686   8.301   9.665  0.1581  0.1147 -0.0138
  453POPI   C4A 7148   3.737   7.831   9.774  0.3486 -0.2476  0.0807
  453POPI   C1B 7149   2.978   9.152   9.630  0.2070 -0.2552  0.0655
  453POPI   C2B 7150   2.916   9.079   9.176 -0.2424  0.0503  0.1189
  453POPI   C3B 7151   2.863   8.950   8.772 -0.1912  0.0012  0.3651
  453POPI   C4B 7152   2.800   8.698   8.515 -0.2194  0.1121 -0.2885
  454POPI    C1 7153   8.419  14.079  10.719 -0.2147 -0.1028 -0.0927
  454POPI    C2 7154   8.527  14.454  10.805 -0.0340 -0.1776  0.0129
  454POPI    C3 7155   8.412  14.207  11.098 -0.3363 -0.1495 -0.0786
  454POPI   PO4 7156   8.663  13.948  10.532 -0.2032 -0.1779  0.1483
  454POPI   GL1 7157   8.761  14.048  10.085  0.1578  0.0560 -0.1759
  454POPI   GL2 7158   9.004  13.862   9.854  0.0798 -0.1624  0.1923
  454POPI   C1A 7159   8.734  14.219   9.581 -0.0989 -0.2010 -0.2301
  454POPI   D2A 7160   8.515  14.228   9.223  0.2466 -0.2292 -0.0113
  454POPI   C3A 7161   8.314  14.188   8.820 -0.3504 -0.1615 -0.0851
  454POPI   C4A 7162   8.359  14.072   8.329 -0.0345  0.0060  0.0196
  454POPI   C1B 7163   8.847  13.715   9.636  0.3458  0.0243  0.2740
  454POPI   C2B 7164   8.567  13.572   9.347  0.2566  0.1414 -0.1833
  454POPI   C3B 7165   8.560  13.649   8.892 -0.1061 -0.5032 -0.1078
  454POPI   C4B 7166   8.734  13.836   8.480 -0.4267  0.0419 -0.0423
  455POPI    C1 7167  16.696   1.358   9.886 -0.0461  0.0801  0.0007
  455POPI    C2 7168  16.534   1.553  10.195  0.0060  0.0643  0.0380
  455POPI    C3 7169  16.563   1.154  10.204 -0.0009  0.0631  0.0087
  455POPI   PO4 7170  16.577   1.433   9.695  0.1419  0.2709  0.0411
  455POPI   GL1 7171  16.496   1.701   9.398  0.1068 -0.3724  0.0510
  455POPI   GL2 7172  16.220   1.830   9.458 -0.0497 -0.1842 -0.1723
  455POPI   C1A 7173  16.623   1.820   9.022  0.0111  0.0982 -0.1260
  455POPI   D2A 7174  16.589   1.890   8.621  0.0894 -0.1501  0.0379
  455POPI   C3A 7175  16.648   1.649   8.336 -0.1821  0.1028 -0.2109
  455POPI   C4A 7176  16.580   1.844   8.045 -0.0222 -0.5021  0.2038
  455POPI   C1B 7177  16.166   2.128   8.953 -0.0325 -0.1586 -0.4328
  455POPI   C2B 7178  16.131   2.271   8.559 -0.0425  0.2316  0.1568
  455POPI   C3B 7179  15.856   2.214   8.309  0.1685 -0.1313 -0.0478
  455POPI   C4B 7180  15.968   2.067   8.017 -0.2439  0.0889  0.0052
  456POPI    C1 7181  12.486  15.079  10.478  0.0051 -0.0482  0.1910
  456POPI    C2 7182  12.883  15.069  10.521  0.0129  0.0703  0.1518
  456POPI    C3 7183  12.651  15.163  10.832 -0.0006 -0.2544  0.2437
  456POPI   PO4 7184  12.470  14.913  10.241  0.0936 -0.2118  0.1178
  456POPI   GL1 7185  12.692  14.837   9.869  0.0908 -0.1530 -0.0841
  456POPI   GL2 7186  12.550  15.138   9.774  0.2171  0.0988  0.1512
  456POPI   C1A 7187  12.774  14.600   9.443  0.0878 -0.1302 -0.1974
  456POPI   D2A 7188  12.791  14.408   8.974 -0.0538  0.2415 -0.1737
  456POPI   C3A 7189  12.701  14.478   8.647 -0.1180  0.1981  0.4744
  456POPI   C4A 7190  12.608  14.331   8.149  0.1675 -0.1226  0.1354
  456POPI   C1B 7191  12.836  15.074   9.407 -0.0851  0.0927  0.3563
  456POPI   C2B 7192  12.940  14.904   9.047  0.1452 -0.0708  0.0091
  456POPI   C3B 7193  13.079  14.957   8.554 -0.0367  0.2132 -0.2222
  456POPI   C4B 7194  13.271  15.117   8.167  0.3608  0.0085 -0.1488
  457POPI    C1 7195   0.604  11.181  10.293 -0.0535 -0.0222  0.1774
  457POPI    C2 7196   0.423  11.051  10.625  0.1007 -0.0448  0.2533
  457POPI    C3 7197   0.818  11.004  10.580  0.0224 -0.4078 -0.1095
  457POPI   PO4 7198   0.532  11.101  10.100 -0.2237  0.2408  0.2667
  457POPI   GL1 7199   0.608  11.058   9.724 -0.5135  0.0699 -0.2088
  457POPI   GL2 7200   0.937  11.116   9.795 -0.1861  0.1511 -0.0654
  457POPI   C1A 7201   0.548  11.182   9.248 -0.2188  0.0481  0.0426
  457POPI   D2A 7202   0.106  11.357   9.218 -0.1240 -0.0030  0.2227
  457POPI   C3A 7203   0.285  11.322   8.788 -0.0349 -0.1990  0.1651
  457POPI   C4A 7204   0.733  11.123   8.725  0.3578 -0.0989 -0.1340
  457POPI   C1B 7205   1.067  10.969   9.474 -0.1960  0.0740  0.0691
  457POPI   C2B 7206   1.169  10.877   9.038 -0.0187 -0.0194 -0.0115
  457POPI   C3B 7207   1.142  10.843   8.553 -0.1935  0.0151 -0.1754
  457POPI   C4B 7208   1.193  10.583   8.228  0.0178 -0.0185 -0.0665
  458POPI    C1 7209   1.925   5.720  10.362  0.1282 -0.0709 -0.4445
  458POPI    C2 7210   2.086   6.085  10.333 -0.1273  0.0840 -0.0128
  458POPI    C3 7211   2.268   5.803  10.550  0.0981 -0.0696 -0.3901
  458POPI   PO4 7212   1.827   5.755  10.112 -0.0425 -0.1434 -0.0988
  458POPI   GL1 7213   1.914   5.762   9.739  0.1016  0.2052  0.2794
  458POPI   GL2 7214   1.893   5.548   9.431 -0.0889  0.1277 -0.1957
  458POPI   C1A 7215   2.261   5.851   9.517  0.0772  0.1353  0.2351
  458POPI   D2A 7216   2.413   5.941   9.232 -0.1654  0.0428  0.1057
  458POPI   C3A 7217   2.465   5.783   8.721  0.4323 -0.2611 -0.3069
  458POPI   C4A 7218   2.444   5.816   8.218 -0.1808  0.0513 -0.0665
  458POPI   C1B 7219   2.117   5.482   9.038  0.1816  0.0151  0.0998
  458POPI   C2B 7220   2.272   5.320   8.699 -0.4018 -0.3418 -0.1373
  458POPI   C3B 7221   2.493   5.174   8.285 -0.0272  0.2370 -0.0117
  458POPI   C4B 7222   2.312   5.099   7.975 -0.0093 -0.1633  0.0817
  459POPI    C1 7223  15.170  14.751  10.068  0.0600  0.1173  0.0530
  459POPI    C2 7224  15.529  14.623   9.948  0.0663  0.0612  0.1310
  459POPI    C3 7225  15.489  14.990  10.101  0.0648  0.1196 -0.0085
  459POPI   PO4 7226  15.018  14.666   9.926 -0.3925  0.0071 -0.0259
  459POPI   GL1 7227  15.173  14.553   9.538  0.3764 -0.2238  0.1192
  459POPI   GL2 7228  15.133  14.803   9.400 -0.2018  0.0975  0.0001
  459POPI   C1A 7229  15.052  14.399   9.133  0.3579  0.0562 -0.4372
  459POPI   D2A 7230  14.969  14.434   8.637  0.0403 -0.0042 -0.0283
  459POPI   C3A 7231  15.131  14.430   8.194  0.0285  0.0167 -0.0056
  459POPI   C4A 7232  15.253  14.162   7.964  0.2637 -0.5530 -0.0926
  459POPI   C1B 7233  15.340  14.877   9.090 -0.0072  0.1025 -0.1096
  459POPI   C2B 7234  15.289  14.844   8.642 -0.1461  0.0871 -0.2372
  459POPI   C3B 7235  15.288  14.888   8.173 -0.2046 -0.0403  0.0383
  459POPI   C4B 7236  15.605  14.969   7.743  0.3494 -0.2346 -0.0986
  460POPI    C1 7237   1.476   5.428  10.080  0.0618 -0.0706 -0.0731
  460POPI    C2 7238   1.102   5.462   9.942  0.1007 -0.1678 -0.2041
  460POPI    C3 7239   1.178   5.227  10.257  0.0714 -0.2533 -0.2602
  460POPI   PO4 7240   1.584   5.324   9.733  0.4375 -0.1772 -0.0141
  460POPI   GL1 7241   1.437   5.463   9.339  0.0979  0.1478  0.0569
  460POPI   GL2 7242   1.386   5.732   9.345  0.1745 -0.0616 -0.3881
  460POPI   C1A 7243   1.652   5.512   8.921 -0.0374  0.2326 -0.2799
  460POPI   D2A 7244   1.884   5.535   8.538 -0.2063  0.1267  0.1089
  460POPI   C3A 7245   2.059   5.519   8.194 -0.2834 -0.0914  0.3107
  460POPI   C4A 7246   2.062   5.757   7.848 -0.0352  0.1663 -0.0901
  460POPI   C1B 7247   1.230   5.735   8.949 -0.0209 -0.0139  0.1624
  460POPI   C2B 7248   1.350   5.737   8.532 -0.0676  0.0396  0.0955
  460POPI   C3B 7249   1.649   5.804   8.161  0.1386 -0.1111 -0.1253
  460POPI   C4B 7250   1.429   5.775   7.843  0.3378  0.0967 -0.0481
  461POPI    C1 7251  12.940   3.120   9.896  0.0372  0.3175 -0.0604
  461POPI    C2 7252  12.956   3.468  10.092 -0.1123  0.1044  0.3417
  461POPI    C3 7253  12.763   3.157  10.252  0.0248 -0.1689 -0.0093
  461POPI   PO4 7254  12.814   3.108   9.758 -0.2252 -0.4221 -0.3269
  461POPI   GL1 7255  12.430   3.181   9.480 -0.3126 -0.1144  0.0831
  461POPI   GL2 7256  12.449   3.572   9.473  0.0101  0.3281 -0.0987
  461POPI   C1A 7257  12.186   3.333   9.116 -0.1697  0.0262 -0.4374
  461POPI   D2A 7258  12.018   3.093   8.739  0.1126 -0.0513  0.1608
  461POPI   C3A 7259  11.977   3.203   8.315  0.1304 -0.3349  0.1348
  461POPI   C4A 7260  12.021   3.226   7.838  0.1022  0.0428  0.1265
  461POPI   C1B 7261  12.840   3.745   9.154  0.1169 -0.3094  0.1948
  461POPI   C2B 7262  12.944   3.667   8.827 -0.3157 -0.1631 -0.2658
  461POPI   C3B 7263  12.753   3.761   8.552 -0.1097  0.0046  0.0019
  461POPI   C4B 7264  12.560   4.113   8.343 -0.0588 -0.0572  0.1014
  462POPI    C1 7265  15.519   2.612   9.868 -0.0643 -0.1981  0.2118
  462POPI    C2 7266  15.585   2.836  10.193  0.1351  0.1076 -0.0326
  462POPI    C3 7267  15.211   2.741  10.088  0.0505  0.2837  0.1032
  462POPI   PO4 7268  15.617   2.805   9.616  0.1211  0.0242  0.0392
  462POPI   GL1 7269  15.635   3.002   9.197  0.0580  0.0635 -0.1260
  462POPI   GL2 7270  15.936   2.830   9.120 -0.0393  0.1604 -0.0401
  462POPI   C1A 7271  15.563   3.346   9.022  0.0071  0.4938  0.1950
  462POPI   D2A 7272  15.426   3.471   8.592  0.3346  0.3520  0.0388
  462POPI   C3A 7273  15.236   3.529   8.177 -0.0947  0.1773 -0.2375
  462POPI   C4A 7274  15.009   3.680   7.774 -0.1609  0.0888 -0.0371
  462POPI   C1B 7275  15.839   3.060   8.707  0.1519  0.0193 -0.0879
  462POPI   C2B 7276  15.753   3.223   8.278 -0.0868 -0.0176 -0.2635
  462POPI   C3B 7277  15.857   3.408   7.963 -0.0026  0.3253  0.0389
  462POPI   C4B 7278  15.938   3.730   7.583  0.0623  0.0826 -0.2520
  463POPI    C1 7279  18.382   7.212  10.473 -0.0558 -0.0317 -0.1682
  463POPI    C2 7280  18.592   7.500  10.656  0.0187 -0.1540 -0.0595
  463POPI    C3 7281  18.352   7.261  10.869  0.0422 -0.2444 -0.1332
  463POPI   PO4 7282  18.616   7.171  10.216 -0.1794  0.2073 -0.2857
  463POPI   GL1 7283  18.456   7.221   9.744 -0.0189 -0.0797  0.0702
  463POPI   GL2 7284  18.474   6.932   9.433 -0.1595 -0.0832  0.1073
  463POPI   C1A 7285  18.531   7.434   9.374 -0.0245 -0.0601  0.0329
  463POPI   D2A 7286  18.769   7.786   9.280  0.1312 -0.0082 -0.2009
  463POPI   C3A 7287  18.792   7.984   8.947 -0.0252  0.0510 -0.0681
  463POPI   C4A 7288  18.673   8.305   8.592 -0.1657  0.2356  0.1028
  463POPI   C1B 7289  18.342   7.133   9.069  0.0540  0.0543  0.1069
  463POPI   C2B 7290  18.306   7.224   8.583 -0.0518 -0.1671 -0.0430
  463POPI   C3B 7291  18.479   7.308   8.187  0.0779 -0.3343  0.3613
  463POPI   C4B 7292  18.546   7.157   7.834  0.3723  0.0651  0.1306
  464POPI    C1 7293   0.745  18.086   9.981 -0.1260  0.1406 -0.0160
  464POPI    C2 7294   1.012  18.044  10.275  0.0684  0.2474 -0.1747
  464POPI    C3 7295   0.621  18.057  10.360  0.1089  0.0407  0.0544
  464POPI   PO4 7296   0.851  18.071   9.714 -0.0138 -0.2189  0.2277
  464POPI   GL1 7297   0.768  18.057   9.211 -0.2296 -0.2121  0.1566
  464POPI   GL2 7298   0.657  17.788   9.213  0.3856 -0.1536 -0.0211
  464POPI   C1A 7299   0.597  18.336   8.878  0.2932 -0.2148  0.1174
  464POPI   D2A 7300   0.608  18.431   8.417  0.1002  0.0785  0.1888
  464POPI   C3A 7301   0.601  18.092   8.152 -0.0400 -0.0170  0.0285
  464POPI   C4A 7302   0.394  17.825   8.046 -0.3953 -0.3296  0.0813
  464POPI   C1B 7303   0.712  17.859   8.742 -0.3194  0.0243 -0.0456
  464POPI   C2B 7304   0.741  17.578   8.343  0.1458  0.0767 -0.0558
  464POPI   C3B 7305   0.808  17.511   7.923  0.0069  0.2754  0.3444
  464POPI   C4B 7306   0.819  17.444   7.479  0.1127 -0.1205  0.0415
  465POPI    C1 7307   5.950  13.622  10.305  0.0565 -0.1750  0.0071
  465POPI    C2 7308   5.712  13.571  10.622 -0.1153 -0.1021 -0.1090
  465POPI    C3 7309   6.084  13.707  10.672 -0.1810  0.0216  0.0510
  465POPI   PO4 7310   5.736  13.675  10.148 -0.1284 -0.0926 -0.0219
  465POPI   GL1 7311   5.725  13.889   9.700 -0.1604 -0.4103  0.0449
  465POPI   GL2 7312   5.455  13.696   9.747  0.2042 -0.1153 -0.2898
  465POPI   C1A 7313   5.804  13.869   9.280 -0.4429  0.1475  0.1852
  465POPI   D2A 7314   5.931  13.829   8.935 -0.1665  0.1266  0.0384
  465POPI   C3A 7315   5.941  14.106   8.465 -0.4209 -0.0238 -0.0315
  465POPI   C4A 7316   5.643  14.232   8.184  0.0101  0.0763 -0.1599
  465POPI   C1B 7317   5.401  13.577   9.281 -0.1630 -0.1047  0.4141
  465POPI   C2B 7318   5.565  13.504   8.815  0.1178  0.3113  0.1420
  465POPI   C3B 7319   5.809  13.590   8.461 -0.3194  0.0362 -0.1310
  465POPI   C4B 7320   5.999  13.533   8.148 -0.1802  0.0583 -0.1250
  466POPI    C1 7321   2.668  14.650  10.158 -0.2300 -0.2755 -0.4414
  466POPI    C2 7322   2.298  14.740  10.281 -0.0187 -0.1423  0.1274
  466POPI    C3 7323   2.464  14.392  10.385 -0.0461 -0.2844 -0.2842
  466POPI   PO4 7324   2.590  14.701   9.891 -0.0046 -0.2299 -0.2211
  466POPI   GL1 7325   2.497  14.702   9.437 -0.1990  0.0069  0.0125
  466POPI   GL2 7326   2.833  14.578   9.457  0.4617 -0.3021 -0.1696
  466POPI   C1A 7327   2.495  14.611   9.103 -0.1882  0.0592 -0.2618
  466POPI   D2A 7328   2.410  14.612   8.643  0.1673 -0.0960 -0.1539
  466POPI   C3A 7329   2.524  14.522   8.203 -0.0361  0.1396 -0.0312
  466POPI   C4A 7330   2.695  14.303   7.859 -0.0439 -0.1802 -0.0456
  466POPI   C1B 7331   3.007  14.476   9.061  0.2956 -0.1258 -0.0191
  466POPI   C2B 7332   3.004  14.392   8.689 -0.1472 -0.0335 -0.1726
  466POPI   C3B 7333   3.028  14.465   8.219  0.4345 -0.3175 -0.2825
  466POPI   C4B 7334   3.162  14.565   7.881 -0.0246 -0.0652 -0.1852
  467POPI    C1 7335   8.630  14.813  10.464  0.2191 -0.1319  0.1917
  467POPI    C2 7336   8.690  15.194  10.573  0.0208  0.0158 -0.1960
  467POPI    C3 7337   8.432  14.966  10.776 -0.1001  0.1866 -0.1555
  467POPI   PO4 7338   8.502  14.867  10.161  0.0540  0.0898  0.0137
  467POPI   GL1 7339   8.323  14.580   9.817 -0.3014 -0.2788 -0.0460
  467POPI   GL2 7340   8.115  14.208   9.899 -0.0727 -0.1228 -0.1019
  467POPI   C1A 7341   8.526  14.769   9.454 -0.2273 -0.1512  0.2170
  467POPI   D2A 7342   8.603  14.683   9.001 -0.2356  0.2058  0.2014
  467POPI   C3A 7343   8.694  14.932   8.623  0.0382 -0.2176  0.0112
  467POPI   C4A 7344   8.661  15.153   8.259  0.0223 -0.1602  0.0383
  467POPI   C1B 7345   7.926  13.935   9.578 -0.1731  0.0707  0.0989
  467POPI   C2B 7346   8.091  13.704   9.191  0.0579 -0.3424  0.0166
  467POPI   C3B 7347   8.067  13.835   8.739  0.0765 -0.0818  0.0597
  467POPI   C4B 7348   7.840  13.876   8.365  0.2430  0.1004 -0.0869
  468POPI    C1 7349   1.732  12.153  10.191  0.1355 -0.1968 -0.0734
  468POPI    C2 7350   2.032  12.417  10.210  0.2885 -0.3565 -0.2273
  468POPI    C3 7351   1.941  12.194  10.529 -0.0623  0.1161  0.0145
  468POPI   PO4 7352   1.803  11.955  10.029 -0.3944  0.2580 -0.4463
  468POPI   GL1 7353   2.064  11.773   9.689 -0.0371  0.4393 -0.3031
  468POPI   GL2 7354   1.897  12.043   9.544  0.1114  0.0640 -0.0822
  468POPI   C1A 7355   2.268  11.614   9.297  0.0185  0.0193  0.1640
  468POPI   D2A 7356   2.287  11.677   8.870  0.0520 -0.1548 -0.1797
  468POPI   C3A 7357   2.444  11.561   8.455  0.2317 -0.2553  0.0996
  468POPI   C4A 7358   2.612  11.454   8.065  0.1341  0.3543 -0.0388
  468POPI   C1B 7359   1.778  12.215   9.240 -0.2689 -0.0376 -0.0587
  468POPI   C2B 7360   1.616  12.283   8.835  0.0982  0.2553 -0.1069
  468POPI   C3B 7361   1.661  12.143   8.451 -0.4357  0.0194  0.2171
  468POPI   C4B 7362   1.855  12.161   8.044  0.1062  0.0676  0.2500
  469POPI    C1 7363   3.088   8.565  10.400  0.0561 -0.2898  0.0315
  469POPI    C2 7364   3.154   8.607  10.792 -0.1285 -0.0534  0.0399
  469POPI    C3 7365   3.429   8.729  10.528 -0.1475  0.1001  0.0904
  469POPI   PO4 7366   2.847   8.692  10.373 -0.1963  0.2469 -0.1189
  469POPI   GL1 7367   2.654   8.771   9.913  0.0950  0.4206  0.0768
  469POPI   GL2 7368   2.511   9.089   9.910 -0.2005 -0.0161  0.0581
  469POPI   C1A 7369   2.572   8.622   9.510 -0.1727  0.2231  0.0499
  469POPI   D2A 7370   2.770   8.596   9.076 -0.1519 -0.0355  0.0972
  469POPI   C3A 7371   3.114   8.421   8.990  0.0760 -0.1703  0.1300
  469POPI   C4A 7372   3.578   8.279   9.128 -0.1075  0.0677 -0.0590
  469POPI   C1B 7373   2.515   9.211   9.425  0.1145 -0.1335 -0.0963
  469POPI   C2B 7374   2.373   9.355   9.063 -0.0338  0.0130  0.0631
  469POPI   C3B 7375   2.229   9.443   8.740 -0.4485  0.3755  0.2608
  469POPI   C4B 7376   2.440   9.682   8.297 -0.1047  0.0570  0.2434
  470POPI    C1 7377   0.287   1.238   9.878 -0.1705 -0.3302  0.1651
  470POPI    C2 7378   0.329   1.575  10.089 -0.1651 -0.1919 -0.0540
  470POPI    C3 7379   0.115   1.272  10.238  0.1256 -0.2297  0.2998
  470POPI   PO4 7380   0.236   1.392   9.623 -0.1547  0.1447 -0.4851
  470POPI   GL1 7381  -0.071   1.605   9.291  0.1750  0.2953 -0.0494
  470POPI   GL2 7382   0.056   1.681   9.062  0.0456  0.0110  0.0546
  470POPI   C1A 7383  -0.075   1.219   9.066  0.1543  0.1395 -0.0436
  470POPI   D2A 7384  -0.082   0.969   8.646 -0.2542 -0.0202  0.3620
  470POPI   C3A 7385   0.067   1.007   8.284 -0.3066  0.0664  0.2772
  470POPI   C4A 7386   0.451   1.114   8.014 -0.1052 -0.0431  0.0537
  470POPI   C1B 7387  -0.203   1.615   8.655  0.3423  0.2106 -0.1684
  470POPI   C2B 7388  -0.260   1.410   8.329  0.2455 -0.2096 -0.0607
  470POPI   C3B 7389  -0.501   1.305   8.026  0.1738  0.0005  0.0004
  470POPI   C4B 7390  -0.656   1.367   7.599  0.2349  0.2108 -0.2190
  471POPI    C1 7391  16.112  12.460  10.173 -0.0240  0.1286  0.2319
  471POPI    C2 7392  16.440  12.371  10.384  0.0872 -0.0839 -0.0255
  471POPI    C3 7393  16.080  12.257  10.516  0.1547 -0.2037  0.0568
  471POPI   PO4 7394  16.023  12.423   9.889  0.1414  0.0394  0.0867
  471POPI   GL1 7395  15.958  12.661   9.556  0.2595  0.0064  0.0019
  471POPI   GL2 7396  15.729  12.341   9.485 -0.0370  0.0334 -0.2960
  471POPI   C1A 7397  15.776  12.610   9.082  0.1465 -0.2985  0.0485
  471POPI   D2A 7398  15.421  12.441   8.772 -0.2041  0.1549  0.2827
  471POPI   C3A 7399  15.247  12.647   8.403  0.1961  0.1655  0.1490
  471POPI   C4A 7400  15.252  12.658   7.996 -0.3037  0.0949  0.0352
  471POPI   C1B 7401  15.739  12.105   9.086  0.1774 -0.1698  0.2899
  471POPI   C2B 7402  15.880  12.118   8.689 -0.2422  0.0957 -0.0820
  471POPI   C3B 7403  16.118  12.168   8.204 -0.3616 -0.3712 -0.3472
  471POPI   C4B 7404  16.116  12.541   7.881 -0.3016 -0.2254  0.0758
  472POPI    C1 7405   5.468  15.719  10.423 -0.1778  0.0449 -0.1613
  472POPI    C2 7406   5.187  15.984  10.527 -0.1104  0.0616 -0.0201
  472POPI    C3 7407   5.437  15.839  10.803 -0.0739 -0.0637 -0.1182
  472POPI   PO4 7408   5.496  15.696  10.242  0.0982  0.0796  0.0616
  472POPI   GL1 7409   5.717  15.532   9.894  0.0535 -0.0200  0.0795
  472POPI   GL2 7410   5.698  15.830   9.679 -0.1963 -0.1041 -0.0387
  472POPI   C1A 7411   5.518  15.287   9.548  0.0818 -0.2969  0.2756
  472POPI   D2A 7412   5.600  15.101   9.079 -0.0894 -0.1315 -0.3023
  472POPI   C3A 7413   5.736  15.361   8.705  0.1504 -0.5449  0.1454
  472POPI   C4A 7414   5.911  15.544   8.305 -0.2206  0.2015 -0.2266
  472POPI   C1B 7415   5.387  15.859   9.436  0.1249 -0.2484  0.0823
  472POPI   C2B 7416   5.341  15.884   9.081  0.0496 -0.0473  0.0666
  472POPI   C3B 7417   5.553  15.859   8.742  0.3241  0.1990  0.1279
  472POPI   C4B 7418   5.410  15.760   8.464  0.2667  0.2306  0.0912
  473DPPI    C1 7419  15.186  17.169   9.880  0.3171  0.0496  0.3078
  473DPPI    C2 7420  15.287  16.863  10.117 -0.1177 -0.1150  0.2905
  473DPPI    C3 7421  15.051  17.154  10.257  0.1617  0.1326  0.2563
  473DPPI   PO4 7422  15.428  17.217   9.742 -0.3111 -0.2291  0.0301
  473DPPI   GL1 7423  15.325  17.317   9.274 -0.1563  0.1004  0.0417
  473DPPI   GL2 7424  15.423  17.597   9.408  0.0246 -0.0151  0.0270
  473DPPI   C1A 7425  14.988  17.184   9.059 -0.0825  0.2823 -0.2793
  473DPPI   C2A 7426  14.892  17.078   8.699 -0.3622 -0.0861  0.2207
  473DPPI   C3A 7427  14.858  16.736   8.415  0.1255  0.2513  0.1097
  473DPPI   C4A 7428  14.925  16.532   8.002 -0.2505 -0.1010 -0.0291
  473DPPI   C1B 7429  15.435  17.794   9.041 -0.2640  0.1588  0.1568
  473DPPI   C2B 7430  15.478  17.811   8.621 -0.2132 -0.1217  0.2989
  473DPPI   C3B 7431  15.539  17.645   8.175  0.2419 -0.0520  0.0523
  473DPPI   C4B 7432  15.655  17.593   7.812  0.0570  0.2054 -0.1002
  474DPPI    C1 7433  11.144  11.310  10.483 -0.0934 -0.2418  0.1091
  474DPPI    C2 7434  11.015  11.004  10.707 -0.1117 -0.0815  0.3213
  474DPPI    C3 7435  11.401  11.111  10.716 -0.0785 -0.1815  0.1445
  474DPPI   PO4 7436  11.066  11.265  10.221 -0.1054  0.1596 -0.1193
  474DPPI   GL1 7437  11.088  11.301   9.863 -0.1159  0.0566  0.2449
  474DPPI   GL2 7438  10.804  11.096   9.842  0.1680  0.0488  0.2504
  474DPPI   C1A 7439  11.267  11.294   9.463  0.2490 -0.3044 -0.0509
  474DPPI   C2A 7440  11.587  11.117   9.180 -0.0609 -0.2080  0.2397
  474DPPI   C3A 7441  11.734  11.128   8.783 -0.0313 -0.2081  0.0525
  474DPPI   C4A 7442  11.839  10.946   8.362 -0.1812  0.2226 -0.0851
  474DPPI   C1B 7443  10.817  11.116   9.382 -0.0413  0.3592 -0.2638
  474DPPI   C2B 7444  10.601  11.193   9.034  0.1434  0.0242 -0.3119
  474DPPI   C3B 7445  10.293  11.168   8.723 -0.2116  0.0433 -0.1986
  474DPPI   C4B 7446   9.926  11.225   8.375  0.3003 -0.1973 -0.4394
  475DPPI    C1 7447   0.375  12.283  10.257  0.1360 -0.2037 -0.0080
  475DPPI    C2 7448   0.145  12.525  10.477  0.0116 -0.2760 -0.0574
  475DPPI    C3 7449   0.544  12.546  10.507  0.0003 -0.1159 -0.0080
  475DPPI   PO4 7450   0.305  12.415   9.962  0.1365 -0.0486 -0.0037
  475DPPI   GL1 7451   0.219  12.555   9.622  0.3964  0.0799  0.0667
  475DPPI   GL2 7452   0.038  12.355   9.480  0.0251  0.2001  0.2540
  475DPPI   C1A 7453   0.306  12.709   9.260 -0.1672 -0.0132  0.0056
  475DPPI   C2A 7454   0.306  12.722   8.762  0.1367  0.2117  0.1507
  475DPPI   C3A 7455   0.189  12.722   8.300  0.3665 -0.1921  0.2755
  475DPPI   C4A 7456   0.125  12.482   7.954  0.0283 -0.0516 -0.1448
  475DPPI   C1B 7457   0.086  12.322   8.992  0.0697  0.1959 -0.1376
  475DPPI   C2B 7458   0.028  12.270   8.561  0.0796  0.1666  0.3335
  475DPPI   C3B 7459  -0.216  12.099   8.220  0.1933  0.4738 -0.0013
  475DPPI   C4B 7460  -0.278  12.138   7.829  0.0141  0.1154  0.0119
  476DPPI    C1 7461   9.537   7.466  10.304  0.0239  0.1533 -0.0507
  476DPPI    C2 7462   9.176   7.636  10.315 -0.0044  0.0911 -0.0156
  476DPPI    C3 7463   9.478   7.797  10.521  0.0245  0.2270 -0.1622
  476DPPI   PO4 7464   9.615   7.420   9.956  0.0718  0.0686  0.0166
  476DPPI   GL1 7465   9.788   7.608   9.526  0.1137  0.0694 -0.1068
  476DPPI   GL2 7466  10.060   7.363   9.435 -0.3160 -0.0249  0.2859
  476DPPI   C1A 7467   9.588   7.455   9.147  0.3332  0.0480  0.1045
  476DPPI   C2A 7468   9.665   7.249   8.836  0.3535  0.0874  0.2331
  476DPPI   C3A 7469   9.716   7.352   8.370  0.0339  0.0796 -0.4179
  476DPPI   C4A 7470   9.518   7.493   7.994  0.1049  0.2744 -0.1972
  476DPPI   C1B 7471  10.185   7.316   9.016  0.0814  0.0675  0.1301
  476DPPI   C2B 7472  10.222   7.305   8.615 -0.2164  0.0797 -0.1870
  476DPPI   C3B 7473  10.220   7.142   8.154 -0.0240 -0.0094 -0.1874
  476DPPI   C4B 7474   9.833   7.006   7.900  0.0177  0.2338  0.0699
  477DPPI    C1 7475  12.219   1.227  10.263  0.1708 -0.3198 -0.1084
  477DPPI    C2 7476  12.613   1.286  10.229  0.1044  0.1272 -0.1594
  477DPPI    C3 7477  12.445   1.266  10.591  0.1592  0.0336 -0.1388
  477DPPI   PO4 7478  12.103   1.368   9.970 -0.4156 -0.1297  0.1099
  477DPPI   GL1 7479  12.084   1.617   9.545  0.2744 -0.1164 -0.0937
  477DPPI   GL2 7480  12.333   1.680   9.517  0.1344  0.2228 -0.0087
  477DPPI   C1A 7481  11.862   1.855   9.218 -0.1730 -0.1267  0.0030
  477DPPI   C2A 7482  11.681   2.054   8.876 -0.0049 -0.2606  0.1565
  477DPPI   C3A 7483  11.501   2.212   8.530 -0.3586  0.0693  0.2157
  477DPPI   C4A 7484  11.392   2.181   8.115 -0.1201  0.1683  0.0579
  477DPPI   C1B 7485  12.299   1.636   9.058  0.0385  0.0431  0.0622
  477DPPI   C2B 7486  12.191   1.773   8.688  0.0579 -0.4071 -0.2445
  477DPPI   C3B 7487  11.857   1.845   8.387  0.1684 -0.2631 -0.1930
  477DPPI   C4B 7488  11.497   1.711   8.090  0.2189  0.0286  0.0271
  478DPPI    C1 7489  13.587  12.563  10.460  0.0815  0.0238 -0.1524
  478DPPI    C2 7490  13.932  12.765  10.435  0.0098  0.1536 -0.1035
  478DPPI    C3 7491  13.623  12.920  10.638  0.0524 -0.1441  0.1982
  478DPPI   PO4 7492  13.555  12.483  10.237  0.2079 -0.1494  0.0860
  478DPPI   GL1 7493  13.544  12.556   9.781  0.2899  0.0854  0.2508
  478DPPI   GL2 7494  13.447  12.884   9.739 -0.1659 -0.1337  0.1375
  478DPPI   C1A 7495  13.615  12.582   9.348  0.0238  0.1166 -0.2115
  478DPPI   C2A 7496  13.594  12.666   8.887  0.0202 -0.0380 -0.1802
  478DPPI   C3A 7497  13.498  12.829   8.513  0.1077 -0.2648 -0.1863
  478DPPI   C4A 7498  13.423  13.028   8.126 -0.2602  0.0753  0.2138
  478DPPI   C1B 7499  13.476  13.059   9.350  0.0932 -0.0452  0.2059
  478DPPI   C2B 7500  13.556  13.163   9.013 -0.1170 -0.1640 -0.0848
  478DPPI   C3B 7501  13.496  13.308   8.614  0.0080 -0.0678  0.0437
  478DPPI   C4B 7502  13.700  13.413   8.255 -0.2221 -0.0066 -0.0129
  479DPPI    C1 7503  16.509  16.383  10.047 -0.0602 -0.3443 -0.0710
  479DPPI    C2 7504  16.609  16.099  10.311  0.1452  0.0401  0.2777
  479DPPI    C3 7505  16.889  16.260  10.075  0.0370 -0.0166  0.1085
  479DPPI   PO4 7506  16.323  16.306   9.815 -0.2289  0.2771 -0.1072
  479DPPI   GL1 7507  16.263  16.310   9.417  0.2389 -0.3590  0.1446
  479DPPI   GL2 7508  16.053  16.590   9.416  0.0334  0.0137  0.0261
  479DPPI   C1A 7509  16.195  16.356   8.956 -0.1213  0.1108  0.0599
  479DPPI   C2A 7510  16.123  16.297   8.451 -0.1394  0.1608  0.0656
  479DPPI   C3A 7511  16.014  16.019   8.132 -0.0057 -0.1638 -0.1060
  479DPPI   C4A 7512  15.744  15.838   7.931  0.0746  0.0164  0.2864
  479DPPI   C1B 7513  15.862  16.769   9.033 -0.3492 -0.0588  0.1060
  479DPPI   C2B 7514  15.779  16.730   8.520 -0.0699 -0.2065  0.1322
  479DPPI   C3B 7515  15.856  16.647   8.101 -0.2347 -0.1704  0.1725
  479DPPI   C4B 7516  15.941  16.715   7.587  0.2835 -0.4105  0.0491
  480DPPI    C1 7517   5.747  12.466  10.460  0.0315 -0.0976  0.1147
  480DPPI    C2 7518   5.893  12.641  10.789  0.3146 -0.1448  0.0169
  480DPPI    C3 7519   5.547  12.440  10.805  0.0943  0.2377  0.1796
  480DPPI   PO4 7520   5.661  12.681  10.244  0.1712  0.2516 -0.2457
  480DPPI   GL1 7521   5.770  12.818   9.852  0.0856  0.1775 -0.1399
  480DPPI   GL2 7522   6.013  12.886   9.904  0.0676  0.1477  0.1096
  480DPPI   C1A 7523   5.764  12.776   9.428  0.0864 -0.0315  0.1140
  480DPPI   C2A 7524   5.863  12.563   9.118 -0.1906 -0.1292  0.0626
  480DPPI   C3A 7525   5.577  12.260   8.807  0.3140  0.3092 -0.0850
  480DPPI   C4A 7526   5.376  12.052   8.416  0.1206  0.1286 -0.1257
  480DPPI   C1B 7527   6.211  12.958   9.525  0.5057  0.0888 -0.2810
  480DPPI   C2B 7528   6.225  12.901   9.072  0.0518  0.1460 -0.3580
  480DPPI   C3B 7529   6.256  12.747   8.653  0.3758  0.1821  0.0397
  480DPPI   C4B 7530   6.554  12.705   8.347  0.2540  0.0403 -0.1455
  481DPPI    C1 7531   3.917   8.701  10.581 -0.2262  0.2779 -0.1254
  481DPPI    C2 7532   3.698   8.486  10.837  0.0355  0.0021 -0.1270
  481DPPI    C3 7533   4.039   8.656  10.959 -0.0054  0.1455 -0.2101
  481DPPI   PO4 7534   3.916   8.500  10.398 -0.0715 -0.0951 -0.0004
  481DPPI   GL1 7535   4.135   8.551  10.075 -0.1587  0.2364  0.1593
  481DPPI   GL2 7536   4.390   8.753  10.182 -0.1499  0.0961  0.0315
  481DPPI   C1A 7537   4.118   8.533   9.583  0.0281 -0.3099  0.3337
  481DPPI   C2A 7538   3.875   8.689   9.273 -0.1376 -0.0088  0.1517
  481DPPI   C3A 7539   3.822   8.650   8.826 -0.1981  0.0474 -0.0861
  481DPPI   C4A 7540   3.357   8.592   8.584 -0.3285 -0.2632  0.2039
  481DPPI   C1B 7541   4.223   9.074  10.010 -0.1544  0.2767  0.0171
  481DPPI   C2B 7542   4.120   9.084   9.572  0.2644  0.1692  0.1023
  481DPPI   C3B 7543   4.237   9.052   9.132  0.2091  0.1170  0.3069
  481DPPI   C4B 7544   4.210   9.016   8.689 -0.3093  0.1884 -0.1086
  482DPPI    C1 7545   6.348   9.667  10.649 -0.2569 -0.0684  0.3476
  482DPPI    C2 7546   6.467  10.041  10.727 -0.1056 -0.0610  0.0933
  482DPPI    C3 7547   6.487   9.761  11.012  0.1719  0.0281  0.1645
  482DPPI   PO4 7548   6.365   9.583  10.379 -0.1755 -0.0693 -0.1758
  482DPPI   GL1 7549   6.244   9.710  10.058  0.1768 -0.1180 -0.1629
  482DPPI   GL2 7550   6.358  10.034  10.063  0.1844 -0.1659 -0.2288
  482DPPI   C1A 7551   6.322   9.625   9.648  0.1708 -0.3064  0.0866
  482DPPI   C2A 7552   6.310   9.453   9.314  0.3383 -0.1964  0.3367
  482DPPI   C3A 7553   6.329   9.411   8.798 -0.0048  0.0270 -0.0558
  482DPPI   C4A 7554   6.413   9.576   8.385 -0.1658 -0.1009  0.0453
  482DPPI   C1B 7555   6.224  10.159   9.646  0.0297  0.0300  0.2372
  482DPPI   C2B 7556   6.166  10.278   9.151  0.2638  0.0480  0.1981
  482DPPI   C3B 7557   6.377  10.404   8.837 -0.1328  0.0013  0.1252
  482DPPI   C4B 7558   6.678  10.599   8.685 -0.0760  0.2917  0.2068
  483DPPI    C1 7559   2.342   4.901  10.077  0.1006 -0.0713  0.0014
  483DPPI    C2 7560   2.655   4.690  10.210 -0.1109 -0.2373  0.2476
  483DPPI    C3 7561   2.382   4.827  10.468 -0.2550 -0.1140  0.0331
  483DPPI   PO4 7562   2.325   4.762   9.797  0.0320  0.0009  0.0299
  483DPPI   GL1 7563   2.377   4.613   9.379  0.2527  0.0530 -0.0979
  483DPPI   GL2 7564   2.439   4.403   9.268 -0.1261  0.1419  0.3832
  483DPPI   C1A 7565   2.276   4.811   8.905 -0.2424  0.0171 -0.1762
  483DPPI   C2A 7566   2.320   4.780   8.517  0.0422 -0.0771 -0.0676
  483DPPI   C3A 7567   2.192   4.613   8.081 -0.2564  0.1678  0.0452
  483DPPI   C4A 7568   2.236   4.665   7.794  0.2780 -0.1471 -0.2638
  483DPPI   C1B 7569   2.496   4.376   8.791 -0.0637  0.0800 -0.0424
  483DPPI   C2B 7570   2.477   4.334   8.365  0.1430  0.0983 -0.0248
  483DPPI   C3B 7571   2.568   4.234   7.954  0.1244 -0.0685 -0.0693
  483DPPI   C4B 7572   2.445   4.105   7.439  0.0911 -0.2835 -0.0811
  484DPPI    C1 7573   2.114   3.412  10.036 -0.1127  0.1806  0.0479
  484DPPI    C2 7574   2.366   3.710   9.948 -0.0495  0.0574 -0.1954
  484DPPI    C3 7575   2.379   3.538  10.309 -0.0290  0.2909 -0.0828
  484DPPI   PO4 7576   1.818   3.507   9.909  0.0022  0.1523  0.2079
  484DPPI   GL1 7577   1.692   3.405   9.441  0.3408  0.2022 -0.0773
  484DPPI   GL2 7578   1.366   3.596   9.525 -0.0706  0.1728  0.0714
  484DPPI   C1A 7579   1.631   3.525   9.093 -0.1078  0.2764 -0.0760
  484DPPI   C2A 7580   1.278   3.687   8.839  0.0854  0.4282  0.0407
  484DPPI   C3A 7581   1.089   3.920   8.667  0.0161 -0.0666  0.1042
  484DPPI   C4A 7582   0.810   3.922   8.392  0.1398 -0.0465  0.0995
  484DPPI   C1B 7583   1.217   3.270   9.067  0.0496  0.1646 -0.1553
  484DPPI   C2B 7584   1.129   3.118   8.679  0.0044 -0.0594 -0.2509
  484DPPI   C3B 7585   1.261   3.077   8.281 -0.0189 -0.2618  0.1744
  484DPPI   C4B 7586   1.146   3.136   7.899 -0.1539  0.0367  0.0014
  485DPPI    C1 7587   1.386   8.012  10.415 -0.0356  0.1129 -0.0287
  485DPPI    C2 7588   1.397   8.395  10.303  0.2054  0.0983 -0.0618
  485DPPI    C3 7589   1.669   8.255  10.560  0.0159 -0.0113  0.0814
  485DPPI   PO4 7590   1.302   7.948  10.059 -0.0134 -0.1020 -0.1424
  485DPPI   GL1 7591   1.510   7.752   9.671 -0.1078  0.0694 -0.1097
  485DPPI   GL2 7592   1.763   7.987   9.569 -0.1978 -0.2410 -0.0181
  485DPPI   C1A 7593   1.518   7.764   9.194  0.0464 -0.2658 -0.2388
  485DPPI   C2A 7594   1.245   7.797   8.773  0.3057 -0.2229 -0.0578
  485DPPI   C3A 7595   1.105   7.796   8.335 -0.0464  0.1935 -0.1057
  485DPPI   C4A 7596   1.027   7.606   7.896  0.2112  0.3096  0.0214
  485DPPI   C1B 7597   2.019   7.893   9.144 -0.1932 -0.0085 -0.2748
  485DPPI   C2B 7598   2.123   8.064   8.749  0.1456  0.1117 -0.0888
  485DPPI   C3B 7599   2.099   7.966   8.395 -0.0062 -0.0377  0.1501
  485DPPI   C4B 7600   2.074   8.040   7.881  0.1818 -0.4449 -0.0252
  486DPPI    C1 7601  12.552   0.757   9.592  0.1578  0.0205  0.0125
  486DPPI    C2 7602  12.644   0.534   9.912  0.0421  0.0778  0.0864
  486DPPI    C3 7603  12.396   0.846   9.950 -0.2394 -0.1152 -0.1220
  486DPPI   PO4 7604  12.859   0.858   9.511 -0.0202 -0.0433  0.2635
  486DPPI   GL1 7605  12.828   1.158   9.290 -0.2065 -0.0065  0.0887
  486DPPI   GL2 7606  12.522   1.122   9.182 -0.2442 -0.0791 -0.0662
  486DPPI   C1A 7607  12.739   1.562   9.185  0.0588 -0.0780 -0.1163
  486DPPI   C2A 7608  12.738   1.623   8.811  0.0388 -0.2826  0.1304
  486DPPI   C3A 7609  12.592   1.847   8.357 -0.1721 -0.1999 -0.1066
  486DPPI   C4A 7610  12.269   1.953   7.899  0.3940 -0.1645 -0.2282
  486DPPI   C1B 7611  12.530   1.194   8.724 -0.1246 -0.1944  0.0624
  486DPPI   C2B 7612  12.505   1.379   8.363  0.3552 -0.2669  0.1222
  486DPPI   C3B 7613  12.601   1.280   8.054  0.0706  0.4007 -0.0633
  486DPPI   C4B 7614  12.865   1.325   7.697 -0.2556 -0.4498  0.0548
  487DPPI    C1 7615   1.484  15.063  10.259  0.0651  0.0034 -0.1011
  487DPPI    C2 7616   1.180  15.159  10.500  0.0724  0.1210 -0.1383
  487DPPI    C3 7617   1.425  14.859  10.598  0.1379  0.2353  0.0531
  487DPPI   PO4 7618   1.345  15.037  10.045  0.0298  0.0842 -0.0485
  487DPPI   GL1 7619   1.257  15.135   9.661  0.0150  0.1461 -0.2410
  487DPPI   GL2 7620   1.248  14.787   9.598 -0.4040  0.1481 -0.4581
  487DPPI   C1A 7621   1.621  15.165   9.350 -0.0871 -0.0985  0.1895
  487DPPI   C2A 7622   1.812  15.164   8.976  0.3385 -0.3377  0.0106
  487DPPI   C3A 7623   1.647  15.174   8.644 -0.0887  0.1094  0.3610
  487DPPI   C4A 7624   1.407  15.326   8.427 -0.0314 -0.0523  0.0951
  487DPPI   C1B 7625   0.865  14.776   9.536  0.0866 -0.3499  0.0508
  487DPPI   C2B 7626   0.570  14.889   9.179  0.3121  0.0404 -0.3573
  487DPPI   C3B 7627   0.489  15.066   8.800 -0.0117  0.1579 -0.0107
  487DPPI   C4B 7628   0.431  15.059   8.345  0.0160  0.2728 -0.0650
  488DPPI    C1 7629   0.776  14.060  10.423 -0.1293  0.0234 -0.0491
  488DPPI    C2 7630   0.600  14.377  10.592 -0.3117 -0.0681 -0.0642
  488DPPI    C3 7631   0.911  14.201  10.772 -0.1903  0.1360 -0.0704
  488DPPI   PO4 7632   0.835  14.193  10.178  0.0460 -0.0734  0.2298
  488DPPI   GL1 7633   0.988  14.251   9.716 -0.2362 -0.0517  0.0509
  488DPPI   GL2 7634   1.291  14.247   9.637 -0.0455 -0.0964 -0.1015
  488DPPI   C1A 7635   0.642  14.392   9.382  0.0826  0.1855 -0.0258
  488DPPI   C2A 7636   0.514  14.490   8.909  0.4019 -0.0923  0.2576
  488DPPI   C3A 7637   0.659  14.613   8.408  0.1226 -0.2354 -0.1156
  488DPPI   C4A 7638   0.821  14.603   7.896 -0.1320 -0.2449 -0.0548
  488DPPI   C1B 7639   1.172  14.398   9.295  0.0730  0.4099 -0.1214
  488DPPI   C2B 7640   1.413  14.609   9.086 -0.4628  0.0919  0.0052
  488DPPI   C3B 7641   1.414  14.741   8.603  0.0517 -0.0606  0.2293
  488DPPI   C4B 7642   1.198  14.602   8.284  0.1097  0.2277  0.0303
  489DPPI    C1 7643   4.142  14.947  10.502  0.0985  0.2554  0.0620
  489DPPI    C2 7644   4.369  14.951  10.831  0.0355 -0.1727  0.1164
  489DPPI    C3 7645   4.053  14.707  10.809 -0.0466 -0.0433 -0.2074
  489DPPI   PO4 7646   4.371  14.973  10.253  0.0039  0.3732  0.1086
  489DPPI   GL1 7647   4.339  15.110   9.771 -0.1284  0.3411 -0.0752
  489DPPI   GL2 7648   4.468  14.817   9.515 -0.0573  0.1069  0.0785
  489DPPI   C1A 7649   4.199  15.354   9.453 -0.0191 -0.1796 -0.0446
  489DPPI   C2A 7650   4.004  15.598   9.133  0.0731  0.0467 -0.1594
  489DPPI   C3A 7651   4.159  15.404   8.677  0.0452 -0.2370  0.1447
  489DPPI   C4A 7652   4.231  15.295   8.214 -0.0610 -0.2803  0.0297
  489DPPI   C1B 7653   4.643  14.719   9.012  0.2956  0.0063  0.1806
  489DPPI   C2B 7654   4.541  14.490   8.639 -0.0096  0.2765 -0.0728
  489DPPI   C3B 7655   4.594  14.289   8.272 -0.2100 -0.0868 -0.2222
  489DPPI   C4B 7656   4.503  14.047   7.976  0.0405 -0.1591  0.0372
  490DPPI    C1 7657   7.853   7.338   9.988 -0.0158  0.2355 -0.0687
  490DPPI    C2 7658   7.974   7.486  10.339  0.0407 -0.0493  0.0344
  490DPPI    C3 7659   8.239   7.317  10.091 -0.1057 -0.5002  0.1752
  490DPPI   PO4 7660   7.708   7.165  10.004 -0.0391 -0.0311  0.0314
  490DPPI   GL1 7661   7.608   6.915   9.618  0.1072  0.1054  0.2567
  490DPPI   GL2 7662   7.711   6.580   9.646  0.1084 -0.0572 -0.0758
  490DPPI   C1A 7663   7.598   7.161   9.337  0.0003 -0.0004 -0.1206
  490DPPI   C2A 7664   7.423   7.036   9.058 -0.1174  0.2745 -0.1126
  490DPPI   C3A 7665   7.320   6.832   8.646  0.0365  0.0654  0.1814
  490DPPI   C4A 7666   7.674   6.724   8.381  0.2190  0.1926 -0.0814
  490DPPI   C1B 7667   7.695   6.648   9.144 -0.1418  0.1971  0.0663
  490DPPI   C2B 7668   7.796   6.784   8.829 -0.0214  0.1405 -0.0520
  490DPPI   C3B 7669   7.731   7.141   8.582  0.2348 -0.1683 -0.0203
  490DPPI   C4B 7670   7.977   7.283   8.323 -0.1176  0.0606  0.3246
  491DPPI    C1 7671   3.680   4.072   9.892 -0.0094  0.0351 -0.2250
  491DPPI    C2 7672   3.955   4.340   9.779  0.0384  0.0910  0.0184
  491DPPI    C3 7673   3.988   4.156  10.133 -0.2296  0.0868  0.0433
  491DPPI   PO4 7674   3.552   3.988   9.603 -0.0590  0.0948 -0.0900
  491DPPI   GL1 7675   3.771   3.968   9.258 -0.2655  0.0428 -0.0149
  491DPPI   GL2 7676   4.041   4.108   9.331  0.3521  0.2412  0.2646
  491DPPI   C1A 7677   3.599   4.049   8.750 -0.1582  0.2276 -0.0388
  491DPPI   C2A 7678   3.576   4.124   8.329  0.1502  0.0038 -0.0624
  491DPPI   C3A 7679   3.568   4.199   7.961 -0.0352 -0.2504  0.3766
  491DPPI   C4A 7680   3.260   4.315   7.610 -0.1780  0.0276  0.0904
  491DPPI   C1B 7681   4.069   4.349   8.940  0.2970  0.3448 -0.0041
  491DPPI   C2B 7682   4.067   4.444   8.460  0.0078  0.4276 -0.0159
  491DPPI   C3B 7683   3.988   4.433   7.991 -0.1540 -0.2415  0.0248
  491DPPI   C4B 7684   3.902   4.195   7.622 -0.0399  0.0277 -0.3094
  492DPPI    C1 7685  16.193  11.046  10.365 -0.0568 -0.2147 -0.1344
  492DPPI    C2 7686  16.545  11.051  10.554  0.0235 -0.0562 -0.2860
  492DPPI    C3 7687  16.244  11.278  10.687  0.0478 -0.0234 -0.2873
  492DPPI   PO4 7688  16.214  10.914  10.118 -0.1823  0.0604  0.1133
  492DPPI   GL1 7689  16.119  10.899   9.742 -0.0607  0.6438  0.0375
  492DPPI   GL2 7690  16.051  11.227   9.623 -0.0932 -0.2597 -0.3551
  492DPPI   C1A 7691  15.965  10.851   9.324  0.0194 -0.0610 -0.2471
  492DPPI   C2A 7692  15.899  10.796   8.847  0.0463  0.0241 -0.2130
  492DPPI   C3A 7693  15.976  10.611   8.412  0.0498 -0.0632 -0.0839
  492DPPI   C4A 7694  15.784  10.707   8.022 -0.0266  0.1295 -0.0976
  492DPPI   C1B 7695  16.118  11.310   9.198  0.0734  0.0323  0.0904
  492DPPI   C2B 7696  16.188  11.296   8.653  0.0157 -0.0267  0.1223
  492DPPI   C3B 7697  16.286  11.415   8.325 -0.0496 -0.0804 -0.1207
  492DPPI   C4B 7698  16.101  11.547   8.007 -0.0986 -0.0741  0.1300
  493DPPI    C1 7699  12.333   0.497  10.354  0.2212  0.0751  0.1970
  493DPPI    C2 7700  12.406   0.370  10.727 -0.0328 -0.3356  0.1131
  493DPPI    C3 7701  12.662   0.284  10.432  0.1700 -0.0075  0.1888
  493DPPI   PO4 7702  12.107   0.459  10.284  0.0855  0.1047 -0.1675
  493DPPI   GL1 7703  12.009   0.407   9.855  0.1765  0.1610  0.1235
  493DPPI   GL2 7704  11.940   0.783   9.915 -0.3194  0.1002 -0.0783
  493DPPI   C1A 7705  12.057   0.536   9.389 -0.0653 -0.0581 -0.0100
  493DPPI   C2A 7706  12.316   0.747   8.990  0.2207  0.1684 -0.0146
  493DPPI   C3A 7707  12.286   0.823   8.545  0.3004  0.0041  0.1671
  493DPPI   C4A 7708  12.220   0.901   8.019 -0.4242  0.0626 -0.2404
  493DPPI   C1B 7709  11.662   0.810   9.584  0.1717  0.4234  0.2167
  493DPPI   C2B 7710  11.721   0.748   9.066  0.0368  0.1802  0.0122
  493DPPI   C3B 7711  11.871   0.570   8.753  0.0954 -0.0692 -0.6200
  493DPPI   C4B 7712  11.926   0.344   8.452 -0.4417 -0.1712  0.1757
  494DPPI    C1 7713   5.253   7.696  10.356  0.0212  0.3752  0.0357
  494DPPI    C2 7714   4.968   7.733  10.634  0.0056  0.2183  0.0412
  494DPPI    C3 7715   5.345   7.655  10.743 -0.0424 -0.0700  0.0084
  494DPPI   PO4 7716   5.147   7.871  10.164 -0.1844 -0.1956 -0.0227
  494DPPI   GL1 7717   5.240   7.884   9.691 -0.2431  0.3393 -0.0913
  494DPPI   GL2 7718   5.227   7.509   9.819 -0.1528 -0.0409  0.1717
  494DPPI   C1A 7719   5.159   7.768   9.340  0.0449 -0.0923 -0.0724
  494DPPI   C2A 7720   5.341   7.766   8.976 -0.2699 -0.2116 -0.2197
  494DPPI   C3A 7721   5.190   7.530   8.543  0.2363 -0.1016 -0.2557
  494DPPI   C4A 7722   4.939   7.326   8.204 -0.0495 -0.0681  0.1862
  494DPPI   C1B 7723   4.990   7.176   9.542 -0.0187 -0.0638  0.1778
  494DPPI   C2B 7724   4.966   7.203   9.071 -0.0664  0.3835  0.2631
  494DPPI   C3B 7725   5.127   7.043   8.657  0.1316 -0.2706 -0.3713
  494DPPI   C4B 7726   5.254   6.901   8.311 -0.0493 -0.2296  0.2604
  495DPPI    C1 7727   4.547  10.128  10.781  0.1511  0.1686 -0.0005
  495DPPI    C2 7728   4.680   9.982  11.129  0.1372  0.0903 -0.0277
  495DPPI    C3 7729   4.332  10.180  11.114  0.1896  0.1872  0.0216
  495DPPI   PO4 7730   4.736  10.343  10.648  0.0728 -0.2016  0.4486
  495DPPI   GL1 7731   4.844  10.239  10.327  0.1961 -0.0189 -0.1941
  495DPPI   GL2 7732   5.005  10.321  10.023  0.0461 -0.1097 -0.1336
  495DPPI   C1A 7733   4.555  10.066  10.086  0.3559 -0.0184  0.0362
  495DPPI   C2A 7734   4.629  10.102   9.648  0.0716 -0.1638  0.0012
  495DPPI   C3A 7735   4.492  10.403   9.339 -0.0629 -0.0458 -0.1359
  495DPPI   C4A 7736   4.565  10.436   8.932 -0.0831  0.2228 -0.2282
  495DPPI   C1B 7737   4.769  10.605   9.773 -0.0471 -0.3302 -0.0006
  495DPPI   C2B 7738   4.830  10.755   9.350 -0.0378 -0.0393  0.0478
  495DPPI   C3B 7739   4.925  10.729   9.012 -0.1588  0.0827  0.0111
  495DPPI   C4B 7740   4.819  10.762   8.580 -0.0820  0.2249 -0.0421
  496DPPI    C1 7741   6.647  14.743  10.364 -0.0733  0.0193 -0.1325
  496DPPI    C2 7742   6.787  14.914  10.698  0.3611  0.0470 -0.3226
  496DPPI    C3 7743   6.477  14.662  10.717  0.1550  0.3197  0.0515
  496DPPI   PO4 7744   6.801  14.883  10.145 -0.0775 -0.0886 -0.1702
  496DPPI   GL1 7745   6.964  14.858   9.652  0.0987  0.2031 -0.2397
  496DPPI   GL2 7746   6.948  14.606   9.524  0.2169 -0.0057  0.0523
  496DPPI   C1A 7747   7.092  15.215   9.443  0.0988  0.3485 -0.1726
  496DPPI   C2A 7748   7.271  15.368   9.154 -0.0951 -0.0302 -0.2566
  496DPPI   C3A 7749   7.305  15.281   8.763  0.0656  0.1401 -0.0105
  496DPPI   C4A 7750   7.499  15.187   8.328 -0.2362 -0.2290 -0.0446
  496DPPI   C1B 7751   7.064  14.729   9.153  0.1070 -0.1051  0.3145
  496DPPI   C2B 7752   7.124  14.783   8.703  0.2862  0.0679  0.2180
  496DPPI   C3B 7753   7.169  14.804   8.222  0.0419  0.0219  0.0111
  496DPPI   C4B 7754   7.201  15.049   7.897  0.0126  0.0906 -0.1668
  497DPPI    C1 7755  17.774  14.466  10.348  0.1861 -0.2653  0.0475
  497DPPI    C2 7756  17.450  14.665  10.473  0.1052 -0.1519 -0.3289
  497DPPI    C3 7757  17.756  14.602  10.723 -0.1739 -0.1956  0.0088
  497DPPI   PO4 7758  17.824  14.611  10.092 -0.0021 -0.3875  0.3269
  497DPPI   GL1 7759  17.660  14.696   9.720  0.4314 -0.1695 -0.0348
  497DPPI   GL2 7760  17.431  14.796   9.489 -0.0885  0.1883 -0.1789
  497DPPI   C1A 7761  17.958  14.740   9.359 -0.1949  0.0822  0.0298
  497DPPI   C2A 7762  17.987  14.698   8.749 -0.1796  0.0008 -0.1269
  497DPPI   C3A 7763  18.032  14.895   8.315  0.0786  0.0005  0.2647
  497DPPI   C4A 7764  18.164  15.112   8.094 -0.4210  0.2613 -0.4388
  497DPPI   C1B 7765  17.588  14.568   9.128  0.0313  0.1465  0.1391
  497DPPI   C2B 7766  17.493  14.624   8.774  0.0928 -0.0074  0.3457
  497DPPI   C3B 7767  17.714  14.507   8.376 -0.3704 -0.0793 -0.0012
  497DPPI   C4B 7768  17.669  14.409   7.967 -0.0362  0.2630  0.3159
  498DPPI    C1 7769   0.593   4.954   9.514  0.1008  0.0829  0.0647
  498DPPI    C2 7770   0.541   4.648   9.766 -0.1454  0.0739  0.0059
  498DPPI    C3 7771   0.862   4.659   9.528 -0.1967 -0.2025 -0.0796
  498DPPI   PO4 7772   0.350   5.108   9.473 -0.4240  0.0806 -0.0411
  498DPPI   GL1 7773   0.364   5.234   9.037 -0.2264  0.2109 -0.0747
  498DPPI   GL2 7774   0.414   5.522   9.315 -0.2176 -0.1286  0.2155
  498DPPI   C1A 7775   0.474   5.328   8.605 -0.1582  0.0529 -0.3593
  498DPPI   C2A 7776   0.517   5.534   8.279 -0.2898  0.3229 -0.1347
  498DPPI   C3A 7777   0.667   5.510   7.926  0.2479 -0.0377 -0.0688
  498DPPI   C4A 7778   0.755   5.344   7.499 -0.2244 -0.3460 -0.0532
  498DPPI   C1B 7779   0.317   5.699   8.891 -0.1152 -0.3901  0.0872
  498DPPI   C2B 7780   0.230   5.904   8.567  0.1026 -0.0627 -0.1304
  498DPPI   C3B 7781   0.388   5.953   8.131  0.0787  0.2724  0.1316
  498DPPI   C4B 7782   0.340   5.900   7.768  0.0071  0.2273  0.0427
  499DPPI    C1 7783   0.213   0.763  10.110  0.0220 -0.0877 -0.2156
  499DPPI    C2 7784   0.049   0.829  10.469 -0.1548  0.1064 -0.3299
  499DPPI    C3 7785   0.447   0.801  10.432 -0.1376  0.0536 -0.1147
  499DPPI   PO4 7786   0.131   0.725   9.801  0.0857  0.0284  0.2133
  499DPPI   GL1 7787   0.133   0.640   9.339  0.0229  0.0274 -0.0724
  499DPPI   GL2 7788   0.176   0.937   9.347 -0.0333  0.0750 -0.0759
  499DPPI   C1A 7789   0.200   0.549   8.965 -0.1650  0.2615  0.2509
  499DPPI   C2A 7790   0.050   0.510   8.492 -0.0624 -0.0684  0.0782
  499DPPI   C3A 7791   0.117   0.518   8.058  0.2703  0.1017 -0.0724
  499DPPI   C4A 7792  -0.197   0.355   7.759  0.4535  0.0338 -0.3122
  499DPPI   C1B 7793   0.402   1.037   9.012 -0.2339  0.0856  0.0527
  499DPPI   C2B 7794   0.420   1.173   8.630  0.0085  0.0611  0.1097
  499DPPI   C3B 7795   0.266   1.490   8.303 -0.0109  0.1290 -0.0981
  499DPPI   C4B 7796   0.363   1.579   7.839  0.1855 -0.0033 -0.0799
  500DPPI    C1 7797  14.525  14.296   9.954 -0.2119  0.1261 -0.2715
  500DPPI    C2 7798  14.513  14.696   9.931  0.0468  0.1553  0.0292
  500DPPI    C3 7799  14.442  14.513  10.279  0.0424 -0.0565 -0.0808
  500DPPI   PO4 7800  14.443  14.204   9.799  0.0491 -0.3045  0.0512
  500DPPI   GL1 7801  14.504  14.197   9.389  0.0654  0.0198  0.0475
  500DPPI   GL2 7802  14.599  14.604   9.394  0.1366  0.0406 -0.2010
  500DPPI   C1A 7803  14.561  14.299   8.935 -0.0510  0.1612  0.2362
  500DPPI   C2A 7804  14.360  14.455   8.590  0.4181 -0.1603 -0.0734
  500DPPI   C3A 7805  14.403  14.381   8.166 -0.2616 -0.0940 -0.2413
  500DPPI   C4A 7806  14.313  14.566   7.742 -0.0553  0.2881  0.2059
  500DPPI   C1B 7807  14.721  14.812   9.048 -0.2175  0.1005 -0.0967
  500DPPI   C2B 7808  14.676  14.789   8.699  0.1844 -0.0191  0.4242
  500DPPI   C3B 7809  14.731  14.918   8.305  0.0941  0.1303  0.2985
  500DPPI   C4B 7810  14.810  14.779   7.981  0.1061  0.0950 -0.0850
  501DPPI    C1 7811   3.727  17.124   9.798 -0.0595  0.1706  0.0975
  501DPPI    C2 7812   3.541  17.279   9.480  0.0447 -0.0021 -0.0497
  501DPPI    C3 7813   3.328  17.116   9.776 -0.0556  0.2229  0.0035
  501DPPI   PO4 7814   3.970  17.072   9.701 -0.0498 -0.1301  0.1145
  501DPPI   GL1 7815   4.261  16.970   9.400  0.4471  0.2273 -0.0304
  501DPPI   GL2 7816   4.014  17.190   9.229 -0.1293 -0.2508 -0.0996
  501DPPI   C1A 7817   4.549  16.745   9.184 -0.2557 -0.1024 -0.0569
  501DPPI   C2A 7818   4.406  16.670   8.741 -0.2498 -0.1369 -0.0837
  501DPPI   C3A 7819   4.439  16.625   8.330  0.2592  0.1090  0.3124
  501DPPI   C4A 7820   4.320  16.681   7.909  0.2664 -0.2068 -0.0928
  501DPPI   C1B 7821   4.232  17.213   8.772 -0.1719 -0.1017 -0.0521
  501DPPI   C2B 7822   4.335  17.115   8.415 -0.1105 -0.1902  0.1905
  501DPPI   C3B 7823   4.538  17.073   8.032  0.1375  0.1516  0.0376
  501DPPI   C4B 7824   4.842  17.274   7.711 -0.4642  0.0470  0.0107
  502DPPI    C1 7825   6.852   0.353   9.947  0.1529  0.3539  0.1031
  502DPPI    C2 7826   6.661   0.036  10.101 -0.0220  0.2141 -0.3817
  502DPPI    C3 7827   6.501   0.402  10.133  0.1159  0.2413  0.0641
  502DPPI   PO4 7828   6.880   0.284   9.680 -0.0653 -0.3078  0.0453
  502DPPI   GL1 7829   6.856   0.039   9.339  0.1351 -0.0463 -0.0494
  502DPPI   GL2 7830   6.511   0.068   9.178  0.0404  0.1968 -0.0848
  502DPPI   C1A 7831   6.994  -0.135   9.024  0.1361 -0.0205  0.0373
  502DPPI   C2A 7832   7.002   0.011   8.611  0.1616 -0.1468 -0.1761
  502DPPI   C3A 7833   6.800   0.247   8.251  0.0436 -0.0204  0.0214
  502DPPI   C4A 7834   6.782   0.517   7.903 -0.0509  0.1025  0.0904
  502DPPI   C1B 7835   6.558  -0.140   8.733 -0.1610  0.2754 -0.2262
  502DPPI   C2B 7836   6.309  -0.460   8.546 -0.0429  0.1061 -0.1471
  502DPPI   C3B 7837   6.399  -0.666   8.148 -0.0906 -0.0237  0.1981
  502DPPI   C4B 7838   6.424  -0.414   7.716 -0.1230  0.0242  0.1167
  503DPPI    C1 7839  11.532  12.097  10.265  0.0252  0.0403 -0.2424
  503DPPI    C2 7840  11.800  12.374  10.373 -0.1364  0.1176 -0.0327
  503DPPI    C3 7841  11.562  12.208  10.648 -0.1441 -0.1220 -0.1809
  503DPPI   PO4 7842  11.697  11.918  10.112  0.2115  0.3775 -0.2395
  503DPPI   GL1 7843  11.890  11.950   9.798 -0.0891 -0.1284  0.0249
  503DPPI   GL2 7844  11.855  12.283   9.835 -0.1161  0.2881 -0.0969
  503DPPI   C1A 7845  11.844  12.029   9.277 -0.1594  0.2172 -0.2803
  503DPPI   C2A 7846  11.728  12.033   8.871  0.0465 -0.4716 -0.0639
  503DPPI   C3A 7847  11.795  12.018   8.484  0.2541  0.0002 -0.2952
  503DPPI   C4A 7848  11.867  12.005   8.049  0.0334  0.3694 -0.2537
  503DPPI   C1B 7849  11.587  12.496   9.570  0.1568 -0.0354 -0.1073
  503DPPI   C2B 7850  11.651  12.505   9.197  0.2531 -0.3118 -0.1739
  503DPPI   C3B 7851  11.545  12.510   8.629 -0.3754  0.0428 -0.3221
  503DPPI   C4B 7852  11.449  12.765   8.221  0.1853 -0.0731  0.3121
  504DPPI    C1 7853   6.006   4.929   9.806  0.1495  0.0889 -0.0871
  504DPPI    C2 7854   5.984   4.967  10.203 -0.2442 -0.0936 -0.0866
  504DPPI    C3 7855   6.316   5.079  10.010 -0.1398  0.2239  0.2641
  504DPPI   PO4 7856   5.689   4.916   9.730 -0.1368  0.1533  0.0765
  504DPPI   GL1 7857   5.523   4.857   9.298 -0.6822  0.0933 -0.1483
  504DPPI   GL2 7858   5.281   4.874   9.419  0.3468  0.0710 -0.0581
  504DPPI   C1A 7859   5.360   4.999   8.961  0.1389 -0.3086 -0.0811
  504DPPI   C2A 7860   5.199   5.072   8.546  0.2324 -0.2112  0.4305
  504DPPI   C3A 7861   5.238   5.199   8.091  0.0149  0.0816 -0.2924
  504DPPI   C4A 7862   5.272   5.322   7.663  0.2331 -0.1952 -0.1093
  504DPPI   C1B 7863   5.266   5.395   9.245 -0.0388 -0.2618 -0.0666
  504DPPI   C2B 7864   5.267   5.512   8.836 -0.0425  0.2073 -0.1145
  504DPPI   C3B 7865   5.325   5.627   8.385 -0.0395 -0.0477 -0.2009
  504DPPI   C4B 7866   5.420   5.691   7.960  0.0577  0.1719 -0.0468
  505DPPI    C1 7867  16.741   0.471   9.823 -0.2501  0.0443 -0.1065
  505DPPI    C2 7868  16.543   0.648  10.122 -0.2581 -0.1858  0.0262
  505DPPI    C3 7869  16.591   0.251  10.120 -0.0950 -0.1672 -0.1824
  505DPPI   PO4 7870  16.695   0.525   9.641  0.3640 -0.1614 -0.2077
  505DPPI   GL1 7871  16.879   0.473   9.284  0.1132 -0.1185 -0.1626
  505DPPI   GL2 7872  17.149   0.704   9.250 -0.0986  0.1348 -0.0249
  505DPPI   C1A 7873  16.791   0.403   8.960  0.0951 -0.0857  0.2835
  505DPPI   C2A 7874  16.648   0.257   8.658  0.2278 -0.0145  0.0019
  505DPPI   C3A 7875  16.733   0.246   8.233  0.0420  0.0275 -0.0969
  505DPPI   C4A 7876  16.948   0.290   7.826  0.2024  0.1747  0.1737
  505DPPI   C1B 7877  17.184   0.721   8.818 -0.0059  0.1767  0.0320
  505DPPI   C2B 7878  17.056   0.708   8.429 -0.0475  0.0387 -0.1282
  505DPPI   C3B 7879  17.229   0.679   8.036 -0.1625  0.3749  0.1592
  505DPPI   C4B 7880  17.420   0.438   7.814  0.0168  0.0984 -0.4628
  506DPPI    C1 7881   4.157   0.853   9.940 -0.0691 -0.0570  0.1460
  506DPPI    C2 7882   4.133   0.533  10.178 -0.0300 -0.1280  0.0554
  506DPPI    C3 7883   4.486   0.711  10.117 -0.0272 -0.1547 -0.0073
  506DPPI   PO4 7884   4.099   0.818   9.752  0.1336 -0.0097 -0.0855
  506DPPI   GL1 7885   4.014   0.784   9.301 -0.1268  0.1792 -0.0866
  506DPPI   GL2 7886   4.340   0.766   9.329 -0.0075 -0.0175 -0.3304
  506DPPI   C1A 7887   3.920   0.906   9.023 -0.0557  0.2285  0.1865
  506DPPI   C2A 7888   3.823   1.105   8.574  0.0753 -0.1816  0.0820
  506DPPI   C3A 7889   3.697   1.093   8.166  0.1138 -0.4202 -0.1627
  506DPPI   C4A 7890   3.813   1.216   7.722 -0.1844 -0.3359 -0.0375
  506DPPI   C1B 7891   4.418   0.916   8.901  0.0812 -0.1187 -0.0406
  506DPPI   C2B 7892   4.399   0.965   8.488 -0.0955  0.3073  0.1193
  506DPPI   C3B 7893   4.337   1.038   8.073 -0.0601  0.1163  0.0649
  506DPPI   C4B 7894   4.298   1.195   7.667 -0.2912  0.3433 -0.0112
  507DPPI    C1 7895   9.921  17.291   9.876 -0.1020 -0.5468  0.0780
  507DPPI    C2 7896   9.861  17.487  10.219  0.3112  0.0027 -0.1480
  507DPPI    C3 7897   9.549  17.364  10.002  0.0414  0.2263  0.1046
  507DPPI   PO4 7898  10.218  17.403   9.755  0.1326  0.2149 -0.2667
  507DPPI   GL1 7899  10.373  17.492   9.367 -0.0851  0.4315 -0.2079
  507DPPI   GL2 7900  10.278  17.800   9.507 -0.1131 -0.1784 -0.1016
  507DPPI   C1A 7901  10.319  17.303   8.899 -0.1424  0.3138 -0.1091
  507DPPI   C2A 7902  10.219  17.235   8.499  0.6373 -0.1850  0.2555
  507DPPI   C3A 7903  10.071  17.284   8.149  0.2801 -0.1151 -0.0458
  507DPPI   C4A 7904  10.004  17.268   7.714 -0.1164  0.0159  0.1123
  507DPPI   C1B 7905  10.317  17.857   9.039  0.1413 -0.0882 -0.0392
  507DPPI   C2B 7906  10.429  17.763   8.656 -0.2574  0.1142  0.1275
  507DPPI   C3B 7907  10.300  17.765   8.330  0.1268  0.2679 -0.4221
  507DPPI   C4B 7908  10.243  17.676   7.940  0.2301  0.2066  0.2909
  508DPPI    C1 7909  14.422   8.777  10.301 -0.2973  0.0324 -0.0420
  508DPPI    C2 7910  14.627   8.947  10.599 -0.0289  0.1036 -0.2638
  508DPPI    C3 7911  14.233   8.891  10.635 -0.0568  0.4181 -0.0313
  508DPPI   PO4 7912  14.555   8.670  10.133  0.2326  0.0375 -0.1503
  508DPPI   GL1 7913  14.708   8.842   9.732  0.2299  0.1534 -0.1536
  508DPPI   GL2 7914  15.026   8.862   9.515  0.2518 -0.1980 -0.0005
  508DPPI   C1A 7915  14.582   8.889   9.319  0.1279 -0.1970  0.0419
  508DPPI   C2A 7916  14.950   8.994   9.053 -0.1965 -0.2555  0.0542
  508DPPI   C3A 7917  15.272   9.057   8.727 -0.0445  0.2431  0.0007
  508DPPI   C4A 7918  15.594   9.328   8.851 -0.1601 -0.1335 -0.2841
  508DPPI   C1B 7919  15.082   8.568   9.214 -0.0800 -0.2950  0.0788
  508DPPI   C2B 7920  15.198   8.520   8.850 -0.1258 -0.0656  0.0737
  508DPPI   C3B 7921  15.407   8.560   8.507  0.1836 -0.1433 -0.1870
  508DPPI   C4B 7922  15.322   8.359   8.099 -0.0368 -0.3181 -0.2398
  509DPPI    C1 7923   3.815  18.092   9.818  0.1594 -0.2075  0.1283
  509DPPI    C2 7924   3.580  18.413   9.858  0.2712 -0.0224 -0.5757
  509DPPI    C3 7925   3.919  18.387  10.067  0.0630  0.1206 -0.2113
  509DPPI   PO4 7926   3.840  18.083   9.548 -0.0797  0.1974  0.0582
  509DPPI   GL1 7927   3.787  17.711   9.173  0.0787 -0.3111 -0.0978
  509DPPI   GL2 7928   3.824  18.065   8.999  0.0396  0.0446  0.0977
  509DPPI   C1A 7929   3.923  17.645   8.698 -0.1121  0.0926 -0.2777
  509DPPI   C2A 7930   4.091  17.643   8.350  0.0175  0.1020  0.0927
  509DPPI   C3A 7931   4.275  17.560   8.114  0.2649  0.0422 -0.1522
  509DPPI   C4A 7932   4.367  17.503   7.667 -0.0143 -0.2313  0.1731
  509DPPI   C1B 7933   3.921  18.090   8.541  0.0199 -0.0980  0.1042
  509DPPI   C2B 7934   4.116  18.072   8.084  0.0687 -0.1200 -0.0537
  509DPPI   C3B 7935   3.982  17.807   7.782  0.0239 -0.1231 -0.1754
  509DPPI   C4B 7936   3.826  17.406   7.873 -0.2154  0.0793  0.1680
  510DPPI    C1 7937  13.190   6.901  10.536 -0.0796 -0.0438  0.1164
  510DPPI    C2 7938  13.235   6.924  10.932  0.1137  0.0939  0.0881
  510DPPI    C3 7939  12.888   7.029  10.764  0.0465  0.0797  0.2162
  510DPPI   PO4 7940  13.330   7.106  10.322  0.1773 -0.0717 -0.0904
  510DPPI   GL1 7941  13.324   7.288   9.963 -0.2601  0.2444 -0.0732
  510DPPI   GL2 7942  13.638   7.135   9.857 -0.0279 -0.0669  0.2644
  510DPPI   C1A 7943  13.384   7.390   9.532  0.0105  0.0142 -0.0714
  510DPPI   C2A 7944  13.462   7.415   9.083 -0.2235 -0.1168 -0.1492
  510DPPI   C3A 7945  13.339   7.338   8.670 -0.0992  0.0710 -0.1415
  510DPPI   C4A 7946  13.346   7.327   8.239 -0.2627  0.1194 -0.1319
  510DPPI   C1B 7947  13.674   6.955   9.454 -0.2227  0.1019  0.0511
  510DPPI   C2B 7948  13.686   6.879   8.939  0.0927 -0.2557  0.2101
  510DPPI   C3B 7949  13.653   6.894   8.429 -0.1079  0.0630 -0.3090
  510DPPI   C4B 7950  13.298   6.789   8.128 -0.0053  0.0377 -0.2199
  511DPPI    C1 7951   7.845  12.611  10.234 -0.0142 -0.2243  0.0003
  511DPPI    C2 7952   7.867  12.412  10.581  0.0871 -0.1352  0.0456
  511DPPI    C3 7953   8.164  12.383  10.315  0.1958  0.1115  0.1379
  511DPPI   PO4 7954   7.593  12.679  10.228 -0.0457  0.0510 -0.0669
  511DPPI   GL1 7955   7.389  12.781   9.886 -0.0231  0.1152 -0.1276
  511DPPI   GL2 7956   7.046  13.023   9.925 -0.0934 -0.3242  0.5363
  511DPPI   C1A 7957   7.498  12.870   9.399 -0.1181 -0.1758 -0.1897
  511DPPI   C2A 7958   7.611  12.959   9.037  0.1816  0.0539  0.0528
  511DPPI   C3A 7959   7.663  12.906   8.557  0.3702  0.0967  0.0072
  511DPPI   C4A 7960   7.873  13.279   8.297  0.1210 -0.4195 -0.2383
  511DPPI   C1B 7961   7.147  13.208   9.411  0.0528  0.0930  0.2052
  511DPPI   C2B 7962   7.110  13.240   9.031 -0.0653  0.0746 -0.1480
  511DPPI   C3B 7963   6.947  13.469   8.623  0.0631  0.0549  0.1586
  511DPPI   C4B 7964   6.770  13.662   8.255  0.0435 -0.2140  0.0403
  512DPPI    C1 7965   8.258   2.782  10.124 -0.0553 -0.1650 -0.0043
  512DPPI    C2 7966   8.021   2.483  10.004 -0.3079  0.0236  0.0155
  512DPPI    C3 7967   8.192   2.470  10.365 -0.2068 -0.1596 -0.0377
  512DPPI   PO4 7968   8.356   2.865   9.863  0.1581 -0.0835 -0.1345
  512DPPI   GL1 7969   8.319   2.910   9.393  0.2287  0.0908 -0.0725
  512DPPI   GL2 7970   8.349   2.882   9.203  0.3000  0.2887  0.1042
  512DPPI   C1A 7971   7.988   3.145   9.021  0.1508  0.2119 -0.0882
  512DPPI   C2A 7972   8.035   3.232   8.570  0.0849 -0.2439  0.1126
  512DPPI   C3A 7973   8.261   3.406   8.225 -0.0142  0.1696 -0.0089
  512DPPI   C4A 7974   8.630   3.367   7.838 -0.1407 -0.2948 -0.3837
  512DPPI   C1B 7975   8.406   2.851   8.821  0.1726  0.0068  0.0821
  512DPPI   C2B 7976   8.384   2.945   8.371  0.0767  0.3259 -0.0189
  512DPPI   C3B 7977   8.355   2.767   8.034 -0.2511  0.0593 -0.0000
  512DPPI   C4B 7978   8.396   2.511   7.641 -0.2999  0.1622  0.3089
  513PYPI    C1 7979  10.147   3.992  10.271 -0.0187 -0.1783 -0.1424
  513PYPI    C2 7980  10.277   3.805  10.599  0.2264 -0.0751 -0.1788
  513PYPI    C3 7981  10.284   4.204  10.581 -0.1117 -0.0666 -0.1769
  513PYPI   PO4 7982  10.156   3.781  10.117 -0.2436 -0.0234 -0.0074
  513PYPI   GL1 7983  10.224   3.957   9.735 -0.0975 -0.2152  0.1786
  513PYPI   GL2 7984  10.466   3.848   9.681  0.1761  0.1018  0.2660
  513PYPI   C1A 7985   9.877   3.906   9.364  0.2639  0.0887  0.2027
  513PYPI   C2A 7986   9.903   3.873   8.907 -0.2446  0.3095  0.0973
  513PYPI   D3A 7987   9.881   3.884   8.470 -0.2099  0.0116 -0.4637
  513PYPI   C4A 7988  10.243   3.890   8.186 -0.1682 -0.1586 -0.2089
  513PYPI   C1B 7989  10.392   3.769   9.236 -0.1950  0.0164  0.2307
  513PYPI   C2B 7990  10.318   3.598   8.878 -0.0648 -0.2187  0.0331
  513PYPI   C3B 7991  10.562   3.517   8.592 -0.0689 -0.1037 -0.0882
  513PYPI   C4B 7992  10.764   3.173   8.350 -0.0478 -0.2251  0.1484
  514PYPI    C1 7993  11.384   9.631  10.226 -0.0376 -0.0179  0.0769
  514PYPI    C2 7994  11.576   9.633  10.577  0.0804  0.0193  0.0131
  514PYPI    C3 7995  11.520   9.289  10.382 -0.0017 -0.0039  0.0764
  514PYPI   PO4 7996  11.464   9.763  10.109  0.1660  0.2576  0.0488
  514PYPI   GL1 7997  11.641   9.623   9.653 -0.3706  0.1572  0.3962
  514PYPI   GL2 7998  11.307   9.527   9.608 -0.0694 -0.2405 -0.1291
  514PYPI   C1A 7999  12.006   9.492   9.383 -0.1284  0.2916 -0.0701
  514PYPI   C2A 8000  12.049   9.432   8.982  0.0454 -0.1125  0.1134
  514PYPI   D3A 8001  12.077   9.537   8.650 -0.1216  0.0401 -0.2494
  514PYPI   C4A 8002  12.205   9.359   8.261 -0.1932 -0.0932 -0.0479
  514PYPI   C1B 8003  11.511   9.538   9.194 -0.1781 -0.0651  0.1695
  514PYPI   C2B 8004  11.590   9.601   8.803 -0.0846  0.4004 -0.0084
  514PYPI   C3B 8005  11.413   9.577   8.475  0.0881 -0.1336  0.2395
  514PYPI   C4B 8006  11.317   9.572   8.105 -0.1154 -0.2192  0.1747
  515PYPI    C1 8007   1.255   0.033   9.800 -0.0455  0.1318  0.1852
  515PYPI    C2 8008   1.059  -0.240  10.016 -0.1661  0.2255  0.1949
  515PYPI    C3 8009   0.914  -0.123   9.662  0.0002  0.1161  0.0896
  515PYPI   PO4 8010   1.455  -0.070   9.702 -0.1870 -0.1746  0.3222
  515PYPI   GL1 8011   1.566   0.025   9.340 -0.0732  0.4741 -0.0034
  515PYPI   GL2 8012   1.860   0.230   9.268 -0.0039  0.1383 -0.1190
  515PYPI   C1A 8013   1.864  -0.170   8.968 -0.3784 -0.1529  0.2175
  515PYPI   C2A 8014   1.883  -0.095   8.515  0.0520  0.0497  0.2600
  515PYPI   D3A 8015   1.767   0.143   8.150  0.3207  0.0598 -0.1800
  515PYPI   C4A 8016   1.716  -0.099   7.764 -0.0235 -0.0360  0.0880
  515PYPI   C1B 8017   1.670   0.319   8.897  0.1577  0.1687  0.1019
  515PYPI   C2B 8018   1.612   0.451   8.550  0.1805 -0.2789 -0.1107
  515PYPI   C3B 8019   1.360   0.460   8.257 -0.1638 -0.0485 -0.0001
  515PYPI   C4B 8020   1.241   0.659   7.745  0.1882 -0.2872  0.2121
  516PYPI    C1 8021   7.883  13.535  10.739  0.3589  0.1468 -0.0538
  516PYPI    C2 8022   7.578  13.689  10.947  0.1107 -0.3273 -0.0510
  516PYPI    C3 8023   7.932  13.875  10.943 -0.1530  0.1949  0.0032
  516PYPI   PO4 8024   7.795  13.445  10.546 -0.2740 -0.0239  0.1985
  516PYPI   GL1 8025   7.924  13.225  10.227  0.1152 -0.1848 -0.0363
  516PYPI   GL2 8026   8.084  13.274  10.026 -0.0656  0.0338  0.0340
  516PYPI   C1A 8027   7.667  13.266   9.730 -0.2787 -0.1061 -0.0205
  516PYPI   C2A 8028   7.675  13.452   9.398 -0.0622  0.0251 -0.1733
  516PYPI   D3A 8029   7.697  13.498   8.902  0.0508  0.0379  0.0112
  516PYPI   C4A 8030   7.412  13.326   8.661  0.2179  0.2842  0.1051
  516PYPI   C1B 8031   8.179  13.322   9.548  0.0896 -0.0441 -0.4002
  516PYPI   C2B 8032   8.084  13.229   9.142  0.1215  0.2512  0.0789
  516PYPI   C3B 8033   8.184  13.279   8.739 -0.1141  0.0270  0.0712
  516PYPI   C4B 8034   8.300  13.547   8.397  0.0178  0.1123  0.1231
  517PYPI    C1 8035   9.333  12.529  10.778 -0.0894  0.0885 -0.0961
  517PYPI    C2 8036   9.049  12.655  11.030 -0.1454 -0.1777 -0.0233
  517PYPI    C3 8037   9.262  12.327  11.116  0.1302 -0.0265 -0.1166
  517PYPI   PO4 8038   9.168  12.527  10.541 -0.1972 -0.1827  0.1391
  517PYPI   GL1 8039   9.153  12.761  10.084 -0.0952 -0.0482  0.1853
  517PYPI   GL2 8040   8.815  12.831  10.130  0.2688 -0.0378  0.2002
  517PYPI   C1A 8041   9.082  12.832   9.602 -0.1262  0.2233 -0.0349
  517PYPI   C2A 8042   9.145  12.851   9.178  0.1527 -0.0492 -0.4044
  517PYPI   D3A 8043   9.134  12.969   8.763  0.2525  0.1832  0.1882
  517PYPI   C4A 8044   8.902  12.771   8.560 -0.2256 -0.2122  0.0454
  517PYPI   C1B 8045   8.870  12.379   9.936 -0.1854  0.0913  0.0389
  517PYPI   C2B 8046   9.096  12.285   9.672  0.0421  0.2236  0.1614
  517PYPI   C3B 8047   9.222  12.242   9.184 -0.2664  0.1770 -0.1362
  517PYPI   C4B 8048   9.167  12.475   8.864 -0.0686  0.0699 -0.0831
  518PYPI    C1 8049   5.305   5.324  10.285  0.1300  0.2749  0.2541
  518PYPI    C2 8050   4.916   5.301  10.375  0.1541 -0.0910  0.2776
  518PYPI    C3 8051   5.191   5.208  10.650  0.2469 -0.2989  0.1171
  518PYPI   PO4 8052   5.293   5.517  10.117  0.3741 -0.0410  0.1184
  518PYPI   GL1 8053   5.059   5.643   9.758  0.3102  0.1983 -0.2199
  518PYPI   GL2 8054   4.904   5.439   9.564 -0.2604  0.2399 -0.0089
  518PYPI   C1A 8055   5.255   5.875   9.409 -0.1336  0.2238  0.0623
  518PYPI   C2A 8056   5.102   5.996   8.989  0.2770  0.0200  0.1352
  518PYPI   D3A 8057   5.037   6.034   8.560  0.0240  0.1990 -0.2731
  518PYPI   C4A 8058   5.401   6.124   8.181 -0.0448  0.2376 -0.0087
  518PYPI   C1B 8059   4.693   5.507   9.208  0.2030  0.0795  0.0331
  518PYPI   C2B 8060   4.798   5.656   8.761  0.1205  0.1739 -0.0075
  518PYPI   C3B 8061   4.841   5.602   8.328  0.0121 -0.0644 -0.0239
  518PYPI   C4B 8062   4.919   5.554   7.926 -0.3330 -0.2766  0.0856
  519PYPI    C1 8063   7.419   6.046   9.985 -0.0634  0.1052 -0.1048
  519PYPI    C2 8064   7.333   6.176  10.353 -0.1564  0.1893 -0.1554
  519PYPI    C3 8065   7.204   5.817  10.233  0.0503  0.0726 -0.0358
  519PYPI   PO4 8066   7.328   6.226   9.862 -0.0527  0.0456  0.2887
  519PYPI   GL1 8067   7.108   6.345   9.532 -0.1582 -0.1274 -0.0119
  519PYPI   GL2 8068   7.241   6.557   9.444 -0.0849 -0.0406 -0.2477
  519PYPI   C1A 8069   6.761   6.127   9.289  0.0589  0.0689 -0.1579
  519PYPI   C2A 8070   6.641   6.069   8.857 -0.2335  0.2014  0.1632
  519PYPI   D3A 8071   6.725   6.145   8.428 -0.1862  0.3169  0.0187
  519PYPI   C4A 8072   6.653   5.855   8.166  0.0103  0.3200  0.2473
  519PYPI   C1B 8073   7.119   6.521   9.068  0.2571 -0.0247 -0.1239
  519PYPI   C2B 8074   6.982   6.476   8.721 -0.2860  0.0874 -0.2652
  519PYPI   C3B 8075   6.804   6.699   8.332 -0.4343 -0.2092 -0.1715
  519PYPI   C4B 8076   6.852   6.877   7.905  0.1132  0.0749  0.1047
  520PYPI    C1 8077  10.159   5.901  10.263 -0.1218  0.1336 -0.0225
  520PYPI    C2 8078   9.897   5.616  10.161  0.0416 -0.0261 -0.0011
  520PYPI    C3 8079  10.264   5.515  10.284  0.0148  0.1836  0.2603
  520PYPI   PO4 8080  10.223   6.064  10.062  0.5750  0.1855  0.2101
  520PYPI   GL1 8081  10.103   6.086   9.608  0.2451  0.2379  0.3562
  520PYPI   GL2 8082  10.380   6.239   9.618  0.0642  0.1782 -0.0406
  520PYPI   C1A 8083   9.728   5.776   9.529 -0.1742 -0.0995 -0.0241
  520PYPI   C2A 8084   9.485   5.475   9.287 -0.1300 -0.1365  0.0116
  520PYPI   D3A 8085   9.649   5.023   9.229 -0.2498  0.0232 -0.2596
  520PYPI   C4A 8086   9.494   4.809   9.606 -0.0015  0.1104 -0.0504
  520PYPI   C1B 8087  10.497   6.019   9.243 -0.0878  0.0549  0.4247
  520PYPI   C2B 8088  10.231   5.908   8.678 -0.1055  0.0177 -0.2585
  520PYPI   C3B 8089   9.922   5.806   8.322 -0.1512 -0.4763  0.0045
  520PYPI   C4B 8090   9.957   5.588   8.027  0.1148 -0.2054  0.0556
  521PYPI    C1 8091   0.468   8.615  10.098  0.2321  0.1219 -0.0374
  521PYPI    C2 8092   0.222   8.725  10.393 -0.0860 -0.1776 -0.1841
  521PYPI    C3 8093   0.591   8.596  10.478 -0.1790 -0.2720  0.0846
  521PYPI   PO4 8094   0.501   8.875   9.885 -0.0434  0.3446  0.1144
  521PYPI   GL1 8095   0.587   8.977   9.508  0.1883 -0.0235  0.1851
  521PYPI   GL2 8096   0.358   8.764   9.324  0.2850 -0.0183  0.1647
  521PYPI   C1A 8097   0.547   9.238   9.108  0.2898  0.0465  0.1706
  521PYPI   C2A 8098   0.422   9.186   8.695 -0.0633 -0.1440  0.1515
  521PYPI   D3A 8099   0.404   9.311   8.308  0.0494 -0.0268 -0.0148
  521PYPI   C4A 8100   0.341   9.136   7.985 -0.1572  0.0855  0.0108
  521PYPI   C1B 8101   0.288   8.850   9.001  0.0131 -0.1673 -0.2006
  521PYPI   C2B 8102   0.185   8.785   8.554 -0.0368 -0.1825  0.1488
  521PYPI   C3B 8103   0.046   8.589   8.179  0.0790 -0.1582  0.4265
  521PYPI   C4B 8104   0.128   8.641   7.746 -0.1483 -0.3586  0.0857
  522PYPI    C1 8105  11.726   2.867   9.952  0.3541  0.2229 -0.1806
  522PYPI    C2 8106  11.805   2.709  10.310 -0.0860  0.1256 -0.1215
  522PYPI    C3 8107  11.924   3.081  10.226  0.0635  0.1315  0.1067
  522PYPI   PO4 8108  11.863   2.687   9.799 -0.0038 -0.1321 -0.0716
  522PYPI   GL1 8109  12.207   2.647   9.544 -0.0780  0.1192  0.2745
  522PYPI   GL2 8110  12.508   2.671   9.596 -0.1540  0.3322  0.4771
  522PYPI   C1A 8111  11.955   2.836   9.187 -0.0513 -0.2191  0.1415
  522PYPI   C2A 8112  11.858   2.610   8.825 -0.1409  0.0890 -0.2570
  522PYPI   D3A 8113  11.878   2.719   8.447 -0.0903 -0.0956  0.0802
  522PYPI   C4A 8114  11.463   2.740   8.188  0.1790 -0.4068 -0.0101
  522PYPI   C1B 8115  12.444   2.796   9.059 -0.0813 -0.1217 -0.1195
  522PYPI   C2B 8116  12.436   2.651   8.659 -0.1282  0.0509 -0.0308
  522PYPI   C3B 8117  12.381   2.678   8.243 -0.0913  0.2292 -0.1664
  522PYPI   C4B 8118  12.271   2.611   7.847  0.1772  0.0928 -0.2159
  523PYPI    C1 8119   8.044   1.063   9.922  0.0658 -0.0935 -0.0958
  523PYPI    C2 8120   7.828   1.066  10.260 -0.0813 -0.1042 -0.1888
  523PYPI    C3 8121   8.221   0.990  10.273 -0.1595 -0.5098 -0.0625
  523PYPI   PO4 8122   7.842   1.214   9.774 -0.0608 -0.2770 -0.1929
  523PYPI   GL1 8123   7.619   1.246   9.390  0.0744 -0.1345  0.0181
  523PYPI   GL2 8124   7.395   1.011   9.418  0.2020  0.3644 -0.1855
  523PYPI   C1A 8125   7.826   1.309   9.017  0.0499 -0.0629  0.1466
  523PYPI   C2A 8126   7.760   1.341   8.695  0.3066 -0.0591 -0.1068
  523PYPI   D3A 8127   7.939   1.274   8.352 -0.0949 -0.2602  0.1537
  523PYPI   C4A 8128   7.961   1.281   7.898 -0.2226  0.1985  0.1381
  523PYPI   C1B 8129   7.508   0.871   9.059  0.1942 -0.2078  0.0254
  523PYPI   C2B 8130   7.574   0.878   8.681 -0.0336  0.2470 -0.3137
  523PYPI   C3B 8131   7.649   0.914   8.197  0.1978 -0.3956 -0.0676
  523PYPI   C4B 8132   7.644   0.748   7.840 -0.1033 -0.2197 -0.0321
  524PYPI    C1 8133   1.555   9.743   9.998 -0.1954  0.1385 -0.0107
  524PYPI    C2 8134   1.555   9.973  10.326  0.1073 -0.0242  0.1075
  524PYPI    C3 8135   1.576   9.575  10.360 -0.1821 -0.0607 -0.1028
  524PYPI   PO4 8136   1.400   9.909   9.830  0.1369  0.2011  0.3664
  524PYPI   GL1 8137   1.219   9.810   9.405 -0.2210  0.0839 -0.3675
  524PYPI   GL2 8138   1.358   9.534   9.502  0.2607 -0.2972 -0.0897
  524PYPI   C1A 8139   1.356   9.946   9.038  0.0616  0.0430  0.1379
  524PYPI   C2A 8140   1.414   9.846   8.580  0.0556  0.0491  0.0150
  524PYPI   D3A 8141   1.124   9.958   8.200  0.0404 -0.0317 -0.1947
  524PYPI   C4A 8142   1.233  10.121   7.737 -0.0884  0.1390  0.3380
  524PYPI   C1B 8143   1.368   9.385   9.039  0.0713 -0.1352  0.1670
  524PYPI   C2B 8144   1.414   9.387   8.593  0.2458 -0.2233 -0.0462
  524PYPI   C3B 8145   1.414   9.223   8.107  0.2147  0.0387  0.1602
  524PYPI   C4B 8146   1.423   8.958   7.738  0.0801  0.1462 -0.2169
  525PYPI    C1 8147  15.559   1.387  10.167  0.0073 -0.1969 -0.2891
  525PYPI    C2 8148  15.811   1.232  10.436  0.0927  0.0847 -0.2025
  525PYPI    C3 8149  15.556   0.994  10.240  0.1579 -0.1490 -0.0095
  525PYPI   PO4 8150  15.680   1.598  10.047  0.1628 -0.1981 -0.3171
  525PYPI   GL1 8151  15.569   1.742   9.558 -0.1189  0.0929  0.1629
  525PYPI   GL2 8152  15.255   1.625   9.394 -0.1632 -0.3155  0.1694
  525PYPI   C1A 8153  15.743   1.837   9.193  0.1154 -0.2388  0.0790
  525PYPI   C2A 8154  15.685   1.928   8.777  0.3630 -0.1947  0.1644
  525PYPI   D3A 8155  15.536   1.620   8.513 -0.1735 -0.2026 -0.0191
  525PYPI   C4A 8156  15.618   1.705   8.085 -0.0746  0.2609 -0.1107
  525PYPI   C1B 8157  15.054   1.571   9.103  0.0874 -0.1722  0.1889
  525PYPI   C2B 8158  15.089   1.605   8.651  0.2046 -0.0073 -0.1305
  525PYPI   C3B 8159  15.118   1.482   8.193 -0.0080  0.2008  0.2109
  525PYPI   C4B 8160  15.241   1.626   7.746  0.1002 -0.2681 -0.0093
  526PYPI    C1 8161  11.910   0.041  10.180 -0.0370 -0.0838  0.1028
  526PYPI    C2 8162  12.093  -0.314  10.173 -0.2324 -0.1845  0.0382
  526PYPI    C3 8163  12.166  -0.057  10.471  0.1600 -0.1433 -0.0882
  526PYPI   PO4 8164  11.655   0.016  10.113  0.1564  0.0832  0.0061
  526PYPI   GL1 8165  11.462  -0.036   9.631 -0.0649  0.0168 -0.3930
  526PYPI   GL2 8166  11.830  -0.151   9.642 -0.0887 -0.0538 -0.0489
  526PYPI   C1A 8167  11.597   0.265   9.447 -0.2163  0.1626  0.0845
  526PYPI   C2A 8168  11.493   0.216   8.974  0.2107 -0.0062 -0.1680
  526PYPI   D3A 8169  11.417   0.149   8.545 -0.0535  0.0723 -0.1513
  526PYPI   C4A 8170  11.389   0.394   8.255 -0.2720 -0.2078  0.2196
  526PYPI   C1B 8171  11.880  -0.271   9.225  0.0715  0.0757 -0.2486
  526PYPI   C2B 8172  12.031  -0.527   8.945 -0.3301  0.0946 -0.0198
  526PYPI   C3B 8173  11.989  -0.759   8.512  0.2242 -0.0116  0.0188
  526PYPI   C4B 8174  11.939  -0.602   8.206 -0.1620 -0.3252 -0.2167
  527PYPI    C1 8175   3.185   5.790  10.430  0.1255  0.0060 -0.1106
  527PYPI    C2 8176   3.132   5.953  10.791  0.3024  0.0294 -0.0943
  527PYPI    C3 8177   3.241   5.570  10.759  0.0537 -0.0401 -0.1289
  527PYPI   PO4 8178   2.924   5.800  10.289  0.0970  0.0895  0.2664
  527PYPI   GL1 8179   2.742   6.053  10.056 -0.0929 -0.1874  0.1640
  527PYPI   GL2 8180   2.885   5.878   9.790  0.2429  0.2199 -0.1108
  527PYPI   C1A 8181   2.609   6.255   9.628  0.0458  0.0439 -0.0767
  527PYPI   C2A 8182   2.725   6.359   9.198  0.0243 -0.2020 -0.0765
  527PYPI   D3A 8183   2.904   6.473   8.737  0.0770  0.1194  0.3202
  527PYPI   C4A 8184   2.751   6.783   8.548 -0.0428 -0.0049  0.1248
  527PYPI   C1B 8185   2.986   6.006   9.418 -0.0275  0.2755 -0.1999
  527PYPI   C2B 8186   3.011   5.945   8.913 -0.5138  0.2424 -0.0263
  527PYPI   C3B 8187   2.858   5.986   8.523 -0.0711  0.1494 -0.0317
  527PYPI   C4B 8188   2.873   6.032   8.135  0.2695  0.0123 -0.4121
  528PYPI    C1 8189   6.504  16.521  10.224 -0.4439  0.0967  0.2036
  528PYPI    C2 8190   6.795  16.251  10.175 -0.3252  0.2465  0.0680
  528PYPI    C3 8191   6.681  16.358  10.543 -0.3948 -0.0093  0.1228
  528PYPI   PO4 8192   6.275  16.388  10.138  0.4440 -0.1621  0.0523
  528PYPI   GL1 8193   6.113  16.315   9.819  0.0335  0.0160 -0.0633
  528PYPI   GL2 8194   5.778  16.348   9.752 -0.2211 -0.0602 -0.1432
  528PYPI   C1A 8195   6.243  16.516   9.484  0.0320 -0.1413  0.2991
  528PYPI   C2A 8196   6.247  16.426   9.164 -0.1412 -0.0056  0.1402
  528PYPI   D3A 8197   6.182  16.301   8.760 -0.2175 -0.0455  0.1216
  528PYPI   C4A 8198   6.041  15.817   8.756  0.1848 -0.0231 -0.1229
  528PYPI   C1B 8199   5.680  16.297   9.332  0.4565  0.0774 -0.0455
  528PYPI   C2B 8200   5.757  16.456   8.926 -0.1793  0.2794 -0.1106
  528PYPI   C3B 8201   5.707  16.401   8.594  0.0739  0.1108  0.0685
  528PYPI   C4B 8202   5.861  16.275   8.219 -0.0512  0.0967 -0.0063
  529PYPI    C1 8203   3.427   4.854   9.612  0.2766  0.1170  0.0377
  529PYPI    C2 8204   3.306   4.786   9.987  0.0654  0.0078 -0.0485
  529PYPI    C3 8205   3.430   4.482   9.759  0.1859  0.0729 -0.0708
  529PYPI   PO4 8206   3.213   5.049   9.561  0.0900 -0.0482  0.0667
  529PYPI   GL1 8207   3.090   5.072   9.121 -0.1631  0.0462  0.1998
  529PYPI   GL2 8208   2.974   4.729   9.228  0.0504 -0.2479  0.2592
  529PYPI   C1A 8209   3.140   5.129   8.686 -0.3538  0.2107 -0.2106
  529PYPI   C2A 8210   3.183   5.111   8.335  0.0617  0.1895  0.2671
  529PYPI   D3A 8211   3.488   5.278   7.969 -0.1204 -0.1298  0.0061
  529PYPI   C4A 8212   3.350   4.912   7.596  0.3182 -0.0240  0.0840
  529PYPI   C1B 8213   3.044   4.396   8.899  0.3339  0.1824  0.1926
  529PYPI   C2B 8214   2.972   4.222   8.396 -0.2112 -0.4019  0.1601
  529PYPI   C3B 8215   3.100   4.059   8.040  0.0200 -0.1949  0.0664
  529PYPI   C4B 8216   2.866   3.891   7.776 -0.0018  0.0893 -0.6802
  530PYPI    C1 8217  18.111   7.581  10.598 -0.0928  0.0380  0.0181
  530PYPI    C2 8218  17.748   7.746  10.562 -0.0985 -0.0140 -0.1819
  530PYPI    C3 8219  17.924   7.723  10.921 -0.3466 -0.1023 -0.0640
  530PYPI   PO4 8220  18.262   7.740  10.417  0.0143 -0.5252  0.2880
  530PYPI   GL1 8221  18.297   7.906   9.956  0.0447 -0.2200  0.1587
  530PYPI   GL2 8222  18.458   7.717   9.786 -0.3926  0.3833  0.0231
  530PYPI   C1A 8223  18.354   8.189   9.604  0.0442  0.0138 -0.0774
  530PYPI   C2A 8224  18.671   8.400   9.285  0.1826 -0.2173 -0.0284
  530PYPI   D3A 8225  19.076   8.279   9.238  0.0262  0.1698  0.0244
  530PYPI   C4A 8226  19.169   8.362   8.752 -0.1330 -0.2700  0.1278
  530PYPI   C1B 8227  18.040   7.698   9.569 -0.3016 -0.0025  0.0082
  530PYPI   C2B 8228  18.061   7.586   9.140  0.1774  0.2516  0.1053
  530PYPI   C3B 8229  18.307   7.585   8.894  0.2766  0.1735  0.3502
  530PYPI   C4B 8230  18.599   7.709   8.539  0.1712  0.0328  0.1567
  531PYPI    C1 8231  12.180   3.745   9.997  0.1692  0.4114  0.0594
  531PYPI    C2 8232  12.413   3.452  10.135 -0.0694  0.1756 -0.0290
  531PYPI    C3 8233  12.213   3.686  10.391  0.1613  0.2973  0.0431
  531PYPI   PO4 8234  12.325   3.861   9.863  0.2256 -0.0544  0.0046
  531PYPI   GL1 8235  12.336   4.010   9.380 -0.0946  0.1187  0.4452
  531PYPI   GL2 8236  12.072   4.182   9.449 -0.2798  0.0768 -0.1057
  531PYPI   C1A 8237  12.364   3.833   8.959 -0.1484  0.2784  0.0291
  531PYPI   C2A 8238  12.116   3.926   8.675 -0.2396 -0.0562  0.3396
  531PYPI   D3A 8239  11.887   4.142   8.378  0.1064 -0.0542  0.0726
  531PYPI   C4A 8240  12.161   4.186   8.002  0.0184 -0.1578 -0.2041
  531PYPI   C1B 8241  11.847   3.922   9.187  0.0400 -0.0339 -0.2899
  531PYPI   C2B 8242  11.526   3.976   8.817 -0.0671  0.2419 -0.3701
  531PYPI   C3B 8243  11.390   3.988   8.426  0.0751 -0.1741  0.0849
  531PYPI   C4B 8244  11.612   3.888   8.012 -0.0759  0.1275  0.0040
  532PYPI    C1 8245  16.244   2.272   9.980 -0.0951  0.3262 -0.0002
  532PYPI    C2 8246  16.431   2.041  10.247  0.2132  0.2210 -0.2985
  532PYPI    C3 8247  16.347   2.422  10.336  0.1845  0.1484 -0.0035
  532PYPI   PO4 8248  16.396   2.188   9.742  0.0691  0.1051  0.3219
  532PYPI   GL1 8249  16.525   2.218   9.269  0.0594 -0.0219 -0.1930
  532PYPI   GL2 8250  16.393   2.620   9.142  0.0809  0.0467  0.0390
  532PYPI   C1A 8251  16.710   2.334   8.924 -0.0481  0.0965 -0.0428
  532PYPI   C2A 8252  16.684   2.464   8.485 -0.1853  0.1853 -0.0217
  532PYPI   D3A 8253  16.622   2.333   8.058 -0.4915  0.1211  0.0319
  532PYPI   C4A 8254  16.251   2.463   7.906  0.0235 -0.0022 -0.2654
  532PYPI   C1B 8255  16.255   2.785   8.741 -0.2277  0.0559 -0.1096
  532PYPI   C2B 8256  16.047   2.808   8.218  0.1222 -0.0645  0.3125
  532PYPI   C3B 8257  15.847   2.906   7.783  0.1330 -0.1803  0.0762
  532PYPI   C4B 8258  15.794   3.267   7.437 -0.4412 -0.1343 -0.1124
  533PYPI    C1 8259   2.203  11.731  10.251 -0.1005  0.1698 -0.1533
  533PYPI    C2 8260   1.857  11.672  10.444 -0.0767  0.0665 -0.1412
  533PYPI    C3 8261   2.184  11.780  10.648 -0.0631  0.0045 -0.1304
  533PYPI   PO4 8262   2.256  11.455  10.045 -0.0729  0.2622 -0.0950
  533PYPI   GL1 8263   2.438  11.287   9.706  0.2172  0.2276 -0.1882
  533PYPI   GL2 8264   2.516  10.952   9.672  0.0029 -0.1726  0.1467
  533PYPI   C1A 8265   2.548  11.200   9.272  0.1665 -0.1263 -0.3047
  533PYPI   C2A 8266   2.579  11.221   8.776 -0.3276  0.1098 -0.0037
  533PYPI   D3A 8267   2.827  11.024   8.438  0.1024 -0.1571  0.2677
  533PYPI   C4A 8268   3.045  11.192   8.129  0.0448  0.1216  0.1894
  533PYPI   C1B 8269   2.638  10.674   9.325  0.0129  0.4207 -0.1210
  533PYPI   C2B 8270   2.586  10.305   8.959  0.1639  0.1808 -0.1028
  533PYPI   C3B 8271   2.852   9.933   8.585 -0.1945  0.2354  0.1906
  533PYPI   C4B 8272   3.042   9.703   8.277  0.3286 -0.2100  0.1289
  534PYPI    C1 8273  17.683  16.858  10.108 -0.1335  0.2165 -0.2252
  534PYPI    C2 8274  17.904  16.832  10.441 -0.3666 -0.0977 -0.0895
  534PYPI    C3 8275  17.865  17.183  10.252  0.0046  0.0215  0.0487
  534PYPI   PO4 8276  17.859  16.594   9.909  0.0813 -0.2087 -0.1046
  534PYPI   GL1 8277  18.168  16.663   9.549 -0.0343  0.0317 -0.2550
  534PYPI   GL2 8278  18.444  16.772   9.467  0.1255 -0.2454  0.2905
  534PYPI   C1A 8279  18.115  16.808   9.033 -0.2576 -0.0302 -0.0329
  534PYPI   C2A 8280  18.115  16.846   8.678 -0.0269  0.1318  0.1937
  534PYPI   D3A 8281  18.252  16.872   8.220 -0.1219  0.2185 -0.0473
  534PYPI   C4A 8282  18.489  16.704   7.849  0.5293 -0.0711  0.3237
  534PYPI   C1B 8283  18.473  16.463   9.151 -0.0439  0.0019  0.0289
  534PYPI   C2B 8284  18.386  16.288   8.765 -0.0292  0.2702  0.1422
  534PYPI   C3B 8285  18.348  16.356   8.295  0.1603 -0.0455 -0.1326
  534PYPI   C4B 8286  18.431  16.248   7.768  0.1099  0.3138  0.0120
  535PYPI    C1 8287   5.272  14.517  10.411  0.1916 -0.3595  0.2003
  535PYPI    C2 8288   5.540  14.804  10.337  0.0431 -0.2556  0.0582
  535PYPI    C3 8289   5.660  14.450  10.479  0.2915 -0.3144 -0.2846
  535PYPI   PO4 8290   5.070  14.554  10.218 -0.1762 -0.0345 -0.0050
  535PYPI   GL1 8291   5.027  14.579   9.758 -0.2960 -0.3359  0.0376
  535PYPI   GL2 8292   5.307  14.740   9.790  0.2230  0.0014 -0.0672
  535PYPI   C1A 8293   4.956  14.964   9.520 -0.3084  0.2278 -0.1169
  535PYPI   C2A 8294   5.087  14.996   9.059  0.0490  0.2166 -0.2859
  535PYPI   D3A 8295   5.340  14.963   8.684  0.1171  0.1027  0.3151
  535PYPI   C4A 8296   5.549  15.181   8.317 -0.2115 -0.0412  0.0751
  535PYPI   C1B 8297   5.409  14.753   9.406  0.0604  0.4188  0.4167
  535PYPI   C2B 8298   5.533  14.553   9.046  0.1927 -0.3106  0.1395
  535PYPI   C3B 8299   5.682  14.578   8.519  0.1496  0.1173 -0.0521
  535PYPI   C4B 8300   5.710  14.736   8.083 -0.2193 -0.1108  0.0848
  536PYPI    C1 8301   4.103   0.349   9.634 -0.1033  0.0946 -0.0529
  536PYPI    C2 8302   3.900   0.173   9.930  0.1477 -0.2184 -0.0612
  536PYPI    C3 8303   4.291   0.103   9.887  0.2077  0.1776 -0.1992
  536PYPI   PO4 8304   4.043   0.330   9.374  0.2412  0.0321  0.0550
  536PYPI   GL1 8305   4.189   0.390   8.931 -0.3805 -0.1833  0.2570
  536PYPI   GL2 8306   4.104   0.593   8.745 -0.1624  0.1363  0.1590
  536PYPI   C1A 8307   4.433   0.052   8.805  0.1083 -0.1980 -0.1523
  536PYPI   C2A 8308   4.775  -0.175   8.915 -0.3644  0.0589  0.0959
  536PYPI   D3A 8309   5.068  -0.285   8.879  0.2294  0.2252  0.0159
  536PYPI   C4A 8310   5.294  -0.462   8.548 -0.2189  0.2072  0.1919
  536PYPI   C1B 8311   4.033   0.712   8.326  0.1654 -0.0302 -0.1425
  536PYPI   C2B 8312   3.925   0.395   8.136  0.0586 -0.0359 -0.3573
  536PYPI   C3B 8313   3.637   0.365   7.740  0.2127 -0.0543  0.1391
  536PYPI   C4B 8314   3.383   0.056   7.566 -0.1270 -0.0597  0.0019
  537PYPI    C1 8315  13.012   0.069  10.095 -0.0609  0.1128 -0.0068
  537PYPI    C2 8316  13.323   0.024   9.848 -0.1295 -0.1646 -0.0452
  537PYPI    C3 8317  13.384   0.065  10.241 -0.0377 -0.0684 -0.0692
  537PYPI   PO4 8318  12.815   0.072   9.839  0.1473 -0.0751 -0.0002
  537PYPI   GL1 8319  12.564   0.197   9.473  0.0174 -0.2112 -0.1244
  537PYPI   GL2 8320  12.238   0.047   9.498 -0.0205 -0.0306  0.0058
  537PYPI   C1A 8321  12.487   0.222   9.059  0.1690 -0.0327  0.3780
  537PYPI   C2A 8322  12.499   0.263   8.573 -0.3098  0.2370 -0.0227
  537PYPI   D3A 8323  12.495   0.496   8.211  0.0532  0.0220  0.0436
  537PYPI   C4A 8324  12.210   0.271   8.009 -0.1843 -0.0626 -0.2838
  537PYPI   C1B 8325  12.030   0.171   9.115 -0.3944  0.0017 -0.0624
  537PYPI   C2B 8326  12.057  -0.082   8.678 -0.1691 -0.3448 -0.3254
  537PYPI   C3B 8327  12.166  -0.156   8.295 -0.1147  0.0163 -0.1207
  537PYPI   C4B 8328  12.551  -0.094   8.100  0.2424  0.3114  0.1002
  538PYPI    C1 8329   4.687  12.030  10.553 -0.1487  0.0718 -0.1366
  538PYPI    C2 8330   4.298  12.111  10.603 -0.1756 -0.1863  0.1012
  538PYPI    C3 8331   4.574  12.384  10.702 -0.2885 -0.0789  0.1228
  538PYPI   PO4 8332   4.757  12.084  10.319  0.4169  0.3376 -0.1588
  538PYPI   GL1 8333   4.937  11.798  10.082  0.0280  0.2104  0.2176
  538PYPI   GL2 8334   4.916  12.032   9.814 -0.0040  0.4500 -0.1458
  538PYPI   C1A 8335   4.720  11.603   9.649 -0.0914 -0.2390  0.0871
  538PYPI   C2A 8336   4.828  11.735   9.200  0.0632 -0.1205 -0.1782
  538PYPI   D3A 8337   4.748  11.778   8.749 -0.1103 -0.2945  0.1200
  538PYPI   C4A 8338   4.644  12.212   8.564  0.3031 -0.3240 -0.5910
  538PYPI   C1B 8339   5.065  12.103   9.415 -0.1658  0.2089 -0.2322
  538PYPI   C2B 8340   5.079  12.157   8.879  0.0076  0.0015  0.3030
  538PYPI   C3B 8341   5.113  12.480   8.531 -0.2345  0.1662 -0.0565
  538PYPI   C4B 8342   5.279  12.656   8.220 -0.1985 -0.0676 -0.0492
  539PYPI    C1 8343  14.388   1.771  10.082 -0.6439  0.2070  0.0542
  539PYPI    C2 8344  14.746   1.818  10.254 -0.3650  0.0567 -0.4632
  539PYPI    C3 8345  14.414   1.910  10.456 -0.0400  0.1920  0.0288
  539PYPI   PO4 8346  14.422   1.800   9.889  0.1771  0.0859 -0.0022
  539PYPI   GL1 8347  14.411   2.084   9.571  0.0384  0.4174  0.0713
  539PYPI   GL2 8348  14.659   2.279   9.468  0.1211 -0.0647  0.0448
  539PYPI   C1A 8349  14.111   2.132   9.251  0.1705 -0.2923 -0.1509
  539PYPI   C2A 8350  14.338   2.339   8.954  0.1689  0.0365 -0.0084
  539PYPI   D3A 8351  14.493   2.455   8.633  0.1146  0.3175 -0.1360
  539PYPI   C4A 8352  14.453   2.308   8.253 -0.3960  0.1346 -0.0169
  539PYPI   C1B 8353  14.879   2.406   9.127  0.2385 -0.3171 -0.2450
  539PYPI   C2B 8354  15.030   2.518   8.771  0.1164  0.2638  0.0068
  539PYPI   C3B 8355  14.928   2.474   8.273 -0.2446 -0.1193 -0.0370
  539PYPI   C4B 8356  15.088   2.393   7.917  0.1107  0.0428  0.3013
  540ERGO   ROH 8357   5.082   8.312   9.847  0.2422 -0.2691  0.0775
  540ERGO    R1 8358   5.150   8.432   9.600  0.2528 -0.3963  0.0185
  540ERGO    R2 8359   5.205   8.283   9.373 -0.2333 -0.5067 -0.0361
  540ERGO    R3 8360   5.012   8.440   9.263 -0.0381 -0.1298  0.1394
  540ERGO    R4 8361   5.157   8.329   9.034 -0.4374 -0.4033  0.0053
  540ERGO    R5 8362   5.117   8.540   9.073 -0.0053 -0.3204  0.0537
  540ERGO    C1 8363   4.947   8.503   8.733 -0.3731  0.0108  0.1941
  540ERGO    C2 8364   5.096   8.435   8.409  0.0224 -0.2839  0.2251
  541ERGO   ROH 8365  13.422  18.063   9.487 -0.1673 -0.0573 -0.0515
  541ERGO    R1 8366  13.448  17.871   9.281  0.0596 -0.0135 -0.0653
  541ERGO    R2 8367  13.252  17.828   9.092  0.0752 -0.2859 -0.0210
  541ERGO    R3 8368  13.455  17.873   8.917 -0.0264  0.0112 -0.0677
  541ERGO    R4 8369  13.257  17.719   8.763  0.0960 -0.1675 -0.0602
  541ERGO    R5 8370  13.468  17.671   8.788  0.1651  0.0662 -0.1413
  541ERGO    C1 8371  13.451  17.699   8.408  0.0127  0.1803 -0.1267
  541ERGO    C2 8372  13.514  17.718   8.105  0.1134  0.3758 -0.0122
  542ERGO   ROH 8373  18.406  12.740   9.464 -0.2545 -0.2278  0.0908
  542ERGO    R1 8374  18.351  12.809   9.195 -0.1537 -0.0922  0.1043
  542ERGO    R2 8375  18.513  12.731   8.985 -0.1322 -0.0719  0.1172
  542ERGO    R3 8376  18.280  12.632   8.885 -0.1472  0.0676  0.0086
  542ERGO    R4 8377  18.448  12.679   8.649  0.0668 -0.1939  0.0960
  542ERGO    R5 8378  18.245  12.753   8.682  0.0994 -0.0063 -0.0843
  542ERGO    C1 8379  18.192  12.555   8.361  0.1682 -0.1339 -0.0183
  542ERGO    C2 8380  18.406  12.548   8.133 -0.0737  0.1210 -0.1212
  543ERGO   ROH 8381  15.416  18.601   6.168  0.1501  0.0958 -0.1104
  543ERGO    R1 8382  15.389  18.805   6.363  0.0801  0.0381 -0.0581
  543ERGO    R2 8383  15.163  18.832   6.520  0.0458 -0.0445 -0.0878
  543ERGO    R3 8384  15.343  18.822   6.723  0.0138 -0.0716 -0.0617
  543ERGO    R4 8385  15.084  18.864   6.854 -0.0131 -0.1807 -0.0883
  543ERGO    R5 8386  15.264  18.985   6.880 -0.0488 -0.1474 -0.0170
  543ERGO    C1 8387  15.207  18.874   7.241 -0.0773 -0.2854 -0.0641
  543ERGO    C2 8388  15.082  18.733   7.483 -0.4156 -0.0427  0.1687
  544ERGO   ROH 8389   7.211  14.020   7.287  0.1275  0.0589 -0.2384
  544ERGO    R1 8390   7.422  14.079   7.466  0.0843 -0.0246 -0.1592
  544ERGO    R2 8391   7.460  13.941   7.702 -0.0437 -0.0569 -0.1575
  544ERGO    R3 8392   7.711  13.904   7.602 -0.0196 -0.1295 -0.0718
  544ERGO    R4 8393   7.735  13.846   7.889 -0.0707  0.1544 -0.0062
  544ERGO    R5 8394   7.856  13.986   7.774 -0.0626  0.0555 -0.1220
  544ERGO    C1 8395   8.130  13.756   7.904 -0.0638  0.2091  0.1622
  544ERGO    C2 8396   8.396  13.526   7.933  0.0974  0.4235  0.0927
  545ERGO   ROH 8397  13.969  15.769   6.405 -0.0841  0.0926  0.0752
  545ERGO    R1 8398  13.827  15.936   6.583 -0.1855  0.0902 -0.0026
  545ERGO    R2 8399  13.555  15.980   6.561 -0.2357 -0.1873  0.0542
  545ERGO    R3 8400  13.554  15.899   6.821 -0.0713  0.0047  0.1174
  545ERGO    R4 8401  13.371  16.128   6.814 -0.2195 -0.1071  0.0188
  545ERGO    R5 8402  13.543  16.102   6.946 -0.1416  0.0978 -0.0325
  545ERGO    C1 8403  13.264  16.138   7.204 -0.0557  0.1200  0.0574
  545ERGO    C2 8404  12.987  16.296   7.326  0.2578 -0.1627  0.0091
  546ERGO   ROH 8405  14.663  13.524   6.206 -0.1803 -0.0059  0.0879
  546ERGO    R1 8406  14.611  13.391   6.451 -0.0932  0.0849  0.1550
  546ERGO    R2 8407  14.794  13.221   6.569 -0.0768  0.0896  0.1211
  546ERGO    R3 8408  14.757  13.384   6.784  0.0591  0.1603  0.0932
  546ERGO    R4 8409  14.910  13.155   6.888 -0.3486 -0.0976  0.1861
  546ERGO    R5 8410  14.722  13.233   6.967 -0.2826  0.2077  0.0807
  546ERGO    C1 8411  14.944  13.269   7.275 -0.3793 -0.1402  0.1978
  546ERGO    C2 8412  15.078  13.334   7.567 -0.0367  0.1609 -0.0069
  547ERGO   ROH 8413  12.966  12.645   9.663 -0.1308  0.2966  0.0224
  547ERGO    R1 8414  13.070  12.811   9.459 -0.2210  0.3411  0.0121
  547ERGO    R2 8415  13.127  12.718   9.205  0.1384  0.2742  0.1119
  547ERGO    R3 8416  12.965  12.923   9.129 -0.1250 -0.0202 -0.1451
  547ERGO    R4 8417  13.093  12.833   8.881  0.3839  0.1546  0.0410
  547ERGO    R5 8418  13.088  13.037   8.958 -0.0837  0.1684  0.0076
  547ERGO    C1 8419  12.920  13.092   8.621  0.2795 -0.1913 -0.2415
  547ERGO    C2 8420  12.911  13.052   8.389  0.1493  0.0078  0.2387
  548ERGO   ROH 8421  15.458  12.840   9.453 -0.1324 -0.1691 -0.2047
  548ERGO    R1 8422  15.388  12.974   9.215 -0.0500 -0.0184 -0.1457
  548ERGO    R2 8423  15.571  13.113   9.062  0.0074  0.0672 -0.0043
  548ERGO    R3 8424  15.478  12.954   8.863  0.0608  0.1916 -0.1300
  548ERGO    R4 8425  15.676  13.128   8.733  0.3226  0.0617  0.0920
  548ERGO    R5 8426  15.469  13.097   8.671  0.3541  0.2450 -0.1073
  548ERGO    C1 8427  15.649  12.986   8.354  0.5562  0.1753  0.0300
  548ERGO    C2 8428  15.788  12.887   7.987 -0.1222 -0.0109 -0.5307
  549ERGO   ROH 8429   5.346   4.053   6.031 -0.0159 -0.0460  0.1219
  549ERGO    R1 8430   5.400   4.059   6.309 -0.0171 -0.1702  0.1253
  549ERGO    R2 8431   5.600   3.908   6.425  0.1480 -0.0318  0.0210
  549ERGO    R3 8432   5.681   4.149   6.523 -0.1077 -0.0068  0.1787
  549ERGO    R4 8433   5.736   3.957   6.739  0.1312 -0.1081  0.0399
  549ERGO    R5 8434   5.620   4.141   6.755 -0.0757 -0.2425  0.1843
  549ERGO    C1 8435   5.891   4.211   7.014 -0.1188 -0.1288  0.1989
  549ERGO    C2 8436   6.217   4.141   7.196  0.0714 -0.0932  0.3206
  550ERGO   ROH 8437   4.361   9.583  10.005 -0.1087 -0.2324 -0.0908
  550ERGO    R1 8438   4.455   9.622   9.741  0.1755 -0.2064  0.0107
  550ERGO    R2 8439   4.568   9.419   9.592 -0.2048 -0.3527 -0.0919
  550ERGO    R3 8440   4.378   9.489   9.410  0.0799  0.2811 -0.1711
  550ERGO    R4 8441   4.592   9.363   9.252 -0.2526 -0.4448 -0.0804
  550ERGO    R5 8442   4.504   9.561   9.219  0.4072 -0.1328 -0.1246
  550ERGO    C1 8443   4.428   9.396   8.883 -0.0131  0.0964 -0.1482
  550ERGO    C2 8444   4.621   9.342   8.522  0.1031 -0.0891  0.2342
  551ERGO   ROH 8445   1.515  11.771   9.583  0.2893 -0.2173  0.0899
  551ERGO    R1 8446   1.537  11.814   9.304  0.0401 -0.0929  0.0858
  551ERGO    R2 8447   1.752  11.722   9.157  0.0220  0.1678 -0.1087
  551ERGO    R3 8448   1.558  11.607   9.005  0.0191  0.0342 -0.0049
  551ERGO    R4 8449   1.769  11.678   8.814 -0.1509  0.2316 -0.1263
  551ERGO    R5 8450   1.558  11.733   8.802 -0.2059  0.0661  0.0111
  551ERGO    C1 8451   1.596  11.544   8.473 -0.2543  0.1434 -0.0391
  551ERGO    C2 8452   1.645  11.621   8.152 -0.2196  0.1431 -0.1722
  552ERGO   ROH 8453  18.421  13.761   9.700 -0.0438  0.0919 -0.1541
  552ERGO    R1 8454  18.517  13.835   9.444 -0.0999  0.0660 -0.1825
  552ERGO    R2 8455  18.501  13.666   9.226 -0.1083  0.0268 -0.1508
  552ERGO    R3 8456  18.375  13.879   9.111 -0.1644 -0.0135 -0.1668
  552ERGO    R4 8457  18.413  13.687   8.892  0.0849  0.0668 -0.2004
  552ERGO    R5 8458  18.475  13.897   8.894 -0.0385  0.1058 -0.1020
  552ERGO    C1 8459  18.244  13.899   8.590  0.1449  0.0523 -0.2442
  552ERGO    C2 8460  18.145  13.707   8.320 -0.1733  0.0391  0.2570
  553ERGO   ROH 8461   4.787   1.291   5.902  0.0426 -0.1158 -0.0759
  553ERGO    R1 8462   4.716   1.119   6.115 -0.1098 -0.0371 -0.0617
  553ERGO    R2 8463   4.776   1.175   6.378  0.0013 -0.1013 -0.0750
  553ERGO    R3 8464   4.509   1.139   6.414 -0.0349  0.1928 -0.0219
  553ERGO    R4 8465   4.625   1.109   6.682  0.0814 -0.5349 -0.1231
  553ERGO    R5 8466   4.495   0.967   6.580 -0.1738 -0.1510 -0.3691
  553ERGO    C1 8467   4.286   1.037   6.892  0.0940 -0.5112 -0.1012
  553ERGO    C2 8468   4.252   0.992   7.153  0.0790  0.1523  0.2468
  554ERGO   ROH 8469  12.183  14.774   9.796  0.1674  0.0748 -0.0480
  554ERGO    R1 8470  12.298  14.709   9.546 -0.0191  0.0185 -0.1215
  554ERGO    R2 8471  12.150  14.699   9.312 -0.1341  0.3021 -0.0696
  554ERGO    R3 8472  12.339  14.873   9.224  0.0609  0.0930 -0.0728
  554ERGO    R4 8473  12.232  14.749   8.981 -0.1446  0.2815 -0.0750
  554ERGO    R5 8474  12.442  14.760   9.039 -0.1171  0.0115 -0.1211
  554ERGO    C1 8475  12.457  14.941   8.704  0.0326  0.0732 -0.0811
  554ERGO    C2 8476  12.529  15.031   8.386 -0.2943 -0.0250  0.0051
  555ERGO   ROH 8477   2.232   9.512   6.426 -0.1803  0.0697  0.2249
  555ERGO    R1 8478   2.337   9.473   6.686 -0.0962  0.1069  0.1977
  555ERGO    R2 8479   2.420   9.683   6.846 -0.1903  0.1442  0.2045
  555ERGO    R3 8480   2.248   9.572   7.025 -0.0831  0.0151  0.2271
  555ERGO    R4 8481   2.473   9.666   7.187 -0.1416  0.1928  0.1987
  555ERGO    R5 8482   2.389   9.465   7.185  0.0157  0.1300  0.2142
  555ERGO    C1 8483   2.342   9.551   7.554 -0.0127  0.0998  0.2165
  555ERGO    C2 8484   2.151   9.666   7.820  0.2616  0.0287 -0.1479
  556ERGO   ROH 8485   2.063  13.153   9.522 -0.0060  0.1581 -0.0246
  556ERGO    R1 8486   1.891  13.122   9.298 -0.1002  0.3758  0.0152
  556ERGO    R2 8487   1.842  13.328   9.120  0.3376  0.3693 -0.1265
  556ERGO    R3 8488   1.923  13.144   8.936 -0.0802  0.0483 -0.0059
  556ERGO    R4 8489   1.788  13.351   8.779  0.2170  0.1606 -0.1228
  556ERGO    R5 8490   1.746  13.137   8.776 -0.1751  0.2252  0.0881
  556ERGO    C1 8491   1.833  13.192   8.409 -0.2454 -0.2623 -0.0075
  556ERGO    C2 8492   1.822  13.446   8.209 -0.0047  0.2589 -0.1813
  557ERGO   ROH 8493   7.397  11.066   6.781 -0.1793 -0.1777 -0.0291
  557ERGO    R1 8494   7.403  10.919   7.023 -0.0377 -0.0651  0.0355
  557ERGO    R2 8495   7.598  10.731   7.078  0.1262  0.1343  0.1087
  557ERGO    R3 8496   7.632  10.880   7.303  0.0102  0.2569  0.0487
  557ERGO    R4 8497   7.734  10.614   7.373 -0.0781  0.2594  0.2566
  557ERGO    R5 8498   7.584  10.729   7.482 -0.1345  0.3539  0.1031
  557ERGO    C1 8499   7.846  10.686   7.756 -0.3059  0.4473  0.2864
  557ERGO    C2 8500   8.182  10.600   8.014  0.1354  0.4816 -0.0496
  558ERGO   ROH 8501   2.570   4.168   5.969  0.3490  0.3129  0.1568
  558ERGO    R1 8502   2.362   4.214   6.156  0.1931  0.3259 -0.0190
  558ERGO    R2 8503   2.367   4.111   6.412 -0.1313  0.1465 -0.0842
  558ERGO    R3 8504   2.328   4.371   6.482 -0.0263  0.1253  0.0599
  558ERGO    R4 8505   2.341   4.225   6.737 -0.1863 -0.0497 -0.0178
  558ERGO    R5 8506   2.182   4.360   6.672 -0.1018  0.0741  0.0050
  558ERGO    C1 8507   2.290   4.536   6.992 -0.1198 -0.1838  0.1561
  558ERGO    C2 8508   2.253   4.702   7.326  0.0861  0.0053 -0.4268
  559ERGO   ROH 8509   9.917   7.838   6.069  0.0663 -0.1502  0.1049
  559ERGO    R1 8510   9.883   7.815   6.349 -0.0546 -0.2220  0.0849
  559ERGO    R2 8511   9.684   7.949   6.486  0.0267 -0.0782  0.0630
  559ERGO    R3 8512   9.622   7.699   6.575 -0.2493 -0.0533 -0.0496
  559ERGO    R4 8513   9.547   7.879   6.795  0.2860 -0.0883  0.1786
  559ERGO    R5 8514   9.678   7.704   6.808  0.0407 -0.3054 -0.1065
  559ERGO    C1 8515   9.409   7.604   7.059  0.1778 -0.0708  0.1402
  559ERGO    C2 8516   9.343   7.677   7.430  0.0752  0.1120  0.1580
  560ERGO   ROH 8517  18.093  10.340   6.183  0.0173  0.1715 -0.1382
  560ERGO    R1 8518  18.141  10.265   6.452 -0.2010  0.1115 -0.1146
  560ERGO    R2 8519  18.333  10.387   6.609 -0.1070 -0.1384 -0.0348
  560ERGO    R3 8520  18.123  10.425   6.778 -0.1349  0.1415 -0.1248
  560ERGO    R4 8521  18.360  10.495   6.936 -0.1165 -0.0187 -0.0721
  560ERGO    R5 8522  18.205  10.352   6.991 -0.2791  0.1534 -0.0615
  560ERGO    C1 8523  18.180  10.592   7.286 -0.1482  0.3138 -0.1782
  560ERGO    C2 8524  18.068  10.549   7.556 -0.3185 -0.0960 -0.1422
  561ERGO   ROH 8525   8.748  14.573   6.415  0.2691  0.1168 -0.0302
  561ERGO    R1 8526   8.874  14.646   6.658  0.0813  0.4404 -0.0252
  561ERGO    R2 8527   8.773  14.842   6.825 -0.5617  0.0437  0.0838
  561ERGO    R3 8528   8.787  14.645   7.012  0.1442 -0.0146 -0.0055
  561ERGO    R4 8529   8.731  14.888   7.165 -0.7921 -0.2589  0.1013
  561ERGO    R5 8530   8.895  14.748   7.199 -0.2540  0.3135  0.0561
  561ERGO    C1 8531   8.721  14.730   7.538 -0.2636 -0.4897  0.0276
  561ERGO    C2 8532   8.573  14.747   7.791 -0.1471  0.0033 -0.2771
  562ERGO   ROH 8533   2.880   0.980   9.001  0.1747  0.1199 -0.0733
  562ERGO    R1 8534   2.887   0.961   8.719  0.0612  0.2121 -0.0861
  562ERGO    R2 8535   2.863   1.182   8.554  0.1867  0.3013 -0.0084
  562ERGO    R3 8536   3.097   1.090   8.451  0.0796  0.1367 -0.1038
  562ERGO    R4 8537   2.993   1.275   8.248  0.0553  0.0561 -0.1392
  562ERGO    R5 8538   3.054   1.068   8.216 -0.0626  0.0208 -0.0586
  562ERGO    C1 8539   3.288   1.243   7.973 -0.1218 -0.2412 -0.3049
  562ERGO    C2 8540   3.387   1.506   7.922 -0.0583 -0.0976  0.0994
  563ERGO   ROH 8541  15.562  17.646   5.929  0.4066 -0.2447 -0.0756
  563ERGO    R1 8542  15.508  17.636   6.207  0.4232 -0.1064 -0.0668
  563ERGO    R2 8543  15.696  17.705   6.398  0.3688  0.1848 -0.1166
  563ERGO    R3 8544  15.500  17.872   6.484  0.2247  0.0727 -0.2217
  563ERGO    R4 8545  15.654  17.809   6.725  0.0776  0.0831 -0.1187
  563ERGO    R5 8546  15.439  17.787   6.699  0.1030 -0.0116 -0.2863
  563ERGO    C1 8547  15.445  18.027   6.995 -0.2272 -0.0814 -0.2187
  563ERGO    C2 8548  15.312  18.141   7.316  0.2661 -0.0163 -0.1156
  564ERGO   ROH 8549   2.815  18.583   9.148  0.2428 -0.2696  0.2013
  564ERGO    R1 8550   2.778  18.655   8.877  0.2232 -0.1356  0.2386
  564ERGO    R2 8551   2.981  18.760   8.721  0.2402 -0.1605  0.2446
  564ERGO    R3 8552   2.916  18.555   8.555  0.1163 -0.0590  0.1674
  564ERGO    R4 8553   3.041  18.754   8.381  0.2446 -0.0609  0.2444
  564ERGO    R5 8554   2.845  18.662   8.353  0.1845  0.0668  0.2063
  564ERGO    C1 8555   3.014  18.559   8.027  0.1308  0.0926  0.1715
  564ERGO    C2 8556   3.028  18.398   7.646  0.0045 -0.0200 -0.3629
  565ERGO   ROH 8557   1.176  18.313   9.295 -0.1179  0.1585  0.1947
  565ERGO    R1 8558   1.184  18.531   9.114  0.0894  0.0943  0.1223
  565ERGO    R2 8559   1.395  18.573   8.941  0.1253 -0.1747  0.0881
  565ERGO    R3 8560   1.199  18.574   8.753  0.1075 -0.0426  0.1077
  565ERGO    R4 8561   1.445  18.622   8.603  0.0764  0.1163  0.1214
  565ERGO    R5 8562   1.265  18.744   8.598  0.0638  0.0937  0.2423
  565ERGO    C1 8563   1.290  18.651   8.229  0.0314  0.4097  0.1592
  565ERGO    C2 8564   1.249  18.855   7.873  0.2295  0.3014 -0.2857
  566ERGO   ROH 8565  11.183   9.004   6.329  0.1428 -0.2314  0.2157
  566ERGO    R1 8566  11.198   9.234   6.493  0.0317 -0.1274  0.0823
  566ERGO    R2 8567  10.992   9.311   6.661 -0.0460 -0.0715 -0.0368
  566ERGO    R3 8568  11.188   9.305   6.850 -0.1109  0.0870  0.0373
  566ERGO    R4 8569  10.971   9.458   6.973 -0.2665 -0.0549 -0.0578
  566ERGO    R5 8570  11.178   9.521   6.953 -0.3031  0.0911  0.0137
  566ERGO    C1 8571  11.142   9.538   7.332 -0.4559  0.1036 -0.0004
  566ERGO    C2 8572  11.145   9.512   7.616 -0.1635  0.3074  0.0443
  567ERGO   ROH 8573   9.207  16.837   9.483  0.1251  0.0449 -0.0350
  567ERGO    R1 8574   9.326  16.862   9.227  0.1141 -0.1554 -0.0598
  567ERGO    R2 8575   9.322  16.658   9.041 -0.1838 -0.1858 -0.0197
  567ERGO    R3 8576   9.214  16.849   8.881  0.0367 -0.0722 -0.0395
  567ERGO    R4 8577   9.361  16.672   8.698 -0.2485 -0.3306 -0.0349
  567ERGO    R5 8578   9.382  16.889   8.715  0.0567 -0.3475 -0.0943
  567ERGO    C1 8579   9.282  16.860   8.348 -0.0790 -0.3083 -0.0624
  567ERGO    C2 8580   9.231  16.959   7.916 -0.2131  0.1546  0.0969
  568ERGO   ROH 8581   6.888  17.332   9.244 -0.0076 -0.1975 -0.1131
  568ERGO    R1 8582   6.989  17.410   8.991  0.0457 -0.0433 -0.0461
  568ERGO    R2 8583   6.911  17.286   8.756  0.2318 -0.0228 -0.1217
  568ERGO    R3 8584   6.850  17.540   8.680  0.0833 -0.0397 -0.0608
  568ERGO    R4 8585   6.958  17.415   8.439  0.1944  0.0968 -0.0793
  568ERGO    R5 8586   7.026  17.601   8.529  0.0647  0.1134 -0.0199
  568ERGO    C1 8587   6.928  17.728   8.183  0.0332  0.1506  0.0027
  568ERGO    C2 8588   6.711  17.801   7.774 -0.2375  0.1109  0.1504
  569ERGO   ROH 8589   6.855  16.132   9.661 -0.0763 -0.1248 -0.0213
  569ERGO    R1 8590   6.587  16.133   9.571 -0.0986 -0.1382  0.0429
  569ERGO    R2 8591   6.516  16.055   9.315 -0.1451 -0.0467  0.0247
  569ERGO    R3 8592   6.349  15.887   9.448 -0.0790 -0.1339 -0.0019
  569ERGO    R4 8593   6.208  15.950   9.198 -0.2241  0.0652  0.1308
  569ERGO    R5 8594   6.130  15.972   9.401 -0.1014 -0.0815  0.1938
  569ERGO    C1 8595   5.872  15.731   9.255 -0.2081  0.0484  0.1674
  569ERGO    C2 8596   5.686  15.600   9.176 -0.1353 -0.1830  0.0783
  570ERGO   ROH 8597  15.848  13.088   6.289 -0.1616 -0.0894 -0.1642
  570ERGO    R1 8598  15.867  12.907   6.506  0.1347 -0.0567 -0.1589
  570ERGO    R2 8599  16.039  12.947   6.719 -0.0038  0.2891 -0.1056
  570ERGO    R3 8600  15.811  12.918   6.865  0.0003 -0.1644 -0.1757
  570ERGO    R4 8601  16.027  12.857   7.052  0.0755  0.2982 -0.1004
  570ERGO    R5 8602  15.855  12.732   7.008  0.3407 -0.0659 -0.1433
  570ERGO    C1 8603  15.807  12.777   7.383  0.1253 -0.1221 -0.1631
  570ERGO    C2 8604  15.622  12.636   7.658  0.0042 -0.3818  0.2759
  571ERGO   ROH 8605   4.401   2.800   6.034 -0.0637 -0.0014  0.0327
  571ERGO    R1 8606   4.569   2.799   6.262 -0.1035  0.0617  0.0629
  571ERGO    R2 8607   4.482   2.880   6.511 -0.1812  0.0225  0.0500
  571ERGO    R3 8608   4.572   2.635   6.587 -0.0965  0.0565  0.0599
  571ERGO    R4 8609   4.506   2.770   6.838 -0.1438  0.0430  0.0539
  571ERGO    R5 8610   4.696   2.676   6.787 -0.1115  0.1067  0.0583
  571ERGO    C1 8611   4.605   2.477   7.099 -0.0427  0.0869  0.0655
  571ERGO    C2 8612   4.615   2.566   7.453  0.0073  0.1932  0.2651
  572ERGO   ROH 8613   9.721  17.676   6.086 -0.1572  0.0615 -0.0616
  572ERGO    R1 8614   9.847  17.537   6.298 -0.1323 -0.0237 -0.1315
  572ERGO    R2 8615   9.861  17.639   6.555  0.2733  0.0722 -0.1852
  572ERGO    R3 8616   9.748  17.401   6.621  0.0022  0.2556  0.0315
  572ERGO    R4 8617   9.926  17.464   6.846  0.2978  0.1220 -0.1607
  572ERGO    R5 8618   9.924  17.279   6.729 -0.0632  0.0643 -0.0734
  572ERGO    C1 8619   9.857  17.139   7.078  0.0574  0.3231  0.0570
  572ERGO    C2 8620  10.011  17.005   7.300  0.0306  0.0633 -0.0261
  573ERGO   ROH 8621   9.327   5.016   6.448  0.0838  0.0335  0.1769
  573ERGO    R1 8622   9.175   5.105   6.670 -0.1044 -0.2354  0.1619
  573ERGO    R2 8623   9.069   4.932   6.857  0.3817 -0.4294  0.2761
  573ERGO    R3 8624   9.203   5.092   7.032  0.0281  0.0242  0.1653
  573ERGO    R4 8625   8.978   4.984   7.187  0.1397 -0.2031  0.1781
  573ERGO    R5 8626   9.030   5.194   7.163 -0.2227 -0.1217 -0.0365
  573ERGO    C1 8627   9.051   5.164   7.543 -0.3331  0.3544  0.0170
  573ERGO    C2 8628   8.942   5.253   7.927  0.4246  0.0750  0.0092
  574ERGO   ROH 8629  10.137   9.730   9.661  0.0424  0.0910  0.1382
  574ERGO    R1 8630  10.163   9.863   9.413  0.0515  0.1106  0.1501
  574ERGO    R2 8631  10.380   9.825   9.246  0.0761  0.1545  0.1744
  574ERGO    R3 8632  10.187   9.768   9.063  0.1077  0.1375  0.1461
  574ERGO    R4 8633  10.422   9.843   8.904  0.1361  0.1294  0.1802
  574ERGO    R5 8634  10.222   9.928   8.888  0.1361  0.1258  0.1395
  574ERGO    C1 8635  10.266   9.800   8.532  0.2007  0.0987  0.1568
  574ERGO    C2 8636  10.382   9.894   8.118 -0.3079 -0.1222 -0.0641
  575ERGO   ROH 8637   3.075   8.167  10.123 -0.0856 -0.2879 -0.2260
  575ERGO    R1 8638   3.117   8.265   9.861 -0.2745 -0.0566 -0.1740
  575ERGO    R2 8639   2.986   8.488   9.762 -0.0722  0.2678  0.2542
  575ERGO    R3 8640   3.238   8.573   9.710  0.0102 -0.0614  0.0301
  575ERGO    R4 8641   3.088   8.634   9.466 -0.2195  0.3746  0.2549
  575ERGO    R5 8642   3.273   8.520   9.479 -0.3536  0.0762 -0.0693
  575ERGO    C1 8643   3.384   8.799   9.245 -0.2280  0.1277  0.0449
  575ERGO    C2 8644   3.349   8.926   8.948 -0.3636  0.4500 -0.2862
  576ERGO   ROH 8645   4.841  14.370   9.336 -0.0089 -0.1407 -0.1083
  576ERGO    R1 8646   5.017  14.332   9.118 -0.1544 -0.2692 -0.2045
  576ERGO    R2 8647   4.928  14.270   8.863 -0.3600  0.0513 -0.2141
  576ERGO    R3 8648   5.074  14.488   8.794 -0.0356 -0.1272 -0.1176
  576ERGO    R4 8649   5.015  14.354   8.540 -0.4129  0.1672 -0.1993
  576ERGO    R5 8650   5.212  14.413   8.613 -0.2641 -0.2166 -0.2617
  576ERGO    C1 8651   5.203  14.608   8.286 -0.1391  0.0671 -0.0998
  576ERGO    C2 8652   5.166  14.947   8.044  0.0431 -0.0775 -0.0506
  577ERGO   ROH 8653  16.610  17.734   5.926  0.1606  0.1607  0.1398
  577ERGO    R1 8654  16.708  17.776   6.188  0.1003  0.2606  0.1472
  577ERGO    R2 8655  16.637  17.995   6.340 -0.1885  0.1565  0.1697
  577ERGO    R3 8656  16.567  17.805   6.522  0.0496  0.0426  0.1460
  577ERGO    R4 8657  16.639  18.040   6.683 -0.1461  0.0793  0.1796
  577ERGO    R5 8658  16.719  17.838   6.704  0.0635  0.1550  0.1133
  577ERGO    C1 8659  16.574  17.888   7.053  0.1022 -0.0726  0.1629
  577ERGO    C2 8660  16.751  17.993   7.410  0.2236 -0.2683 -0.1446
  578ERGO   ROH 8661   4.135   7.717   6.374  0.0394  0.0905 -0.0196
  578ERGO    R1 8662   4.016   7.618   6.611  0.1544 -0.0865 -0.0345
  578ERGO    R2 8663   4.158   7.477   6.801  0.3737  0.2259  0.0376
  578ERGO    R3 8664   4.060   7.667   6.969 -0.0446  0.0813 -0.0302
  578ERGO    R4 8665   4.001   7.413   7.103  0.5435 -0.0147  0.0788
  578ERGO    R5 8666   3.859   7.571   7.057  0.1708 -0.3469  0.0269
  578ERGO    C1 8667   3.818   7.555   7.435  0.2496 -0.2903  0.0392
  578ERGO    C2 8668   3.535   7.562   7.611 -0.3639  0.1638  0.2108
  579ERGO   ROH 8669  18.561   7.250   5.949 -0.1035  0.1787 -0.0028
  579ERGO    R1 8670  18.754   7.095   6.085  0.0267  0.1671 -0.1950
  579ERGO    R2 8671  19.013   7.183   6.127 -0.0578  0.3625 -0.0299
  579ERGO    R3 8672  18.955   7.128   6.387 -0.0559 -0.0650 -0.1140
  579ERGO    R4 8673  19.248   7.139   6.376 -0.0684  0.2789 -0.0358
  579ERGO    R5 8674  19.127   6.976   6.455  0.0977  0.0317 -0.2875
  579ERGO    C1 8675  19.331   7.062   6.766 -0.0729 -0.1712 -0.1181
  579ERGO    C2 8676  19.453   7.263   7.035 -0.0439  0.1429  0.0460
  580ERGO   ROH 8677  13.588   2.101   5.819  0.0663 -0.0620 -0.0568
  580ERGO    R1 8678  13.710   2.178   6.062  0.0125  0.1719 -0.1003
  580ERGO    R2 8679  13.686   2.432   6.167 -0.2764  0.1885 -0.1869
  580ERGO    R3 8680  13.599   2.298   6.387 -0.0887  0.1565 -0.1308
  580ERGO    R4 8681  13.665   2.566   6.485 -0.1907  0.1894 -0.1816
  580ERGO    R5 8682  13.739   2.377   6.565 -0.0466  0.2411 -0.2071
  580ERGO    C1 8683  13.571   2.519   6.877  0.0354  0.1598 -0.1259
  580ERGO    C2 8684  13.407   2.435   7.203 -0.0378 -0.0868  0.3093
  581ERGO   ROH 8685   2.347  17.481   8.967 -0.0143  0.0236  0.0044
  581ERGO    R1 8686   2.402  17.647   8.745 -0.0442 -0.0429 -0.0535
  581ERGO    R2 8687   2.513  17.551   8.511 -0.0032 -0.1010 -0.0122
  581ERGO    R3 8688   2.295  17.669   8.398 -0.0290 -0.1998 -0.0683
  581ERGO    R4 8689   2.480  17.626   8.175  0.0449 -0.1152 -0.0202
  581ERGO    R5 8690   2.386  17.814   8.231 -0.0546 -0.1585 -0.0450
  581ERGO    C1 8691   2.257  17.779   7.874  0.0487 -0.2161 -0.0775
  581ERGO    C2 8692   2.049  17.793   7.507 -0.1724 -0.0832 -0.2207
  582ERGO   ROH 8693  18.636   5.145   9.284  0.3426 -0.0393 -0.0574
  582ERGO    R1 8694  18.610   5.162   9.003  0.2877  0.0486 -0.0466
  582ERGO    R2 8695  18.444   5.345   8.880  0.1577 -0.0088  0.0495
  582ERGO    R3 8696  18.671   5.413   8.747  0.0941  0.1805  0.0324
  582ERGO    R4 8697  18.459   5.430   8.545  0.0632 -0.0430  0.0356
  582ERGO    R5 8698  18.644   5.316   8.529  0.1717  0.1209  0.0459
  582ERGO    C1 8699  18.681   5.544   8.225 -0.0514  0.1148  0.0114
  582ERGO    C2 8700  18.550   5.571   8.010  0.0789  0.0557 -0.2160
  583ERGO   ROH 8701  18.012   6.519   9.430  0.2568 -0.0519 -0.0236
  583ERGO    R1 8702  17.875   6.673   9.236  0.0170 -0.1857  0.0356
  583ERGO    R2 8703  18.006   6.805   9.031 -0.1794  0.1200  0.1011
  583ERGO    R3 8704  17.833   6.666   8.874  0.0540 -0.0964  0.0292
  583ERGO    R4 8705  17.974   6.845   8.690 -0.0893  0.0788  0.0873
  583ERGO    R5 8706  17.758   6.826   8.713 -0.0783 -0.1881 -0.0014
  583ERGO    C1 8707  17.793   6.737   8.343  0.1826 -0.1484  0.0118
  583ERGO    C2 8708  17.792   6.621   8.090  0.1411 -0.0735 -0.0318
  584ERGO   ROH 8709  12.722   2.637   5.982 -0.2066  0.1740 -0.0382
  584ERGO    R1 8710  12.761   2.661   6.262 -0.0127  0.2583 -0.0697
  584ERGO    R2 8711  12.746   2.903   6.394 -0.2597  0.2576 -0.0833
  584ERGO    R3 8712  12.564   2.772   6.547  0.0517  0.0019  0.0762
  584ERGO    R4 8713  12.646   3.002   6.709 -0.1255  0.1125  0.0049
  584ERGO    R5 8714  12.649   2.793   6.770  0.2165  0.1138  0.0029
  584ERGO    C1 8715  12.417   2.936   7.038  0.2449 -0.2120  0.2060
  584ERGO    C2 8716  12.346   2.871   7.510  0.1375  0.2071 -0.0231
  585ERGO   ROH 8717   0.743   3.108   9.195  0.2982 -0.2287 -0.0361
  585ERGO    R1 8718   0.622   2.959   8.987  0.1878 -0.1621 -0.0207
  585ERGO    R2 8719   0.358   2.994   8.913  0.1429 -0.1463  0.1375
  585ERGO    R3 8720   0.466   3.031   8.666  0.0058 -0.0570  0.0901
  585ERGO    R4 8721   0.177   3.037   8.621 -0.0178 -0.1659  0.2335
  585ERGO    R5 8722   0.321   2.911   8.518 -0.0176 -0.0877  0.1396
  585ERGO    C1 8723   0.173   3.097   8.220 -0.2400 -0.0934  0.2450
  585ERGO    C2 8724   0.021   3.277   7.918  0.0465 -0.1423  0.3139
  586ERGO   ROH 8725   4.188   6.036   6.009  0.0965  0.1586 -0.0486
  586ERGO    R1 8726   4.279   5.949   6.262  0.2939  0.2468 -0.0873
  586ERGO    R2 8727   4.386   6.121   6.449 -0.0879  0.4107 -0.0157
  586ERGO    R3 8728   4.195   6.013   6.610  0.1435 -0.0902 -0.0559
  586ERGO    R4 8729   4.416   6.081   6.791 -0.1719  0.8455  0.0489
  586ERGO    R5 8730   4.318   5.886   6.772  0.4851  0.4681  0.1557
  586ERGO    C1 8731   4.254   5.956   7.141 -0.0035  0.6285  0.0487
  586ERGO    C2 8732   4.378   6.002   7.352 -0.0369 -0.0658  0.1412
  587ERGO   ROH 8733  16.401  12.124   9.664 -0.0167  0.0089 -0.0641
  587ERGO    R1 8734  16.295  12.136   9.402 -0.0388  0.0705 -0.0531
  587ERGO    R2 8735  16.233  12.375   9.277 -0.0120  0.1039 -0.0086
  587ERGO    R3 8736  16.397  12.278   9.082 -0.0434  0.1087 -0.0367
  587ERGO    R4 8737  16.234  12.480   8.947 -0.0418  0.1267 -0.0010
  587ERGO    R5 8738  16.260  12.273   8.886 -0.0640  0.1329 -0.0202
  587ERGO    C1 8739  16.388  12.450   8.573 -0.0885  0.1444 -0.0230
  587ERGO    C2 8740  16.324  12.691   8.319  0.0093  0.5436 -0.1171
  588ERGO   ROH 8741   8.460   1.340   6.206  0.1817 -0.0337  0.0865
  588ERGO    R1 8742   8.315   1.216   6.416  0.1662 -0.2428 -0.0437
  588ERGO    R2 8743   8.377   0.964   6.511  0.4258 -0.1729 -0.0103
  588ERGO    R3 8744   8.388   1.092   6.750  0.0531 -0.1666  0.0088
  588ERGO    R4 8745   8.395   0.807   6.818  0.4670 -0.1622 -0.0078
  588ERGO    R5 8746   8.256   0.956   6.897  0.1696 -0.3889 -0.0913
  588ERGO    C1 8747   8.415   0.837   7.222  0.1412 -0.1501  0.0117
  588ERGO    C2 8748   8.706   0.763   7.460  0.1770 -0.0366 -0.0284
  589ERGO   ROH 8749  16.239   1.192   9.389  0.2197  0.0562  0.0572
  589ERGO    R1 8750  16.104   1.362   9.207  0.0469 -0.0738  0.0604
  589ERGO    R2 8751  16.238   1.523   9.026 -0.1141  0.0629  0.0574
  589ERGO    R3 8752  16.081   1.396   8.845  0.0076 -0.0947  0.0614
  589ERGO    R4 8753  16.201   1.618   8.696 -0.2867  0.0823  0.0820
  589ERGO    R5 8754  15.989   1.572   8.712 -0.2308 -0.1794  0.1108
  589ERGO    C1 8755  16.032   1.553   8.333 -0.2728 -0.0543  0.1000
  589ERGO    C2 8756  16.219   1.558   8.043  0.1860 -0.1339  0.0046
  590ERGO   ROH 8757   8.512  16.678   6.005 -0.0806  0.0294 -0.0438
  590ERGO    R1 8758   8.470  16.651   6.284  0.0157 -0.1186 -0.0430
  590ERGO    R2 8759   8.677  16.609   6.462  0.1236  0.1802 -0.0978
  590ERGO    R3 8760   8.573  16.828   6.585 -0.2242 -0.0242 -0.0127
  590ERGO    R4 8761   8.650  16.649   6.804  0.4138  0.1450 -0.0677
  590ERGO    R5 8762   8.454  16.739   6.773  0.1667 -0.2777  0.1323
  590ERGO    C1 8763   8.536  16.877   7.119  0.2564 -0.0673  0.0296
  590ERGO    C2 8764   8.487  17.026   7.418 -0.2066  0.1567  0.0758
  591ERGO   ROH 8765  10.662  11.506  10.144 -0.0609  0.0042 -0.0082
  591ERGO    R1 8766  10.647  11.616   9.883  0.0295 -0.0051 -0.0171
  591ERGO    R2 8767  10.863  11.741   9.762  0.0972 -0.0876  0.0192
  591ERGO    R3 8768  10.814  11.561   9.565  0.0738 -0.0807  0.0183
  591ERGO    R4 8769  10.944  11.786   9.430 -0.0496 -0.0216 -0.0088
  591ERGO    R5 8770  10.754  11.695   9.376 -0.0446 -0.0757  0.0573
  591ERGO    C1 8771  10.946  11.643   9.050 -0.1570  0.0234 -0.0260
  591ERGO    C2 8772  10.921  11.517   8.768  0.2352  0.1563  0.0491
  592ERGO   ROH 8773  14.752  17.038   9.494 -0.1165  0.0537  0.0945
  592ERGO    R1 8774  14.754  16.795   9.349  0.0214  0.0316  0.1325
  592ERGO    R2 8775  14.701  16.783   9.078 -0.1144 -0.0570  0.1634
  592ERGO    R3 8776  14.941  16.656   9.070 -0.0035  0.1533  0.0542
  592ERGO    R4 8777  14.791  16.546   8.843 -0.1050 -0.1508  0.2606
  592ERGO    R5 8778  14.888  16.432   9.002  0.1362  0.0516  0.2662
  592ERGO    C1 8779  15.069  16.288   8.699  0.0048 -0.0079  0.2144
  592ERGO    C2 8780  15.070  16.146   8.360  0.0279 -0.2422  0.0463
  593ERGO   ROH 8781  16.244  14.328   9.241 -0.3186 -0.2078 -0.0361
  593ERGO    R1 8782  16.119  14.363   8.990 -0.1244 -0.0046 -0.1085
  593ERGO    R2 8783  16.210  14.545   8.802  0.2556 -0.1213 -0.0499
  593ERGO    R3 8784  16.213  14.326   8.640  0.0272 -0.1211 -0.0556
  593ERGO    R4 8785  16.100  14.540   8.474  0.1254 -0.0365 -0.0072
  593ERGO    R5 8786  16.012  14.344   8.512 -0.0074  0.0315  0.0223
  593ERGO    C1 8787  16.038  14.332   8.132 -0.1649  0.0130  0.0123
  593ERGO    C2 8788  15.918  14.211   7.776 -0.0180 -0.2631  0.0229
  594ERGO   ROH 8789   7.549  15.181   9.645  0.1861  0.3436 -0.0778
  594ERGO    R1 8790   7.661  15.060   9.414  0.1450  0.1766 -0.0116
  594ERGO    R2 8791   7.555  14.832   9.300  0.0394  0.1736  0.0890
  594ERGO    R3 8792   7.552  14.985   9.075  0.1352  0.0692  0.0150
  594ERGO    R4 8793   7.628  14.717   8.982 -0.0117 -0.0195  0.1454
  594ERGO    R5 8794   7.736  14.904   8.945  0.0951 -0.0970  0.0600
  594ERGO    C1 8795   7.667  14.795   8.586  0.0485 -0.2299  0.1086
  594ERGO    C2 8796   7.645  14.728   8.292  0.2531 -0.2704 -0.2633
  595ERGO   ROH 8797   3.705   4.504   9.332 -0.0354 -0.1144 -0.0135
  595ERGO    R1 8798   3.543   4.473   9.102 -0.1364  0.1814  0.0126
  595ERGO    R2 8799   3.472   4.686   8.940  0.2338  0.3193  0.0177
  595ERGO    R3 8800   3.579   4.531   8.744 -0.0832  0.1071  0.0064
  595ERGO    R4 8801   3.416   4.729   8.602  0.1409  0.3090  0.0318
  595ERGO    R5 8802   3.404   4.512   8.581 -0.1875  0.3186  0.0926
  595ERGO    C1 8803   3.484   4.608   8.221 -0.2109  0.1038  0.0293
  595ERGO    C2 8804   3.564   4.721   7.978  0.0984 -0.4005  0.4033
  596ERGO   ROH 8805   7.959  12.795   9.789 -0.0658  0.0516 -0.2353
  596ERGO    R1 8806   7.998  12.842   9.513  0.0534  0.0198 -0.2246
  596ERGO    R2 8807   8.184  12.704   9.363  0.0466 -0.0713 -0.1520
  596ERGO    R3 8808   7.970  12.651   9.205  0.0776  0.0154 -0.2236
  596ERGO    R4 8809   8.202  12.614   9.030  0.1169 -0.0495 -0.1541
  596ERGO    R5 8810   8.030  12.742   8.991  0.1735  0.0120 -0.1973
  596ERGO    C1 8811   8.012  12.512   8.687  0.1870  0.0446 -0.2224
  596ERGO    C2 8812   8.174  12.313   8.409  0.1488 -0.1679 -0.0349
  597ERGO   ROH 8813  13.536   7.979   6.112 -0.0015 -0.1941 -0.1129
  597ERGO    R1 8814  13.330   7.847   6.254 -0.1999  0.1271 -0.0933
  597ERGO    R2 8815  13.381   7.658   6.449 -0.4675 -0.2053 -0.3411
  597ERGO    R3 8816  13.223   7.819   6.600  0.0162  0.0065 -0.0324
  597ERGO    R4 8817  13.231   7.565   6.746 -0.4263 -0.1921 -0.3145
  597ERGO    R5 8818  13.052   7.674   6.684 -0.2507  0.2892 -0.0542
  597ERGO    C1 8819  12.994   7.663   7.061  0.0519  0.0145 -0.0092
  597ERGO    C2 8820  12.835   7.524   7.301 -0.3320  0.1374  0.2865
  598ERGO   ROH 8821   9.236  11.595   6.427  0.0620  0.3955 -0.0091
  598ERGO    R1 8822   9.348  11.692   6.668  0.1037  0.1887  0.0578
  598ERGO    R2 8823   9.197  11.816   6.863  0.1740  0.2351  0.0881
  598ERGO    R3 8824   9.308  11.627   7.024 -0.0222  0.0611  0.0202
  598ERGO    R4 8825   9.145  11.791   7.204  0.0916  0.1188  0.0664
  598ERGO    R5 8826   9.356  11.742   7.228  0.0437 -0.0789  0.0831
  598ERGO    C1 8827   9.219  11.598   7.553 -0.1405 -0.1122 -0.0099
  598ERGO    C2 8828   9.355  11.364   7.848 -0.2041 -0.2005 -0.2930
  599ERGO   ROH 8829  14.890  16.849   5.950 -0.2245  0.0010  0.0705
  599ERGO    R1 8830  15.003  16.766   6.196 -0.1635 -0.0331  0.0326
  599ERGO    R2 8831  15.024  16.934   6.414  0.0196 -0.0177  0.0112
  599ERGO    R3 8832  14.891  16.734   6.541 -0.0373  0.0663  0.0819
  599ERGO    R4 8833  15.012  16.892   6.757  0.0463  0.0696  0.0222
  599ERGO    R5 8834  15.032  16.677   6.725 -0.0395  0.0587  0.0763
  599ERGO    C1 8835  14.880  16.679   7.075  0.0082  0.1992  0.0952
  599ERGO    C2 8836  14.747  16.751   7.444 -0.2183 -0.1359  0.2475
  600ERGO   ROH 8837  10.333   6.857   6.258  0.1488 -0.0305  0.0753
  600ERGO    R1 8838  10.339   6.809   6.537  0.1804 -0.0834  0.0659
  600ERGO    R2 8839  10.550   6.887   6.697  0.1576 -0.0314  0.0719
  600ERGO    R3 8840  10.354   7.010   6.840  0.1148 -0.1365  0.1046
  600ERGO    R4 8841  10.553   6.929   7.040  0.2439  0.0651  0.0595
  600ERGO    R5 8842  10.340   6.883   7.043  0.2779 -0.0920  0.1450
  600ERGO    C1 8843  10.371   7.070   7.374  0.2540  0.0226  0.0829
  600ERGO    C2 8844  10.460   6.997   7.694 -0.2543 -0.0974  0.1072
  601ERGO   ROH 8845   4.461   6.369   9.632 -0.0203 -0.2589  0.2041
  601ERGO    R1 8846   4.273   6.422   9.427  0.0174 -0.1290  0.2018
  601ERGO    R2 8847   4.250   6.670   9.307  0.0925 -0.0712  0.2987
  601ERGO    R3 8848   4.283   6.527   9.079  0.0880  0.0114  0.2463
  601ERGO    R4 8849   4.247   6.804   8.989  0.2592  0.0629  0.3522
  601ERGO    R5 8850   4.134   6.630   8.922  0.1914  0.1525  0.2428
  601ERGO    C1 8851   4.277   6.747   8.588  0.3521  0.2185  0.3342
  601ERGO    C2 8852   4.177   6.835   8.299 -0.1951 -0.0449 -0.2097
  602ERGO   ROH 8853  10.262   4.919   6.033 -0.0401  0.2072  0.0377
  602ERGO    R1 8854  10.227   5.000   6.302 -0.1580  0.0082  0.0855
  602ERGO    R2 8855  10.131   4.830   6.498  0.1790 -0.2797  0.0168
  602ERGO    R3 8856  10.359   4.902   6.627  0.0717  0.0815  0.0150
  602ERGO    R4 8857  10.221   4.726   6.815  0.4905 -0.3830 -0.1025
  602ERGO    R5 8858  10.294   4.927   6.856  0.0830 -0.2626  0.0569
  602ERGO    C1 8859  10.488   4.732   7.120  0.5711 -0.1042 -0.1738
  602ERGO    C2 8860  10.462   4.563   7.387  0.1287 -0.3062  0.0356
  603ERGO   ROH 8861   5.082   1.151   9.180 -0.0361 -0.2052  0.1134
  603ERGO    R1 8862   5.121   1.030   8.927  0.0938 -0.1220  0.0928
  603ERGO    R2 8863   4.942   0.847   8.820  0.1780 -0.1286 -0.0337
  603ERGO    R3 8864   4.943   1.019   8.610  0.2266 -0.0680  0.0150
  603ERGO    R4 8865   4.856   0.763   8.497  0.1465 -0.0146 -0.0556
  603ERGO    R5 8866   5.021   0.887   8.426  0.1850 -0.0425 -0.0234
  603ERGO    C1 8867   4.807   0.875   8.110  0.1740  0.1086 -0.0227
  603ERGO    C2 8868   4.744   0.894   7.847 -0.3451  0.1501  0.1247
  604ERGO   ROH 8869   1.182   3.220   5.704  0.2585 -0.0441  0.0194
  604ERGO    R1 8870   1.191   3.396   5.926  0.1338 -0.0057 -0.0045
  604ERGO    R2 8871   1.095   3.655   5.915  0.2133  0.0220 -0.1277
  604ERGO    R3 8872   0.950   3.575   6.131  0.0212  0.0992 -0.2268
  604ERGO    R4 8873   1.004   3.860   6.178  0.1945  0.0522 -0.1582
  604ERGO    R5 8874   1.046   3.695   6.314 -0.0088  0.0060 -0.1518
  604ERGO    C1 8875   0.814   3.905   6.533  0.0033  0.1424 -0.2690
  604ERGO    C2 8876   0.604   3.855   6.741 -0.2300  0.2007 -0.1944
  605ERGO   ROH 8877  11.193  13.855   9.764 -0.0636 -0.0683  0.1392
  605ERGO    R1 8878  10.994  13.769   9.582  0.0703 -0.3074  0.0998
  605ERGO    R2 8879  10.925  13.915   9.357 -0.2520 -0.2409  0.2337
  605ERGO    R3 8880  10.978  13.681   9.229  0.1945 -0.0371  0.0247
  605ERGO    R4 8881  10.756  13.799   9.079  0.0504 -0.2696  0.0578
  605ERGO    R5 8882  10.763  13.599   9.164  0.3555 -0.3444 -0.1341
  605ERGO    C1 8883  10.708  13.512   8.797  0.6454 -0.0951 -0.2407
  605ERGO    C2 8884  10.739  13.366   8.401 -0.0017 -0.1252  0.2185
  606ERGO   ROH 8885  13.587   6.254   6.486  0.0287  0.1407 -0.0336
  606ERGO    R1 8886  13.419   6.300   6.709  0.1176 -0.1084  0.0870
  606ERGO    R2 8887  13.144   6.314   6.687  0.1245  0.1481  0.1698
  606ERGO    R3 8888  13.151   6.121   6.879  0.0155 -0.1936 -0.1571
  606ERGO    R4 8889  12.891   6.255   6.915  0.1956  0.0800  0.2321
  606ERGO    R5 8890  13.044   6.223   7.068  0.2632 -0.3720  0.0894
  606ERGO    C1 8891  12.751   6.039   7.228  0.1345 -0.2805 -0.0385
  606ERGO    C2 8892  12.528   6.062   7.507 -0.0470 -0.2330  0.2961
  607ERGO   ROH 8893  10.971  16.267   9.579  0.0862 -0.2221  0.1165
  607ERGO    R1 8894  11.055  16.241   9.310  0.1902 -0.1912  0.1456
  607ERGO    R2 8895  11.211  16.031   9.223 -0.0284 -0.3450  0.1211
  607ERGO    R3 8896  11.011  16.000   9.041  0.0217 -0.0034  0.0003
  607ERGO    R4 8897  11.257  15.928   8.896 -0.0015 -0.4964  0.1725
  607ERGO    R5 8898  11.108  16.075   8.835  0.3061 -0.2183  0.0452
  607ERGO    C1 8899  11.096  15.839   8.535  0.0613 -0.2639  0.0889
  607ERGO    C2 8900  11.137  15.638   8.276  0.2701  0.3542  0.1755
  608ERGO   ROH 8901  17.496  10.111   9.561 -0.0492  0.0092  0.0235
  608ERGO    R1 8902  17.433   9.995   9.311  0.0414 -0.0858  0.0431
  608ERGO    R2 8903  17.277  10.122   9.122 -0.2637 -0.3338  0.1096
  608ERGO    R3 8904  17.490  10.074   8.961 -0.2393  0.0388  0.0250
  608ERGO    R4 8905  17.258  10.063   8.782 -0.2631 -0.1875  0.0846
  608ERGO    R5 8906  17.411   9.910   8.805 -0.0500  0.0117 -0.0371
  608ERGO    C1 8907  17.447   9.984   8.433 -0.2398  0.2475 -0.0094
  608ERGO    C2 8908  17.415  10.005   8.097 -0.0133 -0.0490  0.0740
  609ERGO   ROH 8909   3.851   3.486   5.709  0.2015 -0.0123  0.1444
  609ERGO    R1 8910   3.837   3.476   5.992  0.0777  0.0348  0.1402
  609ERGO    R2 8911   3.673   3.643   6.138 -0.0210  0.0272  0.0373
  609ERGO    R3 8912   3.582   3.409   6.242 -0.0203  0.0274  0.0394
  609ERGO    R4 8913   3.449   3.617   6.400  0.0738  0.0294  0.1194
  609ERGO    R5 8914   3.566   3.450   6.477  0.0765 -0.0016  0.0521
  609ERGO    C1 8915   3.233   3.382   6.650  0.1297  0.0309  0.1693
  609ERGO    C2 8916   3.036   3.293   7.004 -0.4691 -0.2451 -0.1690
  610ERGO   ROH 8917  14.539  17.991   9.365 -0.1749  0.0035 -0.0916
  610ERGO    R1 8918  14.418  17.950   9.112 -0.1419 -0.2139 -0.0745
  610ERGO    R2 8919  14.515  18.067   8.881 -0.3120 -0.1362 -0.1071
  610ERGO    R3 8920  14.518  17.810   8.792  0.0214 -0.1565 -0.0502
  610ERGO    R4 8921  14.486  17.973   8.550 -0.3635 -0.2470 -0.0717
  610ERGO    R5 8922  14.359  17.808   8.613 -0.0838 -0.4307  0.0396
  610ERGO    C1 8923  14.472  17.678   8.273 -0.0806 -0.3305  0.0022
  610ERGO    C2 8924  14.504  17.698   7.908  0.2883 -0.0121  0.3722
  611ERGO   ROH 8925   8.468  17.646   9.226  0.1705 -0.3000  0.1026
  611ERGO    R1 8926   8.563  17.545   8.980  0.2328 -0.1009  0.0425
  611ERGO    R2 8927   8.440  17.336   8.847  0.4202 -0.1721 -0.0249
  611ERGO    R3 8928   8.436  17.512   8.640  0.2074 -0.0860  0.0508
  611ERGO    R4 8929   8.408  17.249   8.514  0.2901 -0.0487 -0.0450
  611ERGO    R5 8930   8.556  17.402   8.465  0.1766  0.0566 -0.0616
  611ERGO    C1 8931   8.385  17.364   8.126  0.0144  0.1038  0.0143
  611ERGO    C2 8932   8.239  17.237   7.815  0.1198 -0.0796 -0.1861
  612ERGO   ROH 8933  13.489  11.515   9.758  0.0448 -0.0087 -0.0300
  612ERGO    R1 8934  13.394  11.522   9.491  0.1224 -0.2466 -0.0677
  612ERGO    R2 8935  13.349  11.760   9.355 -0.2946 -0.3464 -0.1304
  612ERGO    R3 8936  13.514  11.646   9.171  0.0027 -0.0681 -0.0427
  612ERGO    R4 8937  13.324  11.803   9.013 -0.0372 -0.2317 -0.1362
  612ERGO    R5 8938  13.371  11.592   8.987  0.2351 -0.1602 -0.1935
  612ERGO    C1 8939  13.465  11.722   8.641  0.3917  0.0965 -0.0571
  612ERGO    C2 8940  13.419  11.959   8.330  0.0923 -0.1024 -0.2566
  613ERGO   ROH 8941   0.497  12.119   9.354  0.3178  0.1265  0.0631
  613ERGO    R1 8942   0.614  12.253   9.134  0.2653  0.1131  0.0264
  613ERGO    R2 8943   0.713  12.119   8.913  0.1758  0.1015 -0.0093
  613ERGO    R3 8944   0.546  12.286   8.778  0.1535  0.1261  0.0489
  613ERGO    R4 8945   0.747  12.204   8.580  0.0291  0.0407 -0.0400
  613ERGO    R5 8946   0.691  12.408   8.631  0.1122  0.0630 -0.0437
  613ERGO    C1 8947   0.610  12.410   8.259 -0.0772  0.0284 -0.0032
  613ERGO    C2 8948   0.699  12.279   8.091 -0.2386  0.0214 -0.2491
  614ERGO   ROH 8949   5.609  17.020   6.219 -0.2302  0.0681  0.1582
  614ERGO    R1 8950   5.819  16.910   6.374 -0.2041  0.0415  0.1055
  614ERGO    R2 8951   6.034  17.060   6.461 -0.1339  0.0047  0.0093
  614ERGO    R3 8952   5.959  16.965   6.705 -0.0801  0.0636  0.0486
  614ERGO    R4 8953   6.249  16.998   6.725 -0.0659 -0.0398 -0.0566
  614ERGO    R5 8954   6.136  16.817   6.769 -0.1135  0.0094  0.0067
  614ERGO    C1 8955   6.303  16.872   7.107  0.0242 -0.0101 -0.0582
  614ERGO    C2 8956   6.513  16.832   7.441  0.0318 -0.3061  0.2459
  615ERGO   ROH 8957   5.879   8.502   7.582  0.0259  0.0159  0.3449
  615ERGO    R1 8958   5.837   8.223   7.560  0.0984  0.0197  0.1369
  615ERGO    R2 8959   5.911   8.045   7.758 -0.0545 -0.0860  0.1015
  615ERGO    R3 8960   5.651   7.968   7.741 -0.0263 -0.1272 -0.1894
  615ERGO    R4 8961   5.793   7.730   7.835 -0.0889 -0.1087 -0.0425
  615ERGO    R5 8962   5.661   7.742   7.662  0.0979 -0.1224 -0.1902
  615ERGO    C1 8963   5.480   7.474   7.864 -0.0825 -0.1606 -0.3995
  615ERGO    C2 8964   5.461   7.307   8.165 -0.0497 -0.0219  0.3255
  616ERGO   ROH 8965  12.912   3.268   9.190 -0.0392  0.1835  0.0762
  616ERGO    R1 8966  12.705   3.202   9.009 -0.0663  0.2806  0.0697
  616ERGO    R2 8967  12.609   3.381   8.821  0.1712  0.2582 -0.0827
  616ERGO    R3 8968  12.667   3.179   8.648  0.0041  0.0728  0.0752
  616ERGO    R4 8969  12.498   3.363   8.494  0.1391  0.0785 -0.0615
  616ERGO    R5 8970  12.465   3.149   8.522 -0.0248  0.1266  0.1125
  616ERGO    C1 8971  12.487   3.163   8.142 -0.0364 -0.2002  0.0991
  616ERGO    C2 8972  12.474   3.340   7.734  0.3089 -0.0273 -0.0686
  617ERGO   ROH 8973   3.824  16.303   9.481  0.0932 -0.0453  0.1599
  617ERGO    R1 8974   3.927  16.154   9.264  0.1232 -0.0190  0.1563
  617ERGO    R2 8975   3.902  16.236   9.001 -0.0394 -0.0993  0.1479
  617ERGO    R3 8976   4.172  16.205   9.000 -0.0153  0.1029  0.0494
  617ERGO    R4 8977   4.080  16.075   8.753 -0.0216 -0.0365  0.1194
  617ERGO    R5 8978   4.206  15.987   8.908  0.1090  0.0996  0.0968
  617ERGO    C1 8979   4.438  15.953   8.607  0.0114  0.1902  0.0104
  617ERGO    C2 8980   4.392  15.759   8.309 -0.1578 -0.1773  0.0257
  618ERGO   ROH 8981   5.597   0.745   6.091 -0.0371 -0.0437 -0.0115
  618ERGO    R1 8982   5.517   0.659   6.349  0.1156  0.0186  0.0569
  618ERGO    R2 8983   5.690   0.653   6.564  0.1806  0.3017  0.0101
  618ERGO    R3 8984   5.498   0.805   6.681  0.0664  0.1804 -0.0140
  618ERGO    R4 8985   5.559   0.599   6.880  0.1995  0.2258  0.0064
  618ERGO    R5 8986   5.362   0.649   6.802  0.1646  0.0876 -0.0136
  618ERGO    C1 8987   5.303   0.711   7.174  0.1033  0.0678 -0.0185
  618ERGO    C2 8988   5.057   0.687   7.469 -0.0160 -0.0106 -0.3149
  619ERGO   ROH 8989  12.869   9.589   5.830  0.1816 -0.0429 -0.1776
  619ERGO    R1 8990  12.840   9.518   6.102  0.1313 -0.1518 -0.2117
  619ERGO    R2 8991  13.045   9.405   6.249  0.2041  0.0825 -0.1384
  619ERGO    R3 8992  12.995   9.612   6.418 -0.1584 -0.0266 -0.1011
  619ERGO    R4 8993  13.074   9.390   6.593  0.2369  0.0621 -0.1414
  619ERGO    R5 8994  12.892   9.509   6.609  0.0173 -0.2514 -0.1174
  619ERGO    C1 8995  13.045   9.575   6.952 -0.0843 -0.0520 -0.1082
  619ERGO    C2 8996  13.140   9.430   7.147 -0.1288  0.0581 -0.0079
  620ERGO   ROH 8997  18.443   0.924   6.374  0.0988  0.0279  0.0838
  620ERGO    R1 8998  18.406   0.878   6.651  0.0460  0.1802  0.1049
  620ERGO    R2 8999  18.481   0.642   6.775 -0.3381  0.0760  0.1810
  620ERGO    R3 9000  18.619   0.810   6.938 -0.0317 -0.0891  0.0960
  620ERGO    R4 9001  18.582   0.566   7.096 -0.0452 -0.0847  0.0537
  620ERGO    R5 9002  18.529   0.769   7.156  0.1811 -0.0753  0.1772
  620ERGO    C1 9003  18.770   0.679   7.437  0.4131 -0.3332 -0.1002
  620ERGO    C2 9004  18.899   0.801   7.676 -0.1751  0.2914  0.0503
  621ERGO   ROH 9005  14.882   9.969   9.609  0.1614 -0.0500  0.2868
  621ERGO    R1 9006  15.070   9.828   9.449  0.1358 -0.0308  0.2397
  621ERGO    R2 9007  15.098   9.874   9.178 -0.0102 -0.1012  0.2116
  621ERGO    R3 9008  15.359   9.912   9.246  0.0096  0.0122  0.0758
  621ERGO    R4 9009  15.369   9.783   8.983 -0.0710 -0.0341  0.0949
  621ERGO    R5 9010  15.471   9.718   9.163  0.0441  0.0394  0.0578
  621ERGO    C1 9011  15.771   9.767   8.932 -0.0880  0.1114 -0.1003
  621ERGO    C2 9012  15.818   9.685   8.549 -0.0191  0.0666 -0.1723
  622ERGO   ROH 9013   1.665  17.737   9.305  0.0032  0.0160  0.0118
  622ERGO    R1 9014   1.770  17.608   9.075  0.0223  0.0453  0.0038
  622ERGO    R2 9015   1.619  17.563   8.848  0.0541  0.1169 -0.0333
  622ERGO    R3 9016   1.823  17.694   8.725  0.0983  0.1087  0.0306
  622ERGO    R4 9017   1.661  17.585   8.506  0.1890  0.0768 -0.0200
  622ERGO    R5 9018   1.875  17.557   8.535  0.1782  0.0878  0.0677
  622ERGO    C1 9019   1.876  17.722   8.191  0.3089  0.0455  0.0477
  622ERGO    C2 9020   1.822  17.500   7.946  0.1151  0.1820 -0.0768
  623ERGO   ROH 9021  18.290  12.132   9.504 -0.1210 -0.0091  0.0122
  623ERGO    R1 9022  18.330  12.204   9.233 -0.0567  0.1341  0.0589
  623ERGO    R2 9023  18.363  12.018   9.032  0.2444  0.2404  0.0023
  623ERGO    R3 9024  18.156  12.153   8.917  0.1585  0.0670 -0.0499
  623ERGO    R4 9025  18.260  11.981   8.704  0.2696  0.0585  0.0141
  623ERGO    R5 9026  18.230  12.197   8.694  0.1312  0.0351 -0.0639
  623ERGO    C1 9027  18.007  12.086   8.405  0.2039 -0.2103 -0.0280
  623ERGO    C2 9028  17.939  12.268   8.033  0.2297  0.0476  0.4087
  624ERGO   ROH 9029  16.328   6.377   6.215 -0.1599 -0.1206  0.1541
  624ERGO    R1 9030  16.191   6.177   6.362 -0.0609 -0.1694  0.1808
  624ERGO    R2 9031  16.184   5.913   6.283  0.0090 -0.1705  0.1770
  624ERGO    R3 9032  16.279   5.869   6.534  0.0801 -0.1444  0.1550
  624ERGO    R4 9033  16.174   5.609   6.447  0.1783 -0.1864  0.1592
  624ERGO    R5 9034  16.123   5.715   6.630  0.1678 -0.2213  0.1768
  624ERGO    C1 9035  16.258   5.391   6.778  0.3438 -0.1713  0.1280
  624ERGO    C2 9036  16.189   5.112   7.025  0.0384  0.1068  0.1532
  625ERGO   ROH 9037  12.138   1.070   9.572 -0.2762  0.0127  0.0751
  625ERGO    R1 9038  11.999   1.049   9.326 -0.1075 -0.3019  0.0025
  625ERGO    R2 9039  11.897   1.269   9.193 -0.5056 -0.5220 -0.0651
  625ERGO    R3 9040  12.044   1.172   8.986 -0.1864 -0.2330  0.0159
  625ERGO    R4 9041  11.874   1.378   8.866 -0.2872 -0.3293 -0.0193
  625ERGO    R5 9042  11.893   1.171   8.801 -0.0016 -0.2732 -0.1408
  625ERGO    C1 9043  11.999   1.351   8.481  0.1396  0.0542  0.0835
  625ERGO    C2 9044  12.079   1.433   8.156  0.1302 -0.1661  0.4841
  626ERGO   ROH 9045   8.890  17.533   5.979  0.1633  0.0799 -0.0440
  626ERGO    R1 9046   8.817  17.658   6.222  0.1145  0.0155 -0.0250
  626ERGO    R2 9047   8.806  17.522   6.462  0.0372 -0.0545 -0.0682
  626ERGO    R3 9048   8.974  17.720   6.545  0.0378 -0.0979  0.0349
  626ERGO    R4 9049   8.903  17.574   6.790 -0.1168 -0.1106 -0.0135
  626ERGO    R5 9050   8.883  17.789   6.756 -0.0550 -0.1018 -0.0021
  626ERGO    C1 9051   9.115  17.790   7.059 -0.2060 -0.1840  0.1151
  626ERGO    C2 9052   9.153  17.569   7.330 -0.1085  0.1173  0.5335
  627ERGO   ROH 9053   3.165  11.989   6.269  0.0157  0.1171 -0.0918
  627ERGO    R1 9054   2.999  12.105   6.466  0.1127  0.0251  0.0458
  627ERGO    R2 9055   2.735  12.030   6.501  0.0655  0.1639 -0.0081
  627ERGO    R3 9056   2.814  11.989   6.758  0.0649 -0.1565 -0.0546
  627ERGO    R4 9057   2.522  11.967   6.765  0.0224  0.3094 -0.0071
  627ERGO    R5 9058   2.645  12.097   6.890  0.2656  0.0216  0.0642
  627ERGO    C1 9059   2.472  11.892   7.161 -0.0031  0.0935 -0.0502
  627ERGO    C2 9060   2.218  11.786   7.286  0.0616 -0.0529  0.1591
  628ERGO   ROH 9061   1.123   9.779   6.796  0.0032 -0.0603  0.0302
  628ERGO    R1 9062   0.844   9.731   6.792 -0.0371  0.1273  0.3771
  628ERGO    R2 9063   0.734   9.502   6.684 -0.3423  0.4106  0.0958
  628ERGO    R3 9064   0.616   9.482   6.928  0.0193  0.0007  0.2524
  628ERGO    R4 9065   0.470   9.291   6.759 -0.2785  0.3263  0.0920
  628ERGO    R5 9066   0.383   9.451   6.879 -0.0726  0.1472  0.5258
  628ERGO    C1 9067   0.206   9.149   7.031  0.0981 -0.1076  0.2368
  628ERGO    C2 9068  -0.091   8.964   6.932 -0.0979 -0.0596 -0.3263
  629ERGO   ROH 9069   2.589  13.104   9.729  0.3024 -0.1046 -0.0001
  629ERGO    R1 9070   2.515  13.178   9.466  0.3661 -0.0071  0.0126
  629ERGO    R2 9071   2.656  13.094   9.243  0.1015 -0.3712 -0.0023
  629ERGO    R3 9072   2.412  13.005   9.163 -0.1317  0.1434  0.0797
  629ERGO    R4 9073   2.561  13.046   8.914  0.1420 -0.6953  0.0271
  629ERGO    R5 9074   2.366  13.129   8.963  0.3095 -0.0506 -0.1794
  629ERGO    C1 9075   2.278  12.935   8.647 -0.0534 -0.4008  0.1212
  629ERGO    C2 9076   2.280  12.994   8.361 -0.4044 -0.0993  0.2659
  630ERGO   ROH 9077   0.663  13.765   6.058 -0.1219 -0.1666 -0.0084
  630ERGO    R1 9078   0.724  13.591   6.272  0.0195 -0.0528  0.0462
  630ERGO    R2 9079   0.908  13.655   6.468 -0.0941  0.1960  0.0798
  630ERGO    R3 9080   0.700  13.600   6.635 -0.0789  0.0067  0.0379
  630ERGO    R4 9081   0.939  13.557   6.798 -0.0745 -0.0152  0.0166
  630ERGO    R5 9082   0.777  13.416   6.767 -0.0190 -0.0531 -0.0826
  630ERGO    C1 9083   0.763  13.449   7.147 -0.0489 -0.3158 -0.0595
  630ERGO    C2 9084   0.752  13.666   7.401  0.3647 -0.2976 -0.0983
  631ERGO   ROH 9085  18.210  14.197   7.840  0.2207 -0.1160  0.1382
  631ERGO    R1 9086  18.024  13.984   7.854  0.1404 -0.0387  0.2505
  631ERGO    R2 9087  17.838  13.962   8.059 -0.0013  0.2500  0.1547
  631ERGO    R3 9088  17.661  13.950   7.853  0.1278  0.0813  0.0500
  631ERGO    R4 9089  17.528  13.810   8.072 -0.0061  0.2528  0.0862
  631ERGO    R5 9090  17.562  13.734   7.871  0.1227  0.0904  0.1642
  631ERGO    C1 9091  17.181  13.711   7.886  0.1122  0.0960 -0.0520
  631ERGO    C2 9092  16.879  13.543   7.851  0.0041  0.2540 -0.1332
  632ERGO   ROH 9093   9.224   7.121   9.517 -0.2390 -0.0703  0.0550
  632ERGO    R1 9094   9.108   7.087   9.261 -0.0720 -0.1780 -0.0071
  632ERGO    R2 9095   9.124   7.280   9.063 -0.1993 -0.1360  0.0255
  632ERGO    R3 9096   9.227   7.075   8.917  0.1152 -0.0010  0.0489
  632ERGO    R4 9097   9.176   7.288   8.722 -0.1700 -0.0791  0.0308
  632ERGO    R5 9098   9.105   7.083   8.711  0.1256 -0.1876  0.0335
  632ERGO    C1 9099   9.304   7.101   8.386  0.1422  0.0808  0.0559
  632ERGO    C2 9100   9.319   7.010   8.109 -0.2222 -0.0538 -0.4888
  633ERGO   ROH 9101  11.604   5.451   9.607  0.1330 -0.1030  0.0556
  633ERGO    R1 9102  11.471   5.306   9.403  0.1103 -0.0581  0.0399
  633ERGO    R2 9103  11.202   5.339   9.349  0.1356  0.0399 -0.0038
  633ERGO    R3 9104  11.293   5.385   9.096  0.1868 -0.0045  0.0086
  633ERGO    R4 9105  11.003   5.357   9.067  0.1883  0.0195 -0.0437
  633ERGO    R5 9106  11.155   5.247   8.957  0.1985 -0.0106  0.0019
  633ERGO    C1 9107  10.971   5.411   8.666  0.2669 -0.0341 -0.0552
  633ERGO    C2 9108  10.868   5.460   8.279  0.3067 -0.2658  0.1378
  634ERGO   ROH 9109  12.343   8.661   9.736 -0.1221 -0.2450 -0.1024
  634ERGO    R1 9110  12.451   8.647   9.474 -0.0055 -0.0661 -0.0657
  634ERGO    R2 9111  12.444   8.416   9.323 -0.0137  0.0588 -0.2587
  634ERGO    R3 9112  12.325   8.578   9.140  0.1253  0.2494 -0.1840
  634ERGO    R4 9113  12.480   8.388   8.980 -0.3289 -0.0546 -0.2859
  634ERGO    R5 9114  12.489   8.605   8.968  0.0463 -0.0645 -0.3170
  634ERGO    C1 9115  12.390   8.523   8.609 -0.3818  0.0583 -0.2316
  634ERGO    C2 9116  12.387   8.466   8.253 -0.2987  0.1752  0.2256
  635ERGO   ROH 9117   9.189   8.435   9.479 -0.0262  0.0784  0.0235
  635ERGO    R1 9118   9.102   8.356   9.221 -0.0092 -0.1534  0.0854
  635ERGO    R2 9119   9.090   8.531   9.008 -0.3182 -0.2570  0.0055
  635ERGO    R3 9120   9.244   8.342   8.887 -0.1012 -0.1058  0.0461
  635ERGO    R4 9121   9.024   8.393   8.698 -0.0438 -0.2662 -0.0501
  635ERGO    R5 9122   9.086   8.199   8.777  0.0803 -0.2219 -0.0573
  635ERGO    C1 9123   9.130   8.136   8.404  0.3200 -0.1297 -0.0444
  635ERGO    C2 9124   9.028   8.287   8.184  0.0348 -0.0929  0.0876
  636ERGO   ROH 9125   6.276   1.395   6.160 -0.0696 -0.4458  0.1841
  636ERGO    R1 9126   6.272   1.301   6.427  0.1263 -0.3065  0.2395
  636ERGO    R2 9127   6.462   1.373   6.613  0.1506 -0.0446  0.1206
  636ERGO    R3 9128   6.244   1.447   6.759  0.1495 -0.1473  0.1712
  636ERGO    R4 9129   6.471   1.478   6.942  0.1982  0.1278  0.0651
  636ERGO    R5 9130   6.289   1.364   6.979  0.3052 -0.0011  0.1958
  636ERGO    C1 9131   6.272   1.608   7.271  0.2248  0.1318  0.0803
  636ERGO    C2 9132   6.327   1.643   7.605 -0.0553 -0.0443  0.0762
  637ERGO   ROH 9133  10.648   6.706   9.781  0.3481  0.2260  0.1078
  637ERGO    R1 9134  10.832   6.663   9.570  0.2748 -0.0499  0.0941
  637ERGO    R2 9135  10.792   6.473   9.373 -0.0219  0.0004  0.0964
  637ERGO    R3 9136  10.827   6.686   9.207  0.2780 -0.0468  0.0953
  637ERGO    R4 9137  10.848   6.451   9.033 -0.1379 -0.0741  0.0818
  637ERGO    R5 9138  10.993   6.613   9.051  0.1254 -0.3051  0.0523
  637ERGO    C1 9139  10.914   6.638   8.679  0.0762 -0.1616  0.0723
  637ERGO    C2 9140  10.826   6.451   8.418 -0.1381 -0.1227  0.0388
  638ERGO   ROH 9141  16.744   5.144   9.599 -0.2399  0.0143 -0.0281
  638ERGO    R1 9142  16.807   5.356   9.422 -0.0360 -0.0153  0.0076
  638ERGO    R2 9143  17.051   5.374   9.291 -0.0584 -0.2822 -0.0658
  638ERGO    R3 9144  16.893   5.390   9.070 -0.1102 -0.0257 -0.0134
  638ERGO    R4 9145  17.157   5.477   8.979 -0.0210 -0.2993 -0.0588
  638ERGO    R5 9146  16.970   5.586   8.956  0.0900 -0.0695  0.0332
  638ERGO    C1 9147  17.071   5.552   8.590 -0.0478 -0.0684 -0.0057
  638ERGO    C2 9148  17.051   5.619   8.292  0.1305 -0.0701  0.1639
  639ERGO   ROH 9149  14.184   0.984   9.328  0.0310  0.1624  0.0529
  639ERGO    R1 9150  14.264   1.039   9.062  0.0037  0.0639  0.0217
  639ERGO    R2 9151  14.127   0.943   8.843 -0.0042 -0.0471  0.0636
  639ERGO    R3 9152  14.120   1.205   8.772 -0.0455 -0.0755 -0.0317
  639ERGO    R4 9153  14.018   1.062   8.537 -0.0137 -0.1631  0.0231
  639ERGO    R5 9154  14.182   1.206   8.540 -0.0438 -0.1405 -0.0250
  639ERGO    C1 9155  13.948   1.377   8.292 -0.0580 -0.2574 -0.0900
  639ERGO    C2 9156  13.777   1.328   8.019 -0.1939 -0.0206  0.0588
  640ERGO   ROH 9157   8.162   6.888   9.716  0.0787  0.1863 -0.0753
  640ERGO    R1 9158   8.247   6.978   9.462  0.0684  0.1086 -0.1060
  640ERGO    R2 9159   8.082   6.976   9.240  0.0385  0.1057 -0.0818
  640ERGO    R3 9160   8.151   7.239   9.227  0.1080  0.0849 -0.1492
  640ERGO    R4 9161   8.106   7.160   8.948 -0.0488  0.0593 -0.1189
  640ERGO    R5 9162   8.284   7.256   9.029  0.0187  0.0195 -0.2166
  640ERGO    C1 9163   8.184   7.514   8.766 -0.0343  0.0129 -0.2037
  640ERGO    C2 9164   8.273   7.727   8.496 -0.0412  0.0970 -0.1976
  641ERGO   ROH 9165   3.582   7.387   9.633 -0.3634 -0.0604 -0.0475
  641ERGO    R1 9166   3.529   7.542   9.403 -0.3723 -0.0349 -0.0299
  641ERGO    R2 9167   3.721   7.700   9.282 -0.3915  0.0329  0.0151
  641ERGO    R3 9168   3.653   7.558   9.061 -0.3327  0.0466 -0.0106
  641ERGO    R4 9169   3.770   7.805   8.956  0.1538 -0.1659  0.0229
  641ERGO    R5 9170   3.575   7.722   8.905  0.0924  0.0994 -0.1763
  641ERGO    C1 9171   3.734   7.732   8.559  0.5265 -0.2688  0.0034
  641ERGO    C2 9172   3.741   7.638   8.173 -0.0450  0.1768 -0.2152
  642ERGO   ROH 9173   9.909   1.470   9.436  0.0774  0.1690 -0.1707
  642ERGO    R1 9174   9.892   1.579   9.176  0.2705  0.1056 -0.2115
  642ERGO    R2 9175  10.056   1.496   8.969  0.1258 -0.2691 -0.1847
  642ERGO    R3 9176   9.820   1.455   8.842  0.0420  0.1065 -0.1639
  642ERGO    R4 9177  10.011   1.512   8.627  0.1394 -0.2712 -0.1865
  642ERGO    R5 9178   9.820   1.613   8.662  0.3077  0.0678 -0.2012
  642ERGO    C1 9179   9.762   1.482   8.308  0.0685  0.0802 -0.1681
  642ERGO    C2 9180   9.675   1.505   7.960 -0.1174  0.0321 -0.0624
  643ERGO   ROH 9181  14.359   3.195   5.997 -0.0203  0.1005  0.0237
  643ERGO    R1 9182  14.373   3.071   6.252  0.0618  0.1678  0.0530
  643ERGO    R2 9183  14.612   3.021   6.380  0.1049  0.2038 -0.0088
  643ERGO    R3 9184  14.495   3.160   6.582  0.1671  0.2578 -0.0101
  643ERGO    R4 9185  14.734   3.039   6.703 -0.0175 -0.0469  0.0532
  643ERGO    R5 9186  14.529   3.022   6.776 -0.0683  0.1499 -0.0442
  643ERGO    C1 9187  14.694   3.180   7.081 -0.0302 -0.1422  0.0882
  643ERGO    C2 9188  14.739   3.369   7.450  0.1692  0.2812 -0.0391
  644ERGO   ROH 9189   9.146   0.744   9.349  0.0707 -0.1317 -0.1950
  644ERGO    R1 9190   9.077   0.773   9.076 -0.0369 -0.0551 -0.1611
  644ERGO    R2 9191   9.263   0.834   8.881 -0.1339  0.1443 -0.2011
  644ERGO    R3 9192   9.164   0.611   8.762 -0.0371  0.1320 -0.2575
  644ERGO    R4 9193   9.244   0.784   8.540 -0.2091  0.2573 -0.2134
  644ERGO    R5 9194   9.048   0.692   8.569 -0.1422  0.1324 -0.1903
  644ERGO    C1 9195   9.140   0.545   8.230 -0.1620  0.3115 -0.2735
  644ERGO    C2 9196   9.131   0.259   8.035  0.1373 -0.2127  0.1878
  645ERGO   ROH 9197  11.724  10.537   9.451  0.1788 -0.2454 -0.0468
  645ERGO    R1 9198  11.718  10.594   9.174  0.1671 -0.1731 -0.0318
  645ERGO    R2 9199  11.783  10.405   8.983  0.0095 -0.1679 -0.0887
  645ERGO    R3 9200  11.538  10.470   8.883  0.0343  0.0175 -0.0330
  645ERGO    R4 9201  11.725  10.520   8.662  0.0473  0.0371 -0.0238
  645ERGO    R5 9202  11.580  10.661   8.743  0.1278  0.0731  0.0661
  645ERGO    C1 9203  11.462  10.648   8.381  0.0928  0.3306  0.0662
  645ERGO    C2 9204  11.307  10.568   8.074 -0.1422  0.1184  0.1409
  646ERGO   ROH 9205  12.307   9.765   9.811 -0.1022 -0.0682  0.0180
  646ERGO    R1 9206  12.422   9.826   9.559 -0.0106 -0.0545  0.0629
  646ERGO    R2 9207  12.480   9.631   9.372 -0.0401 -0.0334  0.0324
  646ERGO    R3 9208  12.328   9.788   9.210  0.0664  0.0677  0.0282
  646ERGO    R4 9209  12.537   9.681   9.035 -0.0905 -0.1991 -0.0021
  646ERGO    R5 9210  12.485   9.891   9.062  0.1270 -0.1359 -0.0534
  646ERGO    C1 9211  12.427   9.858   8.686 -0.0198 -0.2005 -0.0261
  646ERGO    C2 9212  12.358   9.860   8.291 -0.3206  0.1501 -0.3373
  647ERGO   ROH 9213   1.349  15.620   9.436  0.0227 -0.0118 -0.0208
  647ERGO    R1 9214   1.184  15.461   9.270  0.1322  0.0242 -0.1672
  647ERGO    R2 9215   1.284  15.313   9.058  0.3251 -0.1840  0.0600
  647ERGO    R3 9216   1.158  15.108   9.184 -0.0248 -0.0077  0.0062
  647ERGO    R4 9217   1.142  15.041   8.899  0.2408 -0.1117  0.0128
  647ERGO    R5 9218   0.976  15.052   9.039  0.0858  0.1120 -0.1822
  647ERGO    C1 9219   0.941  14.690   8.924 -0.1367  0.0957 -0.0652
  647ERGO    C2 9220   1.035  14.394   8.786 -0.3616  0.0345  0.0596
  648ERGO   ROH 9221  15.248  12.207   6.418  0.1684 -0.0725  0.0287
  648ERGO    R1 9222  15.137  12.232   6.677  0.1110 -0.0514  0.0027
  648ERGO    R2 9223  14.946  12.057   6.775  0.1524 -0.0959  0.0069
  648ERGO    R3 9224  15.124  12.029   6.979  0.1250  0.0123  0.0461
  648ERGO    R4 9225  14.861  11.997   7.104  0.1163 -0.1525 -0.0129
  648ERGO    R5 9226  15.018  12.135   7.165  0.0170 -0.0555  0.0238
  648ERGO    C1 9227  14.978  11.935   7.488  0.0695 -0.0840  0.0123
  648ERGO    C2 9228  14.771  11.884   7.702  0.0731  0.1077 -0.0043
  649ERGO   ROH 9229   3.586  12.985   9.731  0.1154 -0.1198 -0.0246
  649ERGO    R1 9230   3.726  12.974   9.485  0.1510 -0.1642 -0.0028
  649ERGO    R2 9231   3.745  12.744   9.335 -0.0568 -0.1266 -0.0918
  649ERGO    R3 9232   3.645  12.902   9.137  0.1395  0.0563 -0.0474
  649ERGO    R4 9233   3.842  12.730   9.003 -0.0822 -0.1652 -0.0975
  649ERGO    R5 9234   3.834  12.948   8.997  0.1982 -0.1499 -0.0395
  649ERGO    C1 9235   3.804  12.870   8.625  0.0873 -0.0161 -0.0591
  649ERGO    C2 9236   3.906  12.687   8.357  0.0162 -0.1901  0.1099
  650ERGO   ROH 9237   8.624   7.893   6.292  0.1059  0.4439 -0.0395
  650ERGO    R1 9238   8.521   7.759   6.519  0.1924  0.2944 -0.0873
  650ERGO    R2 9239   8.663   7.738   6.756  0.2211  0.2684 -0.1059
  650ERGO    R3 9240   8.437   7.847   6.862  0.1714  0.1072 -0.0436
  650ERGO    R4 9241   8.575   7.726   7.090  0.2675  0.1168 -0.0983
  650ERGO    R5 9242   8.369   7.691   7.030  0.2807  0.0172 -0.0825
  650ERGO    C1 9243   8.312   7.821   7.384  0.2479 -0.1228 -0.0354
  650ERGO    C2 9244   8.325   7.860   7.609 -0.0880 -0.3008 -0.1165
  651ERGO   ROH 9245   7.012   6.257   6.190 -0.2666  0.0714 -0.0154
  651ERGO    R1 9246   6.989   6.140   6.447 -0.0648 -0.0486 -0.0488
  651ERGO    R2 9247   7.145   6.220   6.661 -0.0571  0.0180 -0.0715
  651ERGO    R3 9248   6.905   6.254   6.783 -0.0494 -0.2496  0.0228
  651ERGO    R4 9249   7.099   6.239   7.002  0.0602  0.0769 -0.0590
  651ERGO    R5 9250   6.919   6.118   6.979  0.2072 -0.1617  0.0638
  651ERGO    C1 9251   6.846   6.282   7.316  0.1357 -0.1400  0.0368
  651ERGO    C2 9252   6.699   6.580   7.538  0.1998  0.3354  0.0462
  652ERGO   ROH 9253   2.332  14.249   9.517 -0.1013 -0.0980 -0.0244
  652ERGO    R1 9254   2.208  14.132   9.291 -0.1773  0.0579 -0.0663
  652ERGO    R2 9255   2.099  14.282   9.086  0.0031  0.2003 -0.0666
  652ERGO    R3 9256   2.263  14.129   8.931 -0.1134  0.0650 -0.0554
  652ERGO    R4 9257   2.074  14.250   8.743 -0.0216  0.1787 -0.0621
  652ERGO    R5 9258   2.118  14.038   8.764 -0.1778  0.1532 -0.0425
  652ERGO    C1 9259   2.213  14.088   8.398 -0.1453  0.0391 -0.0490
  652ERGO    C2 9260   2.295  13.994   8.057  0.1282  0.2083  0.3230
  653ERGO   ROH 9261   5.830   7.501   6.338 -0.0414  0.0346 -0.2515
  653ERGO    R1 9262   5.893   7.337   6.560 -0.2332  0.0797 -0.1610
  653ERGO    R2 9263   6.132   7.356   6.696 -0.1106 -0.2703 -0.3081
  653ERGO    R3 9264   5.970   7.386   6.912  0.0550  0.2099 -0.2400
  653ERGO    R4 9265   6.223   7.284   7.022 -0.1734 -0.5100 -0.3424
  653ERGO    R5 9266   6.024   7.200   7.053 -0.4147  0.0541 -0.2532
  653ERGO    C1 9267   6.123   7.271   7.415 -0.0544 -0.1989 -0.2984
  653ERGO    C2 9268   6.023   7.324   7.681  0.2538  0.0477 -0.2644
  654ERGO   ROH 9269   1.713   6.188   9.564  0.2446 -0.0789  0.1571
  654ERGO    R1 9270   1.794   6.019   9.351  0.1031 -0.0566  0.0840
  654ERGO    R2 9271   1.679   6.030   9.101  0.1428  0.1818  0.0725
  654ERGO    R3 9272   1.936   6.062   9.019  0.1871 -0.0326  0.1232
  654ERGO    R4 9273   1.783   6.026   8.771  0.1947  0.1714  0.0892
  654ERGO    R5 9274   1.958   5.912   8.833  0.0808 -0.0055  0.0890
  654ERGO    C1 9275   2.085   6.054   8.503  0.2666 -0.0359  0.1465
  654ERGO    C2 9276   2.033   6.151   8.155 -0.0126 -0.3406 -0.0936
  655ERGO   ROH 9277   6.294  18.576   6.008 -0.0731 -0.0341 -0.1081
  655ERGO    R1 9278   6.343  18.692   6.262 -0.0760 -0.0438 -0.1033
  655ERGO    R2 9279   6.222  18.599   6.493 -0.0378 -0.0860 -0.1018
  655ERGO    R3 9280   6.479  18.581   6.580 -0.0272 -0.0397 -0.1221
  655ERGO    R4 9281   6.321  18.632   6.822 -0.0126  0.0041 -0.1178
  655ERGO    R5 9282   6.494  18.745   6.754 -0.0286  0.0054 -0.1626
  655ERGO    C1 9283   6.619  18.633   7.097  0.0119  0.0998 -0.1462
  655ERGO    C2 9284   6.710  18.440   7.372 -0.1276 -0.1168  0.1654
  656ERGO   ROH 9285  17.828   5.450   9.388  0.1239  0.1753 -0.0363
  656ERGO    R1 9286  17.631   5.492   9.190  0.1095  0.0193 -0.0551
  656ERGO    R2 9287  17.562   5.744   9.099 -0.0411 -0.0412 -0.0993
  656ERGO    R3 9288  17.617   5.635   8.856  0.0369 -0.0444 -0.0808
  656ERGO    R4 9289  17.507   5.900   8.796  0.2668  0.0550 -0.1107
  656ERGO    R5 9290  17.438   5.710   8.716  0.1760  0.1134 -0.1852
  656ERGO    C1 9291  17.526   5.890   8.391  0.5194  0.1081 -0.1000
  656ERGO    C2 9292  17.576   6.122   8.157  0.1205 -0.3251  0.0797
  657ERGO   ROH 9293  15.135  15.487   9.562 -0.0239  0.0746 -0.0775
  657ERGO    R1 9294  15.025  15.336   9.349 -0.1086  0.1759 -0.1065
  657ERGO    R2 9295  14.883  15.451   9.143  0.0588  0.3103 -0.1486
  657ERGO    R3 9296  15.064  15.321   8.988 -0.0201  0.1349 -0.0954
  657ERGO    R4 9297  14.861  15.416   8.800  0.2299  0.5182 -0.1834
  657ERGO    R5 9298  14.932  15.211   8.821 -0.0690  0.4033 -0.2386
  657ERGO    C1 9299  15.018  15.273   8.455  0.2555  0.4746 -0.1538
  657ERGO    C2 9300  15.123  15.346   8.187  0.1523  0.0786  0.0449
  658ERGO   ROH 9301  14.508   6.060   6.187 -0.0722 -0.1399 -0.0259
  658ERGO    R1 9302  14.707   6.034   6.388 -0.0316 -0.0077 -0.0444
  658ERGO    R2 9303  14.738   6.220   6.591 -0.2212 -0.0342  0.0255
  658ERGO    R3 9304  14.713   6.001   6.750  0.0045 -0.1352 -0.0546
  658ERGO    R4 9305  14.840   6.200   6.921 -0.1864 -0.0723  0.0111
  658ERGO    R5 9306  14.912   5.999   6.883  0.0165  0.0068 -0.0701
  658ERGO    C1 9307  14.875   5.983   7.262  0.0457 -0.1894 -0.0726
  658ERGO    C2 9308  14.961   5.996   7.538  0.2128 -0.0679  0.2005
  659ERGO   ROH 9309  17.367   3.411   5.960 -0.0654 -0.0552 -0.1771
  659ERGO    R1 9310  17.407   3.347   6.233 -0.0288  0.0041 -0.1676
  659ERGO    R2 9311  17.538   3.516   6.407  0.0222  0.0316 -0.2256
  659ERGO    R3 9312  17.310   3.489   6.554  0.0402  0.0937 -0.1874
  659ERGO    R4 9313  17.526   3.500   6.752  0.0899 -0.1744 -0.2320
  659ERGO    R5 9314  17.374   3.345   6.735 -0.0156 -0.0593 -0.2912
  659ERGO    C1 9315  17.306   3.465   7.091  0.1463 -0.2360 -0.1998
  659ERGO    C2 9316  17.152   3.529   7.401 -0.1896 -0.4841 -0.1156
  660ERGO   ROH 9317   9.308  18.047   9.500 -0.0641 -0.0281 -0.0120
  660ERGO    R1 9318   9.462  18.036   9.263 -0.1211  0.1185 -0.0567
  660ERGO    R2 9319   9.451  17.821   9.089 -0.0128  0.1373 -0.0813
  660ERGO    R3 9320   9.396  18.015   8.906 -0.2027  0.1214 -0.0434
  660ERGO    R4 9321   9.423  17.770   8.748 -0.0096  0.1575 -0.0848
  660ERGO    R5 9322   9.529  17.957   8.716 -0.1714  0.2601 -0.0691
  660ERGO    C1 9323   9.354  17.922   8.378 -0.1861  0.1542 -0.0512
  660ERGO    C2 9324   9.289  17.982   8.127  0.2830  0.1394  0.0669
  661ERGO   ROH 9325   8.901  14.622   8.248 -0.0871 -0.2013  0.3881
  661ERGO    R1 9326   8.783  14.387   8.142  0.0211 -0.2627  0.4033
  661ERGO    R2 9327   8.807  14.316   7.877 -0.2401 -0.0810  0.3278
  661ERGO    R3 9328   8.900  14.083   7.981  0.1382 -0.0510  0.0783
  661ERGO    R4 9329   8.804  14.012   7.713 -0.2731 -0.0216  0.2166
  661ERGO    R5 9330   8.747  13.917   7.900  0.1324 -0.1454  0.2838
  661ERGO    C1 9331   8.890  13.616   7.715  0.0627  0.0411 -0.0823
  661ERGO    C2 9332   9.016  13.520   7.373 -0.2737 -0.3270  0.0920
  662ERGO   ROH 9333  17.825  17.235   9.020  0.1058  0.2462  0.0333
  662ERGO    R1 9334  17.774  17.267   8.743  0.2381  0.2451  0.0077
  662ERGO    R2 9335  17.907  17.454   8.588  0.4238  0.1445  0.0346
  662ERGO    R3 9336  17.966  17.238   8.435  0.3475  0.0842  0.0905
  662ERGO    R4 9337  18.002  17.467   8.256  0.2240  0.0034 -0.0297
  662ERGO    R5 9338  17.878  17.292   8.219  0.2163 -0.0195  0.1198
  662ERGO    C1 9339  18.113  17.272   7.919  0.0361 -0.1356 -0.0146
  662ERGO    C2 9340  18.317  17.089   7.705  0.0969  0.2110 -0.2024
  663ERGO   ROH 9341  17.014  17.608   9.252  0.1411  0.0746 -0.0521
  663ERGO    R1 9342  16.882  17.609   9.002 -0.0073  0.0424  0.0254
  663ERGO    R2 9343  16.842  17.840   8.856 -0.0496  0.0160 -0.0033
  663ERGO    R3 9344  16.965  17.698   8.659 -0.1942 -0.0517 -0.0461
  663ERGO    R4 9345  16.842  17.928   8.521  0.0137  0.1051  0.0198
  663ERGO    R5 9346  16.816  17.717   8.471 -0.1904  0.1396 -0.0337
  663ERGO    C1 9347  16.958  17.846   8.142 -0.0849  0.0935 -0.0069
  663ERGO    C2 9348  16.844  18.042   7.925  0.1540 -0.1229  0.2687
  664ERGO   ROH 9349   6.368  13.317   6.611 -0.0106 -0.1073  0.0838
  664ERGO    R1 9350   6.179  13.432   6.789  0.1271  0.1804  0.0497
  664ERGO    R2 9351   6.067  13.290   6.999 -0.2117  0.3099 -0.0377
  664ERGO    R3 9352   6.160  13.499   7.146  0.1186  0.0980  0.0650
  664ERGO    R4 9353   5.923  13.409   7.290  0.0807  0.2851  0.1217
  664ERGO    R5 9354   5.964  13.612   7.222  0.2911  0.2859  0.2441
  664ERGO    C1 9355   5.927  13.675   7.596  0.5612  0.0718  0.3108
  664ERGO    C2 9356   6.133  13.890   7.852 -0.2410  0.0195  0.2514
  665ERGO   ROH 9357  10.270  17.613   5.934  0.1580  0.1482 -0.0691
  665ERGO    R1 9358  10.334  17.471   6.171 -0.0148  0.1210 -0.0375
  665ERGO    R2 9359  10.509  17.570   6.361  0.0805 -0.0336 -0.0452
  665ERGO    R3 9360  10.300  17.525   6.529  0.0171  0.2262 -0.0497
  665ERGO    R4 9361  10.537  17.527   6.702  0.0455 -0.2578 -0.0688
  665ERGO    R5 9362  10.386  17.370   6.690 -0.2222 -0.0052 -0.1374
  665ERGO    C1 9363  10.357  17.459   7.059 -0.0344 -0.1445 -0.0868
  665ERGO    C2 9364  10.202  17.549   7.268  0.2275 -0.0106  0.4620
  666ERGO   ROH 9365   5.720  11.514   9.824 -0.2228 -0.1475  0.2208
  666ERGO    R1 9366   5.701  11.517   9.541 -0.0755 -0.1719  0.2106
  666ERGO    R2 9367   5.921  11.482   9.377  0.0092 -0.1829  0.3299
  666ERGO    R3 9368   5.769  11.284   9.270  0.0686 -0.1936  0.2632
  666ERGO    R4 9369   5.981  11.329   9.073 -0.0878  0.1198  0.1533
  666ERGO    R5 9370   5.767  11.331   9.035 -0.1192  0.0110  0.3001
  666ERGO    C1 9371   5.874  11.054   8.796 -0.0885  0.2859 -0.0123
  666ERGO    C2 9372   5.730  10.883   8.438 -0.4104 -0.0571 -0.0560
  667ERGO   ROH 9373   5.282  13.768   6.541  0.1717 -0.0621 -0.0049
  667ERGO    R1 9374   5.267  13.834   6.816  0.1137 -0.0906 -0.0008
  667ERGO    R2 9375   5.066  13.992   6.921  0.1246 -0.0518 -0.0369
  667ERGO    R3 9376   5.032  13.780   7.089  0.0258 -0.0632 -0.0709
  667ERGO    R4 9377   4.888  14.001   7.217  0.0217 -0.0498 -0.0986
  667ERGO    R5 9378   5.042  13.876   7.308 -0.0336 -0.0882 -0.0573
  667ERGO    C1 9379   4.752  13.807   7.547 -0.1310 -0.0594 -0.1665
  667ERGO    C2 9380   4.728  13.643   7.931 -0.0969  0.0320  0.1579
  668ERGO   ROH 9381  10.150   8.422   9.555 -0.1374 -0.0627 -0.0007
  668ERGO    R1 9382  10.308   8.407   9.321 -0.0908  0.1307  0.0161
  668ERGO    R2 9383  10.240   8.248   9.106  0.1585 -0.0060  0.0311
  668ERGO    R3 9384  10.264   8.480   8.967 -0.1684  0.0139  0.0014
  668ERGO    R4 9385  10.358   8.273   8.782  0.5084  0.1524  0.1667
  668ERGO    R5 9386  10.466   8.454   8.841  0.0552  0.4071  0.2560
  668ERGO    C1 9387  10.450   8.506   8.463  0.4053  0.2633  0.2177
  668ERGO    C2 9388  10.481   8.494   8.104 -0.3086  0.2030 -0.0688
  669ERGO   ROH 9389   2.771   5.198   5.939 -0.2246 -0.0637 -0.0737
  669ERGO    R1 9390   2.628   5.348   6.132 -0.1396  0.0461 -0.0938
  669ERGO    R2 9391   2.653   5.303   6.404 -0.1960  0.0417 -0.0854
  669ERGO    R3 9392   2.711   5.569   6.409 -0.0096  0.0018 -0.0978
  669ERGO    R4 9393   2.599   5.512   6.675  0.0428  0.0766 -0.0638
  669ERGO    R5 9394   2.532   5.666   6.536  0.1033  0.1251 -0.0350
  669ERGO    C1 9395   2.622   5.882   6.837  0.3570  0.0595 -0.0630
  669ERGO    C2 9396   2.637   6.009   7.138 -0.0471  0.2040  0.3040
  670ERGO   ROH 9397  11.007  14.957   9.510  0.5677 -0.1459  0.0632
  670ERGO    R1 9398  10.869  14.920   9.266  0.2881 -0.1951  0.2235
  670ERGO    R2 9399  10.952  15.036   9.029 -0.1279 -0.0297  0.1508
  670ERGO    R3 9400  10.945  14.780   8.938  0.0090 -0.0067  0.0741
  670ERGO    R4 9401  10.989  14.943   8.699 -0.3382  0.1149  0.0851
  670ERGO    R5 9402  10.832  14.795   8.728 -0.1899 -0.0290  0.1768
  670ERGO    C1 9403  11.003  14.648   8.421 -0.3322  0.2206 -0.0253
  670ERGO    C2 9404  11.220  14.574   8.130 -0.3619  0.0248  0.2023
  671ERGO   ROH 9405   2.008   0.396   5.413  0.1027 -0.1403 -0.0710
  671ERGO    R1 9406   2.147   0.409   5.659  0.0527 -0.0126 -0.0487
  671ERGO    R2 9407   2.072   0.579   5.864 -0.0185  0.0582 -0.1332
  671ERGO    R3 9408   2.069   0.350   6.010 -0.0039  0.1182 -0.0383
  671ERGO    R4 9409   2.009   0.562   6.203 -0.0221  0.1964 -0.1265
  671ERGO    R5 9410   2.167   0.412   6.220 -0.0109  0.2136 -0.0623
  671ERGO    C1 9411   1.970   0.337   6.538 -0.0105  0.3332 -0.0336
  671ERGO    C2 9412   1.972   0.384   6.813  0.0655  0.3182 -0.3962
  672ERGO   ROH 9413   9.910   5.807   6.059  0.0412  0.0897  0.1192
  672ERGO    R1 9414   9.964   5.927   6.309 -0.0873  0.0021  0.1899
  672ERGO    R2 9415   9.773   5.948   6.508 -0.1445 -0.2167  0.1626
  672ERGO    R3 9416   9.962   5.822   6.658 -0.0946 -0.1715  0.1384
  672ERGO    R4 9417   9.782   5.945   6.854  0.0433 -0.0099  0.1621
  672ERGO    R5 9418   9.998   5.968   6.844  0.0432 -0.0683  0.0309
  672ERGO    C1 9419   9.964   5.825   7.196  0.1996  0.1530  0.1391
  672ERGO    C2 9420   9.764   5.700   7.568 -0.3064 -0.1249 -0.1404
  673ERGO   ROH 9421  18.327  11.002   9.729 -0.1181 -0.1405  0.0766
  673ERGO    R1 9422  18.366  10.942   9.454 -0.1116 -0.1861  0.0876
  673ERGO    R2 9423  18.155  10.916   9.277 -0.0968  0.0128  0.0406
  673ERGO    R3 9424  18.293  11.103   9.136  0.1185 -0.1237  0.0640
  673ERGO    R4 9425  18.185  10.923   8.933  0.0268 -0.0601  0.0494
  673ERGO    R5 9426  18.393  10.982   8.957  0.0746 -0.2391  0.1142
  673ERGO    C1 9427  18.332  11.103   8.600  0.3011 -0.2307  0.0763
  673ERGO    C2 9428  18.325  11.144   8.248 -0.0243 -0.1391  0.1653
  674ERGO   ROH 9429  14.477  11.211   6.419  0.0124  0.2770 -0.0218
  674ERGO    R1 9430  14.324  11.245   6.655  0.2009  0.4059  0.0821
  674ERGO    R2 9431  14.252  11.034   6.818 -0.1362  0.4231 -0.0511
  674ERGO    R3 9432  14.371  11.184   7.011  0.2653  0.0432  0.0179
  674ERGO    R4 9433  14.204  10.993   7.158 -0.1869  0.3323 -0.0675
  674ERGO    R5 9434  14.202  11.210   7.178  0.3338  0.3500  0.0562
  674ERGO    C1 9435  14.288  11.111   7.536  0.1604 -0.0772 -0.0123
  674ERGO    C2 9436  14.402  11.315   7.720 -0.0891 -0.0573 -0.2159
  675PSPI    C1 9437   6.079  11.738   5.611 -0.2058  0.2687 -0.2038
  675PSPI    C2 9438   6.460  11.792   5.504 -0.1256 -0.2462 -0.2005
  675PSPI    C3 9439   6.166  11.914   5.262  0.0383  0.0507 -0.2553
  675PSPI   PO4 9440   6.050  11.757   5.955 -0.2366 -0.3573 -0.0758
  675PSPI   GL1 9441   6.120  11.876   6.358 -0.0408 -0.0706  0.2481
  675PSPI   GL2 9442   6.310  12.073   6.367 -0.0056  0.0300 -0.0924
  675PSPI   C1A 9443   5.907  11.647   6.709 -0.1005  0.0317 -0.1712
  675PSPI   C2A 9444   5.717  11.557   7.001 -0.0477  0.1298 -0.1958
  675PSPI   C3A 9445   5.733  11.374   7.370 -0.0899 -0.2174  0.1255
  675PSPI   C4A 9446   5.793  11.261   7.805  0.1176  0.2207 -0.1353
  675PSPI   C1B 9447   6.310  11.914   6.835  0.2031  0.0473 -0.1375
  675PSPI   C2B 9448   6.069  11.883   7.313  0.1004  0.1299  0.1661
  675PSPI   C3B 9449   5.925  12.047   7.728 -0.2315 -0.6410  0.0479
  675PSPI   C4B 9450   5.696  12.229   8.091  0.2099 -0.2553 -0.1768
  676PSPI    C1 9451  16.601   0.717   5.178 -0.0838  0.1032  0.0157
  676PSPI    C2 9452  16.817   1.035   5.071  0.0260  0.0937  0.2042
  676PSPI    C3 9453  17.000   0.695   5.174 -0.0761  0.0968  0.3996
  676PSPI   PO4 9454  16.378   0.837   5.367  0.0308 -0.1398  0.0161
  676PSPI   GL1 9455  16.029   0.789   5.650  0.2014  0.1692 -0.1517
  676PSPI   GL2 9456  16.347   0.898   5.892  0.0319  0.1162  0.0829
  676PSPI   C1A 9457  15.886   0.765   6.076  0.0692 -0.2171 -0.2464
  676PSPI   C2A 9458  15.886   0.688   6.578 -0.1069  0.0039  0.1068
  676PSPI   C3A 9459  15.763   0.675   6.980 -0.2724  0.0151  0.0171
  676PSPI   C4A 9460  15.654   0.349   7.235 -0.2008  0.2866  0.1243
  676PSPI   C1B 9461  16.485   0.600   6.171 -0.0955 -0.1253  0.0549
  676PSPI   C2B 9462  16.247   0.198   6.366 -0.1089  0.0699  0.1858
  676PSPI   C3B 9463  15.847   0.135   6.826 -0.1690  0.0392 -0.0254
  676PSPI   C4B 9464  15.977  -0.077   7.252 -0.0910 -0.1344  0.3277
  677PSPI    C1 9465  17.221  12.927   5.316 -0.0184  0.1873 -0.1572
  677PSPI    C2 9466  17.481  12.891   5.013 -0.1211 -0.3964 -0.1870
  677PSPI    C3 9467  17.094  12.805   4.957 -0.2835  0.2087 -0.0728
  677PSPI   PO4 9468  17.483  12.955   5.512 -0.3663  0.2906  0.1216
  677PSPI   GL1 9469  17.407  13.006   6.031 -0.1925  0.3657  0.1423
  677PSPI   GL2 9470  17.509  13.300   6.148 -0.1644 -0.0611 -0.1247
  677PSPI   C1A 9471  17.311  12.760   6.361 -0.1710 -0.3832  0.0345
  677PSPI   C2A 9472  17.545  12.335   6.309  0.2775 -0.0554  0.2182
  677PSPI   C3A 9473  17.352  11.932   6.129 -0.6479 -0.0097 -0.3625
  677PSPI   C4A 9474  17.591  11.496   5.929 -0.0628  0.0043 -0.2391
  677PSPI   C1B 9475  17.655  13.150   6.403  0.1945 -0.1997  0.2079
  677PSPI   C2B 9476  17.777  13.180   6.860 -0.4104  0.1348  0.2016
  677PSPI   C3B 9477  17.585  13.435   7.111 -0.1154  0.4175  0.1800
  677PSPI   C4B 9478  17.386  13.467   7.534  0.0774  0.1607  0.0811
  678PSPI    C1 9479   3.909   7.735   5.828  0.0827  0.0617 -0.0913
  678PSPI    C2 9480   4.020   7.409   6.031  0.1502  0.0467 -0.1522
  678PSPI    C3 9481   4.297   7.649   5.871  0.0947 -0.0203 -0.3514
  678PSPI   PO4 9482   3.648   7.727   5.957  0.1951 -0.0276  0.2502
  678PSPI   GL1 9483   3.607   7.542   6.278 -0.0317  0.1545  0.2951
  678PSPI   GL2 9484   3.566   7.211   6.233 -0.2765  0.1437 -0.0248
  678PSPI   C1A 9485   3.588   7.788   6.691 -0.0046  0.0063 -0.1034
  678PSPI   C2A 9486   3.411   7.767   7.074  0.0307  0.5410  0.1211
  678PSPI   C3A 9487   3.562   7.989   7.369  0.2013  0.1118 -0.1171
  678PSPI   C4A 9488   3.836   8.064   7.562 -0.0630  0.1107 -0.2125
  678PSPI   C1B 9489   3.591   7.277   6.663  0.1450  0.2283  0.2470
  678PSPI   C2B 9490   3.506   7.247   7.124  0.1029 -0.0822 -0.1431
  678PSPI   C3B 9491   3.106   7.366   7.340 -0.0364 -0.2543 -0.1996
  678PSPI   C4B 9492   2.711   7.237   7.443  0.0468  0.3434  0.1624
  679PSPI    C1 9493  15.812   2.573   5.495  0.0814  0.1390  0.0421
  679PSPI    C2 9494  15.540   2.416   5.247  0.1410  0.2175 -0.0737
  679PSPI    C3 9495  15.916   2.472   5.122  0.2207  0.0738  0.0977
  679PSPI   PO4 9496  15.699   2.723   5.651  0.2280  0.3335 -0.4069
  679PSPI   GL1 9497  15.403   3.059   5.789  0.1482  0.1652 -0.1768
  679PSPI   GL2 9498  15.750   3.133   5.878 -0.0357  0.2991  0.0373
  679PSPI   C1A 9499  15.420   2.977   6.301 -0.4585  0.0069 -0.2404
  679PSPI   C2A 9500  15.240   2.928   6.736 -0.1349  0.1518  0.0885
  679PSPI   C3A 9501  15.116   2.602   7.223 -0.2440  0.0714  0.2120
  679PSPI   C4A 9502  14.782   2.403   7.388  0.0309 -0.0837  0.1950
  679PSPI   C1B 9503  15.968   3.188   6.229 -0.2327  0.0872 -0.0437
  679PSPI   C2B 9504  16.040   2.949   6.608 -0.1154 -0.1022  0.1086
  679PSPI   C3B 9505  15.902   2.846   6.961  0.0264 -0.0515  0.0667
  679PSPI   C4B 9506  15.641   2.873   7.308 -0.0255  0.1428  0.1604
  680PSPI    C1 9507  10.582  12.487   5.639  0.0988  0.3973 -0.2893
  680PSPI    C2 9508  10.581  12.143   5.435 -0.2692  0.0332  0.2990
  680PSPI    C3 9509  10.338  12.441   5.325 -0.2237 -0.0327  0.0132
  680PSPI   PO4 9510  10.698  12.316   5.929  0.2383 -0.1723  0.0331
  680PSPI   GL1 9511  10.436  12.377   6.340 -0.2765  0.1341 -0.0221
  680PSPI   GL2 9512  10.573  12.066   6.405  0.0526  0.0171 -0.1674
  680PSPI   C1A 9513  10.139  12.124   6.555 -0.0027 -0.1621 -0.0064
  680PSPI   C2A 9514  10.127  12.136   6.953 -0.3100 -0.1212 -0.0364
  680PSPI   C3A 9515  10.255  12.115   7.377 -0.3382  0.0075 -0.1752
  680PSPI   C4A 9516  10.575  11.804   7.680 -0.0932 -0.3278  0.2511
  680PSPI   C1B 9517  10.660  12.229   6.805 -0.2362  0.2176  0.1229
  680PSPI   C2B 9518  10.686  12.444   7.175  0.0903 -0.0029  0.2605
  680PSPI   C3B 9519  10.836  12.762   7.538  0.1705  0.1980 -0.1323
  680PSPI   C4B 9520  11.200  12.806   7.775  0.1418  0.0943 -0.0229
  681PSPI    C1 9521   6.530  18.596   5.262  0.0791  0.0027 -0.0816
  681PSPI    C2 9522   6.671  18.956   5.366  0.1100  0.0245 -0.1980
  681PSPI    C3 9523   6.381  18.925   5.092 -0.1836 -0.0139  0.1106
  681PSPI   PO4 9524   6.567  18.459   5.531 -0.1764 -0.3436 -0.0803
  681PSPI   GL1 9525   6.847  18.607   5.796 -0.1458 -0.1531  0.0541
  681PSPI   GL2 9526   7.149  18.415   5.895  0.0628 -0.2430 -0.0096
  681PSPI   C1A 9527   6.853  18.802   6.177  0.1655  0.0304 -0.1226
  681PSPI   C2A 9528   6.710  19.067   6.354  0.0806  0.0515  0.0023
  681PSPI   C3A 9529   6.651  19.289   6.688 -0.2060  0.3581 -0.0959
  681PSPI   C4A 9530   6.832  19.221   7.128  0.1786  0.1452  0.0283
  681PSPI   C1B 9531   7.236  18.319   6.228  0.0053 -0.1039  0.0222
  681PSPI   C2B 9532   7.794  18.411   6.265  0.0092  0.0789  0.2188
  681PSPI   C3B 9533   8.220  18.314   6.331  0.1364  0.1807 -0.2739
  681PSPI   C4B 9534   8.611  18.077   6.353  0.0576 -0.0345 -0.6141
  682PSPI    C1 9535  11.409  14.083   5.705  0.1021  0.1774 -0.0094
  682PSPI    C2 9536  11.014  14.022   5.700  0.1452 -0.1129 -0.0718
  682PSPI    C3 9537  11.180  14.280   5.444 -0.0096  0.0571 -0.0034
  682PSPI   PO4 9538  11.473  14.142   5.924  0.2926 -0.2302  0.0576
  682PSPI   GL1 9539  11.471  13.967   6.250 -0.1003 -0.0072  0.0107
  682PSPI   GL2 9540  11.453  14.244   6.481 -0.0864  0.2341  0.2876
  682PSPI   C1A 9541  11.783  13.898   6.575 -0.1171 -0.2445 -0.0448
  682PSPI   C2A 9542  11.799  14.015   7.045  0.2164 -0.3413  0.0263
  682PSPI   C3A 9543  11.974  13.788   7.425  0.0009  0.0356 -0.0370
  682PSPI   C4A 9544  12.292  13.791   7.856 -0.1448 -0.1030  0.4358
  682PSPI   C1B 9545  11.832  14.433   6.689 -0.0994  0.1112  0.0577
  682PSPI   C2B 9546  12.231  14.287   6.923 -0.3561 -0.1120  0.0399
  682PSPI   C3B 9547  12.218  14.289   7.348  0.0859 -0.1276 -0.0965
  682PSPI   C4B 9548  11.949  14.190   7.667  0.2396  0.0633 -0.3001
  683PSPI    C1 9549  10.516  14.298   5.890 -0.3188 -0.4993 -0.0297
  683PSPI    C2 9550  10.574  14.252   5.497 -0.5111 -0.2154 -0.0944
  683PSPI    C3 9551  10.324  14.534   5.630  0.0085  0.0988  0.2521
  683PSPI   PO4 9552  10.665  14.372   6.002 -0.2178 -0.0951  0.3028
  683PSPI   GL1 9553  10.736  14.771   6.427  0.0655 -0.2138 -0.2018
  683PSPI   GL2 9554  10.969  14.622   6.380 -0.0346 -0.1562 -0.1657
  683PSPI   C1A 9555  10.329  14.868   6.741 -0.0506 -0.0746  0.2378
  683PSPI   C2A 9556  10.203  15.091   7.137 -0.0695  0.0850 -0.0825
  683PSPI   C3A 9557  10.367  15.248   7.485 -0.0319 -0.1030  0.0251
  683PSPI   C4A 9558  10.477  15.420   7.882 -0.5441 -0.2544  0.1444
  683PSPI   C1B 9559  11.205  14.763   6.727 -0.1186 -0.0775  0.3820
  683PSPI   C2B 9560  11.561  14.872   6.945 -0.3148  0.0370 -0.0317
  683PSPI   C3B 9561  11.660  15.056   7.339 -0.0842 -0.2166  0.1445
  683PSPI   C4B 9562  11.693  15.402   7.408 -0.1122  0.2609 -0.3722
  684PSPI    C1 9563   0.231   4.587   5.039 -0.0310 -0.2323 -0.0258
  684PSPI    C2 9564   0.111   4.727   5.394  0.1459 -0.0648 -0.0307
  684PSPI    C3 9565   0.006   4.917   5.058  0.1718 -0.0907 -0.0535
  684PSPI   PO4 9566   0.471   4.488   5.170  0.2147 -0.0485 -0.0632
  684PSPI   GL1 9567   0.452   4.450   5.624 -0.1772  0.0422  0.5254
  684PSPI   GL2 9568   0.587   4.769   5.738 -0.0008  0.4120 -0.0932
  684PSPI   C1A 9569   0.164   4.376   5.912  0.0594  0.0520  0.0988
  684PSPI   C2A 9570  -0.064   4.422   6.235 -0.1698  0.0929  0.0202
  684PSPI   C3A 9571  -0.056   4.420   6.744  0.2364  0.3690 -0.0966
  684PSPI   C4A 9572  -0.124   4.424   7.201  0.1146 -0.3537 -0.0183
  684PSPI   C1B 9573   0.430   4.758   6.092 -0.3389 -0.2070 -0.1462
  684PSPI   C2B 9574   0.616   4.767   6.565  0.3158  0.1964 -0.1788
  684PSPI   C3B 9575   0.866   4.409   6.785  0.1168  0.0091  0.2205
  684PSPI   C4B 9576   0.785   4.159   7.099 -0.1305 -0.0509  0.0441
  685PSPI    C1 9577  12.956   6.035   5.556 -0.1195  0.0011 -0.3693
  685PSPI    C2 9578  13.278   5.985   5.325  0.2442  0.0931  0.1031
  685PSPI    C3 9579  13.212   5.738   5.632 -0.1543  0.0601 -0.0034
  685PSPI   PO4 9580  13.008   6.278   5.699 -0.3258 -0.2349 -0.2499
  685PSPI   GL1 9581  13.098   6.356   6.217  0.2019  0.0488  0.1061
  685PSPI   GL2 9582  13.232   6.056   6.178  0.0323  0.0046  0.0114
  685PSPI   C1A 9583  12.950   6.679   6.470 -0.6459 -0.1575  0.3902
  685PSPI   C2A 9584  12.983   6.777   6.913  0.3365  0.2147  0.2095
  685PSPI   C3A 9585  13.034   6.905   7.311 -0.2648 -0.0004  0.1634
  685PSPI   C4A 9586  13.145   6.704   7.697  0.0309 -0.0150 -0.1724
  685PSPI   C1B 9587  13.318   5.811   6.505  0.0142  0.1096  0.1744
  685PSPI   C2B 9588  13.517   5.717   6.869  0.2429 -0.0484 -0.1230
  685PSPI   C3B 9589  13.940   5.551   6.943 -0.1387  0.0546 -0.1291
  685PSPI   C4B 9590  14.354   5.652   7.005 -0.0413  0.1856  0.0725
  686PSPI    C1 9591  12.108  12.221   5.440  0.0079  0.1929 -0.1529
  686PSPI    C2 9592  12.374  12.512   5.508  0.1514 -0.0036  0.1489
  686PSPI    C3 9593  12.041  12.490   5.728 -0.0222  0.1251 -0.0962
  686PSPI   PO4 9594  12.358  11.978   5.334 -0.1845  0.1202  0.0448
  686PSPI   GL1 9595  12.570  11.720   5.668  0.0390 -0.2881 -0.0643
  686PSPI   GL2 9596  12.416  11.378   5.663 -0.2234 -0.2342 -0.4055
  686PSPI   C1A 9597  12.516  11.642   6.161  0.0214  0.0510 -0.2039
  686PSPI   C2A 9598  12.391  11.873   6.545 -0.3944  0.1859  0.1258
  686PSPI   C3A 9599  12.489  11.853   6.977 -0.4707 -0.0741 -0.1371
  686PSPI   C4A 9600  12.493  12.097   7.352  0.0613  0.0395 -0.2462
  686PSPI   C1B 9601  12.428  11.145   6.045  0.0966  0.3683 -0.1423
  686PSPI   C2B 9602  12.250  10.988   6.475  0.2207  0.0906 -0.0044
  686PSPI   C3B 9603  12.054  10.819   6.962 -0.1549  0.3243 -0.0381
  686PSPI   C4B 9604  12.270  10.744   7.519 -0.3773  0.1054 -0.0230
  687PSPI    C1 9605  11.320  10.517   5.526  0.0865 -0.0716  0.1497
  687PSPI    C2 9606  11.634  10.352   5.341  0.0403 -0.0196  0.0234
  687PSPI    C3 9607  11.479  10.694   5.203 -0.1267 -0.0909  0.0326
  687PSPI   PO4 9608  11.426  10.468   5.806  0.1076 -0.0111  0.0699
  687PSPI   GL1 9609  11.597  10.691   6.128 -0.2269 -0.1575 -0.0977
  687PSPI   GL2 9610  11.303  10.804   6.237 -0.2885 -0.2913 -0.1054
  687PSPI   C1A 9611  11.961  10.552   6.283  0.1798 -0.3677  0.2006
  687PSPI   C2A 9612  12.161  10.460   6.604 -0.0568  0.0807  0.0863
  687PSPI   C3A 9613  12.279  10.380   6.915  0.3114  0.1677 -0.0685
  687PSPI   C4A 9614  12.017  10.373   7.233  0.1587 -0.1718  0.1319
  687PSPI   C1B 9615  11.196  10.715   6.617  0.0678  0.0413  0.1185
  687PSPI   C2B 9616  11.115  10.670   6.985  0.0568 -0.0830  0.2146
  687PSPI   C3B 9617  10.940  10.396   7.303 -0.0239 -0.1410 -0.2852
  687PSPI   C4B 9618  10.923  10.381   7.705 -0.0202  0.2106  0.0301
  688PSPI    C1 9619   2.062  16.347   5.660  0.0507 -0.0162 -0.0274
  688PSPI    C2 9620   2.003  16.057   5.391  0.2438 -0.0383 -0.0474
  688PSPI    C3 9621   1.984  16.441   5.279  0.1626 -0.0452 -0.0578
  688PSPI   PO4 9622   1.880  16.307   5.799  0.3022  0.1258  0.1271
  688PSPI   GL1 9623   1.820  16.250   6.202 -0.3198 -0.0366  0.1950
  688PSPI   GL2 9624   1.684  15.972   6.138 -0.2859 -0.1110  0.2479
  688PSPI   C1A 9625   1.887  16.389   6.680  0.0665  0.0892  0.1495
  688PSPI   C2A 9626   1.878  16.433   7.148 -0.2400  0.2869 -0.0381
  688PSPI   C3A 9627   1.873  16.805   7.514 -0.1812 -0.1869  0.2345
  688PSPI   C4A 9628   1.997  17.248   7.562 -0.3712  0.0548  0.0249
  688PSPI   C1B 9629   1.771  15.859   6.553  0.0958  0.0340 -0.1371
  688PSPI   C2B 9630   1.862  15.947   6.985 -0.0213  0.1748 -0.0789
  688PSPI   C3B 9631   2.130  15.950   7.348  0.4295 -0.0256 -0.3708
  688PSPI   C4B 9632   2.192  15.851   7.764 -0.1893  0.1020  0.0136
  689PSPI    C1 9633  18.589   8.656   5.563 -0.2203 -0.0689  0.1826
  689PSPI    C2 9634  18.280   8.908   5.598 -0.1433  0.0719 -0.1186
  689PSPI    C3 9635  18.309   8.672   5.277 -0.1016 -0.1695  0.0599
  689PSPI   PO4 9636  18.684   8.672   5.871 -0.1687 -0.1477 -0.1478
  689PSPI   GL1 9637  18.600   8.912   6.355  0.1495 -0.0888  0.1874
  689PSPI   GL2 9638  18.558   8.579   6.490 -0.1180 -0.3682  0.1594
  689PSPI   C1A 9639  18.998   8.846   6.524  0.2030  0.1892  0.1562
  689PSPI   C2A 9640  19.174   8.709   6.771 -0.0343  0.3143  0.0189
  689PSPI   C3A 9641  19.466   8.539   7.063 -0.2238 -0.0943  0.0338
  689PSPI   C4A 9642  19.921   8.507   7.082  0.0469 -0.0229  0.2410
  689PSPI   C1B 9643  18.729   8.502   6.799  0.1445 -0.0667 -0.0791
  689PSPI   C2B 9644  18.897   8.573   7.190  0.1018 -0.1938  0.0335
  689PSPI   C3B 9645  19.218   8.315   7.480 -0.1808  0.1430  0.0935
  689PSPI   C4B 9646  19.555   8.455   7.616 -0.1150  0.1420  0.0207
  690PSPI    C1 9647   2.189   9.176   5.710 -0.1982 -0.1523  0.0123
  690PSPI    C2 9648   2.436   8.900   5.861 -0.0133 -0.0880 -0.1680
  690PSPI    C3 9649   2.511   9.062   5.503 -0.3311 -0.0838 -0.2364
  690PSPI   PO4 9650   2.040   9.286   5.938 -0.0808 -0.1944  0.3304
  690PSPI   GL1 9651   1.744   9.382   6.318 -0.1170 -0.0553  0.0830
  690PSPI   GL2 9652   1.781   9.037   6.346  0.1787  0.1256 -0.0861
  690PSPI   C1A 9653   1.816   9.395   6.746 -0.1658 -0.1806 -0.2866
  690PSPI   C2A 9654   1.850   9.470   7.294  0.2958 -0.3497 -0.0648
  690PSPI   C3A 9655   1.708   9.426   7.738 -0.0559  0.0920 -0.1536
  690PSPI   C4A 9656   1.874   9.161   8.119  0.0770  0.0484 -0.1060
  690PSPI   C1B 9657   1.937   8.797   6.639  0.1887 -0.3737  0.0604
  690PSPI   C2B 9658   1.700   8.679   6.964  0.1305 -0.0706  0.1615
  690PSPI   C3B 9659   1.448   8.949   7.110 -0.1281  0.1633 -0.0635
  690PSPI   C4B 9660   1.091   8.933   7.311  0.1655  0.1421  0.4725
  691PSPI    C1 9661  18.466   3.337   5.433  0.0464  0.3190 -0.0438
  691PSPI    C2 9662  18.573   3.601   5.714  0.2036  0.1730  0.0355
  691PSPI    C3 9663  18.819   3.523   5.408  0.1806  0.0798  0.0407
  691PSPI   PO4 9664  18.183   3.414   5.460  0.1838  0.3733 -0.1972
  691PSPI   GL1 9665  18.092   3.594   5.799  0.3987 -0.1726  0.5118
  691PSPI   GL2 9666  17.745   3.773   5.833 -0.0239  0.0787 -0.1091
  691PSPI   C1A 9667  18.318   3.340   6.081 -0.0899 -0.1549  0.0165
  691PSPI   C2A 9668  18.398   3.461   6.520  0.0983  0.6787  0.0067
  691PSPI   C3A 9669  18.475   3.494   6.994 -0.0048 -0.1611 -0.0292
  691PSPI   C4A 9670  18.661   3.481   7.355 -0.1474 -0.2383  0.0027
  691PSPI   C1B 9671  17.980   3.728   6.224 -0.0324  0.3388  0.2394
  691PSPI   C2B 9672  17.943   3.806   6.590  0.0283 -0.0508 -0.0574
  691PSPI   C3B 9673  17.994   3.566   6.910  0.1076  0.2784 -0.2637
  691PSPI   C4B 9674  17.790   3.331   7.191  0.0025  0.2631  0.2597
  692PSPI    C1 9675   3.284  10.100   5.833  0.1762 -0.0347  0.0105
  692PSPI    C2 9676   3.509  10.395   5.683 -0.1073  0.0897 -0.1788
  692PSPI    C3 9677   3.594  10.015   5.594  0.0650  0.1312 -0.1961
  692PSPI   PO4 9678   3.163   9.994   6.089 -0.0770 -0.0107  0.0045
  692PSPI   GL1 9679   3.193  10.228   6.435  0.4642 -0.1679 -0.2148
  692PSPI   GL2 9680   2.904  10.225   6.446  0.0062  0.0743 -0.2183
  692PSPI   C1A 9681   3.136  10.128   6.862 -0.0774 -0.1775  0.2386
  692PSPI   C2A 9682   2.805  10.003   7.184 -0.2511 -0.1875 -0.0460
  692PSPI   C3A 9683   2.908   9.652   7.465  0.0405 -0.2076  0.1665
  692PSPI   C4A 9684   2.663   9.569   7.886 -0.1699 -0.2026 -0.1348
  692PSPI   C1B 9685   2.614  10.147   6.767 -0.0439  0.1521 -0.0240
  692PSPI   C2B 9686   2.354  10.152   7.141  0.3716 -0.4772 -0.0681
  692PSPI   C3B 9687   2.459  10.082   7.577  0.1921  0.0740  0.3351
  692PSPI   C4B 9688   2.557  10.067   8.002  0.0773 -0.0814 -0.4010
  693PSPI    C1 9689   6.463   4.056   5.282  0.1337 -0.1465 -0.0656
  693PSPI    C2 9690   6.738   4.339   5.215 -0.0378  0.0583  0.0822
  693PSPI    C3 9691   6.388   4.349   5.021 -0.3216  0.3483  0.5875
  693PSPI   PO4 9692   6.596   3.833   5.150 -0.0378  0.1682  0.1449
  693PSPI   GL1 9693   6.630   3.579   5.487  0.1098  0.2174  0.0827
  693PSPI   GL2 9694   6.841   3.893   5.608  0.1976 -0.2628  0.3728
  693PSPI   C1A 9695   6.526   3.227   5.667  0.2853 -0.0208 -0.0294
  693PSPI   C2A 9696   6.782   2.861   5.819 -0.1385 -0.3319 -0.0389
  693PSPI   C3A 9697   6.849   2.784   6.243  0.1757 -0.0409  0.0667
  693PSPI   C4A 9698   7.051   2.697   6.525 -0.1785 -0.3744  0.1340
  693PSPI   C1B 9699   6.873   3.505   5.918  0.2875  0.0437  0.0732
  693PSPI   C2B 9700   6.640   3.214   6.132 -0.0488 -0.0394  0.3869
  693PSPI   C3B 9701   6.609   3.020   6.614  0.1595 -0.0487 -0.1415
  693PSPI   C4B 9702   6.668   2.822   7.006  0.1775 -0.1342 -0.4076
  694PSPI    C1 9703  18.437  10.573   5.476 -0.0883 -0.0841 -0.1711
  694PSPI    C2 9704  18.525  10.227   5.296  0.2153  0.0185 -0.2255
  694PSPI    C3 9705  18.173  10.404   5.226  0.0966 -0.2296 -0.2706
  694PSPI   PO4 9706  18.716  10.534   5.641  0.1734 -0.2397  0.0935
  694PSPI   GL1 9707  18.713  10.416   6.052  0.0068 -0.1097  0.1100
  694PSPI   GL2 9708  18.585  10.184   6.198 -0.0013 -0.2225 -0.3491
  694PSPI   C1A 9709  18.732  10.758   6.330 -0.1406  0.0597 -0.1399
  694PSPI   C2A 9710  18.740  10.848   6.703 -0.0756 -0.2245 -0.0120
  694PSPI   C3A 9711  18.601  10.860   7.142  0.0296  0.0949 -0.1083
  694PSPI   C4A 9712  18.624  10.723   7.588  0.1548  0.3148 -0.0107
  694PSPI   C1B 9713  18.823  10.317   6.520 -0.3534  0.0783 -0.0846
  694PSPI   C2B 9714  19.138  10.474   6.766  0.0724 -0.1469  0.1308
  694PSPI   C3B 9715  19.109  10.694   7.242  0.1687  0.0674 -0.4459
  694PSPI   C4B 9716  19.047  10.465   7.712 -0.3235 -0.3241  0.2418
  695POPI    C1 9717   2.453   2.236   5.423  0.0799  0.0645  0.0232
  695POPI    C2 9718   2.614   1.917   5.244  0.0592  0.1788 -0.2031
  695POPI    C3 9719   2.846   2.165   5.455  0.0891  0.0602 -0.0949
  695POPI   PO4 9720   2.292   2.165   5.597  0.0738 -0.0062 -0.1390
  695POPI   GL1 9721   2.357   2.221   5.917  0.3418  0.2743  0.0085
  695POPI   GL2 9722   2.710   2.335   5.936  0.3166 -0.1045 -0.0101
  695POPI   C1A 9723   2.138   1.934   6.259  0.1910 -0.2037 -0.1387
  695POPI   D2A 9724   1.901   1.855   6.536  0.1786 -0.2175 -0.0291
  695POPI   C3A 9725   1.762   1.531   6.877  0.3387  0.2754 -0.1916
  695POPI   C4A 9726   1.851   1.062   7.066  0.0608  0.0435  0.3272
  695POPI   C1B 9727   2.998   2.094   6.253  0.1933  0.0270  0.0802
  695POPI   C2B 9728   3.065   2.081   6.718 -0.0706  0.3117  0.0880
  695POPI   C3B 9729   3.084   2.218   7.067 -0.0502 -0.0260 -0.0461
  695POPI   C4B 9730   3.070   2.472   7.381  0.1639 -0.2434  0.1016
  696POPI    C1 9731   5.599   4.345   5.282  0.3345 -0.1219  0.2589
  696POPI    C2 9732   5.614   4.013   5.059  0.3426 -0.0219  0.1091
  696POPI    C3 9733   5.870   4.313   4.990  0.1733  0.1171  0.0794
  696POPI   PO4 9734   5.420   4.290   5.453 -0.0753  0.0786  0.4285
  696POPI   GL1 9735   5.598   4.473   5.794 -0.1469 -0.0985  0.3675
  696POPI   GL2 9736   5.797   4.263   6.043  0.1283  0.1228  0.3047
  696POPI   C1A 9737   5.407   4.587   6.231 -0.2494  0.1114  0.4299
  696POPI   D2A 9738   5.310   4.533   6.565  0.4944  0.0390 -0.0403
  696POPI   C3A 9739   5.567   4.620   6.938 -0.0108 -0.2386 -0.1406
  696POPI   C4A 9740   5.740   4.923   7.354 -0.1583  0.1074  0.0652
  696POPI   C1B 9741   5.865   3.852   6.059 -0.2776 -0.0404  0.0464
  696POPI   C2B 9742   6.001   3.545   6.435 -0.0659 -0.1160  0.3836
  696POPI   C3B 9743   6.182   3.323   6.797 -0.2490 -0.0618 -0.0599
  696POPI   C4B 9744   6.388   3.199   7.113  0.3404 -0.1194  0.0411
  697POPI    C1 9745  14.072   4.070   5.029 -0.0883  0.0046 -0.0692
  697POPI    C2 9746  14.460   4.058   4.930 -0.0448 -0.0621  0.1063
  697POPI    C3 9747  14.292   4.404   5.040 -0.0155 -0.0478  0.1062
  697POPI   PO4 9748  14.030   3.884   5.221  0.2240 -0.0469  0.0174
  697POPI   GL1 9749  14.027   3.986   5.671  0.3939 -0.0670 -0.4543
  697POPI   GL2 9750  14.279   4.215   5.774 -0.1340  0.1820 -0.1569
  697POPI   C1A 9751  14.219   3.768   6.000  0.2255 -0.0761 -0.2607
  697POPI   D2A 9752  14.067   3.589   6.258 -0.0215 -0.1829 -0.3541
  697POPI   C3A 9753  14.273   3.601   6.620 -0.0692  0.1775 -0.0355
  697POPI   C4A 9754  14.346   3.520   7.071 -0.0624  0.0089  0.0920
  697POPI   C1B 9755  14.124   4.203   6.181  0.2204  0.2336 -0.2131
  697POPI   C2B 9756  14.031   4.074   6.576  0.3942  0.1152 -0.2260
  697POPI   C3B 9757  14.078   3.986   6.952 -0.2671  0.1482 -0.1270
  697POPI   C4B 9758  14.022   4.307   7.317 -0.1931  0.0929 -0.3154
  698POPI    C1 9759  11.190   5.743   5.570  0.0878 -0.0427 -0.2469
  698POPI    C2 9760  10.862   5.812   5.353 -0.0634 -0.1972 -0.0711
  698POPI    C3 9761  11.159   5.590   5.202 -0.0517 -0.0820 -0.2193
  698POPI   PO4 9762  11.082   5.866   5.866 -0.1245 -0.0118  0.1700
  698POPI   GL1 9763  10.999   5.595   6.211 -0.1603 -0.3622  0.1085
  698POPI   GL2 9764  10.614   5.325   6.217 -0.0642  0.0886 -0.1196
  698POPI   C1A 9765  11.020   5.624   6.697  0.2765 -0.0615 -0.0725
  698POPI   D2A 9766  10.812   5.530   7.059  0.2710  0.0071  0.0977
  698POPI   C3A 9767  10.890   5.685   7.474  0.0988 -0.0554  0.0169
  698POPI   C4A 9768  10.924   5.779   7.859 -0.0534 -0.1284  0.0064
  698POPI   C1B 9769  10.684   5.239   6.632  0.2465  0.1031 -0.3225
  698POPI   C2B 9770  10.875   5.071   6.992 -0.3058  0.1642 -0.3300
  698POPI   C3B 9771  10.886   5.039   7.483  0.1167 -0.3440  0.1693
  698POPI   C4B 9772  10.804   5.151   7.846  0.1074 -0.2716 -0.0090
  699POPI    C1 9773  11.009   4.226   5.590 -0.1652 -0.0780  0.1123
  699POPI    C2 9774  11.086   4.381   5.230 -0.0989 -0.0131  0.1540
  699POPI    C3 9775  11.178   4.000   5.307 -0.2244 -0.0624  0.0642
  699POPI   PO4 9776  10.981   4.528   5.704  0.2862  0.1660 -0.2295
  699POPI   GL1 9777  11.180   4.544   6.109 -0.0280  0.0391  0.1992
  699POPI   GL2 9778  11.366   4.333   5.959  0.1985  0.1774 -0.1769
  699POPI   C1A 9779  11.156   4.269   6.452 -0.0770  0.4653  0.1241
  699POPI   D2A 9780  11.269   4.080   6.911 -0.4582  0.2073  0.2336
  699POPI   C3A 9781  11.569   4.296   7.279 -0.0091  0.4087  0.2130
  699POPI   C4A 9782  11.879   4.142   7.587 -0.0370 -0.2382  0.1580
  699POPI   C1B 9783  11.722   4.453   6.214 -0.1524 -0.1177 -0.1149
  699POPI   C2B 9784  12.042   4.310   6.491 -0.0200 -0.1245  0.0852
  699POPI   C3B 9785  12.265   4.430   6.932  0.1810 -0.1824  0.1287
  699POPI   C4B 9786  12.210   4.644   7.346 -0.0855 -0.3161  0.0255
  700POPI    C1 9787  10.380   6.599   5.763 -0.1062  0.0897  0.1216
  700POPI    C2 9788  10.405   6.434   5.400  0.0181  0.0159  0.1631
  700POPI    C3 9789  10.088   6.659   5.495 -0.0856 -0.0841  0.0588
  700POPI   PO4 9790  10.582   6.735   5.751 -0.0077 -0.0394 -0.1468
  700POPI   GL1 9791  10.942   6.993   6.045  0.0660  0.2740  0.0832
  700POPI   GL2 9792  11.028   6.684   6.125 -0.0825  0.0414  0.1352
  700POPI   C1A 9793  10.927   7.051   6.454  0.0967 -0.0251  0.3164
  700POPI   D2A 9794  10.972   7.029   6.811 -0.0604  0.1518 -0.0332
  700POPI   C3A 9795  11.135   7.385   7.045 -0.2259  0.0353  0.0899
  700POPI   C4A 9796  11.491   7.523   6.941  0.6019 -0.5140 -0.0764
  700POPI   C1B 9797  10.975   6.574   6.585  0.0032  0.1726  0.3234
  700POPI   C2B 9798  11.088   6.623   7.043  0.0136  0.0276  0.0472
  700POPI   C3B 9799  11.469   6.426   7.315 -0.4022  0.4528 -0.2169
  700POPI   C4B 9800  11.654   6.218   7.725 -0.1297 -0.4372 -0.0487
  701POPI    C1 9801   6.205   6.267   5.810 -0.1568 -0.1955  0.0709
  701POPI    C2 9802   6.203   6.393   5.430 -0.0484 -0.0697  0.1113
  701POPI    C3 9803   5.876   6.225   5.587 -0.0899 -0.1325 -0.0408
  701POPI   PO4 9804   6.345   6.475   5.918 -0.0286  0.1430 -0.0333
  701POPI   GL1 9805   6.582   6.398   6.322  0.0562 -0.0028 -0.1166
  701POPI   GL2 9806   6.569   6.581   6.538  0.0301  0.1800  0.3155
  701POPI   C1A 9807   6.434   6.053   6.574 -0.3250 -0.1183 -0.2139
  701POPI   D2A 9808   6.277   5.922   6.960  0.1008 -0.2779 -0.1215
  701POPI   C3A 9809   6.557   5.920   7.311  0.1145 -0.2545 -0.0491
  701POPI   C4A 9810   6.611   6.079   7.691 -0.0049 -0.2467  0.0112
  701POPI   C1B 9811   6.506   6.476   7.008  0.1174  0.0711 -0.0139
  701POPI   C2B 9812   6.332   6.355   7.300  0.0130  0.0961  0.0215
  701POPI   C3B 9813   6.069   6.314   7.589  0.1446  0.0910  0.1645
  701POPI   C4B 9814   5.784   6.313   7.880 -0.0923  0.0469 -0.1878
  702POPI    C1 9815   0.479  10.316   5.649 -0.2781  0.1381 -0.0230
  702POPI    C2 9816   0.717  10.438   5.352 -0.0552 -0.0166  0.0894
  702POPI    C3 9817   0.763  10.072   5.508 -0.4054 -0.0699  0.0748
  702POPI   PO4 9818   0.508  10.493   5.819 -0.1873 -0.0942 -0.1196
  702POPI   GL1 9819   0.536  10.542   6.252 -0.0874  0.4867  0.0495
  702POPI   GL2 9820   0.474  10.882   6.174  0.1532 -0.3190  0.0930
  702POPI   C1A 9821   0.732  10.217   6.487  0.0328 -0.2631  0.3398
  702POPI   D2A 9822   0.894  10.221   6.933  0.0283  0.0316 -0.0351
  702POPI   C3A 9823   0.571  10.242   7.298  0.3934 -0.2621  0.1607
  702POPI   C4A 9824   0.709  10.173   7.713  0.0809 -0.0228  0.2862
  702POPI   C1B 9825   0.577  10.959   6.539  0.0349 -0.2443  0.0819
  702POPI   C2B 9826   0.392  11.174   6.917 -0.0820  0.2905  0.0612
  702POPI   C3B 9827   0.256  11.153   7.340  0.0355  0.0640 -0.1925
  702POPI   C4B 9828   0.318  10.954   7.850  0.0075 -0.1179  0.2746
  703POPI    C1 9829  10.302  11.060   5.807 -0.1670  0.0555 -0.0841
  703POPI    C2 9830  10.463  11.386   5.974 -0.2030 -0.0238  0.1083
  703POPI    C3 9831  10.621  11.234   5.639 -0.0436  0.0558  0.1465
  703POPI   PO4 9832  10.321  10.917   5.943 -0.2468 -0.0622  0.0963
  703POPI   GL1 9833  10.252  11.079   6.381 -0.1490 -0.1605  0.1512
  703POPI   GL2 9834  10.031  11.216   6.280  0.3288 -0.2030  0.0385
  703POPI   C1A 9835  10.317  11.301   6.772 -0.0037 -0.1464 -0.0932
  703POPI   D2A 9836  10.079  11.602   7.136  0.1844 -0.1287 -0.1010
  703POPI   C3A 9837  10.051  11.676   7.625 -0.1590 -0.1128 -0.1406
  703POPI   C4A 9838   9.836  11.490   7.949 -0.4036 -0.0942  0.3243
  703POPI   C1B 9839   9.777  10.794   6.420 -0.1880 -0.0929  0.0587
  703POPI   C2B 9840   9.640  10.668   6.866 -0.1743 -0.0377  0.1886
  703POPI   C3B 9841   9.635  10.862   7.258 -0.3081  0.1643  0.1303
  703POPI   C4B 9842   9.534  10.958   7.625  0.1440  0.0818  0.2210
  704POPI    C1 9843   8.202   6.891   5.619  0.0058  0.2394  0.0408
  704POPI    C2 9844   8.031   6.615   5.385  0.1072  0.0274  0.2126
  704POPI    C3 9845   8.373   6.788   5.272 -0.0356  0.1978  0.0326
  704POPI   PO4 9846   7.993   7.003   5.666  0.0218 -0.0426 -0.1132
  704POPI   GL1 9847   7.927   7.073   6.096  0.2308 -0.1470  0.1373
  704POPI   GL2 9848   7.630   6.960   6.087  0.0355 -0.1182 -0.0501
  704POPI   C1A 9849   8.076   7.152   6.491  0.2063 -0.1443  0.2323
  704POPI   D2A 9850   8.149   7.476   6.647  0.1309 -0.2554 -0.2226
  704POPI   C3A 9851   7.822   7.590   6.948 -0.1489  0.0394 -0.1147
  704POPI   C4A 9852   7.858   7.573   7.405  0.5193 -0.0378 -0.0870
  704POPI   C1B 9853   7.638   6.852   6.541 -0.2566 -0.1625  0.2152
  704POPI   C2B 9854   7.482   6.622   6.880 -0.0078  0.1834  0.2000
  704POPI   C3B 9855   7.325   6.498   7.281 -0.0728 -0.0662 -0.2377
  704POPI   C4B 9856   7.279   6.369   7.600  0.0323  0.1486  0.1072
  705POPI    C1 9857  14.647   7.380   5.804 -0.0207 -0.1254 -0.2711
  705POPI    C2 9858  14.659   6.984   5.855  0.0464 -0.1060 -0.1297
  705POPI    C3 9859  14.965   7.172   5.679  0.1245 -0.0872  0.0241
  705POPI   PO4 9860  14.452   7.462   5.689 -0.1132  0.3255  0.1196
  705POPI   GL1 9861  14.201   7.240   5.926 -0.1831  0.0023 -0.1252
  705POPI   GL2 9862  14.336   7.260   6.205  0.0135 -0.0647 -0.0461
  705POPI   C1A 9863  13.877   7.162   6.348  0.1171 -0.0005 -0.1190
  705POPI   D2A 9864  13.711   7.244   6.581 -0.0922  0.3228  0.0175
  705POPI   C3A 9865  13.484   6.867   6.847 -0.0102 -0.3536  0.1275
  705POPI   C4A 9866  13.356   6.565   7.136 -0.1072  0.1884  0.5095
  705POPI   C1B 9867  14.347   7.116   6.635 -0.0689 -0.2232 -0.1407
  705POPI   C2B 9868  14.006   7.070   6.965 -0.1517 -0.3374 -0.1411
  705POPI   C3B 9869  13.717   7.070   7.277  0.1001  0.0730  0.0881
  705POPI   C4B 9870  13.567   7.013   7.686  0.3667  0.3306 -0.3378
  706POPI    C1 9871  18.211   4.953   5.193  0.2034 -0.0936  0.0375
  706POPI    C2 9872  18.320   4.635   4.976 -0.1137 -0.0139 -0.2488
  706POPI    C3 9873  18.220   4.976   4.793 -0.1276  0.1393  0.0391
  706POPI   PO4 9874  18.356   4.946   5.394  0.3591  0.0913 -0.3382
  706POPI   GL1 9875  18.330   4.946   5.802 -0.0776 -0.2402  0.1459
  706POPI   GL2 9876  18.287   4.586   5.771  0.0965 -0.0074 -0.1297
  706POPI   C1A 9877  18.626   4.860   6.084  0.1707  0.0369  0.3538
  706POPI   D2A 9878  18.836   4.785   6.456  0.1181 -0.1719 -0.1880
  706POPI   C3A 9879  18.922   4.876   6.909  0.1903 -0.0361 -0.3372
  706POPI   C4A 9880  18.919   4.772   7.256 -0.0461 -0.1252  0.1638
  706POPI   C1B 9881  18.168   4.596   6.228  0.0923  0.1151 -0.4865
  706POPI   C2B 9882  18.147   4.298   6.571  0.1253 -0.0631 -0.1052
  706POPI   C3B 9883  18.267   4.103   6.899 -0.0512  0.0304 -0.3043
  706POPI   C4B 9884  18.427   4.038   7.388 -0.2399  0.5701  0.1075
  707POPI    C1 9885   3.536  14.900   5.666 -0.1952  0.0952  0.0105
  707POPI    C2 9886   3.151  14.893   5.774 -0.1821 -0.2400  0.0467
  707POPI    C3 9887   3.422  14.692   5.989 -0.0034 -0.0975 -0.0436
  707POPI   PO4 9888   3.639  15.087   5.611 -0.3923 -0.0334 -0.1910
  707POPI   GL1 9889   3.517  15.444   5.939 -0.1257 -0.2234 -0.1520
  707POPI   GL2 9890   3.269  15.378   5.884 -0.0770  0.2061 -0.2874
  707POPI   C1A 9891   3.568  15.635   6.337 -0.2827 -0.0798  0.1231
  707POPI   D2A 9892   3.671  15.715   6.754  0.1736 -0.0261  0.1517
  707POPI   C3A 9893   3.508  15.719   7.175  0.0174 -0.3279 -0.2432
  707POPI   C4A 9894   3.420  16.030   7.556 -0.2737 -0.0323 -0.1390
  707POPI   C1B 9895   3.218  15.059   6.220  0.2207  0.1156 -0.1231
  707POPI   C2B 9896   3.286  15.079   6.610  0.0829  0.3413  0.2312
  707POPI   C3B 9897   3.346  14.768   6.963 -0.0041 -0.0303  0.0507
  707POPI   C4B 9898   3.367  14.503   7.303 -0.1294 -0.2875 -0.2418
  708POPI    C1 9899   9.506   9.421   5.493 -0.3704  0.1280  0.1784
  708POPI    C2 9900   9.390   9.383   5.112 -0.1433 -0.0127  0.1218
  708POPI    C3 9901   9.447   9.746   5.269 -0.0670  0.0425 -0.0319
  708POPI   PO4 9902   9.394   9.087   5.581  0.0693 -0.1571 -0.1389
  708POPI   GL1 9903   9.467   9.303   5.984 -0.1239 -0.1484 -0.1569
  708POPI   GL2 9904   9.721   9.477   6.107 -0.0509 -0.0178 -0.4490
  708POPI   C1A 9905   9.260   9.233   6.423 -0.2834  0.0766  0.0002
  708POPI   D2A 9906   9.132   8.834   6.346  0.0133  0.1753 -0.0828
  708POPI   C3A 9907   9.196   8.603   6.761  0.1580  0.1002 -0.2856
  708POPI   C4A 9908   9.082   8.438   7.166 -0.1508 -0.1520 -0.0208
  708POPI   C1B 9909   9.784   9.375   6.550 -0.0506  0.3646 -0.0984
  708POPI   C2B 9910  10.040   9.459   6.831  0.2350  0.0114  0.0300
  708POPI   C3B 9911  10.489   9.430   7.066  0.1260  0.0393 -0.1020
  708POPI   C4B 9912  10.680   9.276   7.482 -0.0809 -0.0421 -0.0418
  709POPI    C1 9913   4.921  13.030   5.995  0.2029  0.0299  0.1577
  709POPI    C2 9914   4.985  12.635   6.002 -0.0370 -0.0195 -0.1755
  709POPI    C3 9915   5.274  12.883   5.878  0.0705 -0.0986 -0.0865
  709POPI   PO4 9916   4.729  13.017   6.262 -0.1610 -0.2895 -0.1744
  709POPI   GL1 9917   4.788  13.110   6.672 -0.0392 -0.1832  0.2373
  709POPI   GL2 9918   4.824  13.468   6.747 -0.0953 -0.0577 -0.0141
  709POPI   C1A 9919   5.161  12.941   6.893  0.1996  0.1623  0.1970
  709POPI   D2A 9920   5.309  12.713   7.186 -0.2252  0.1927 -0.2414
  709POPI   C3A 9921   5.410  12.564   7.532 -0.2458  0.1226 -0.0444
  709POPI   C4A 9922   5.016  12.626   7.751  0.3211 -0.4069 -0.1787
  709POPI   C1B 9923   4.748  13.400   7.124 -0.2621  0.0772  0.1463
  709POPI   C2B 9924   4.431  13.415   7.498 -0.0313  0.2634  0.0032
  709POPI   C3B 9925   4.200  13.707   7.768 -0.0001  0.1629 -0.2402
  709POPI   C4B 9926   3.875  13.974   7.880 -0.0878 -0.0540  0.1624
  710POPI    C1 9927  13.496  10.215   5.433  0.0426 -0.0607  0.3005
  710POPI    C2 9928  13.497  10.376   5.067 -0.2321  0.0407  0.3423
  710POPI    C3 9929  13.796  10.136   5.181 -0.1794 -0.0472  0.0276
  710POPI   PO4 9930  13.582  10.415   5.746  0.3473  0.0477  0.0287
  710POPI   GL1 9931  13.234  10.650   6.015  0.0134 -0.1444 -0.2023
  710POPI   GL2 9932  13.042  10.449   6.093 -0.0272 -0.1023  0.0811
  710POPI   C1A 9933  13.492  10.886   6.398 -0.0649 -0.1281 -0.1037
  710POPI   D2A 9934  13.954  10.949   6.429  0.2788  0.1551  0.0478
  710POPI   C3A 9935  13.835  11.331   6.724  0.0771  0.3571  0.0400
  710POPI   C4A 9936  13.675  11.662   6.902  0.0133 -0.1270  0.4747
  710POPI   C1B 9937  13.101  10.463   6.517  0.1901 -0.0414  0.1393
  710POPI   C2B 9938  13.000  10.483   6.892 -0.2468 -0.1006  0.3003
  710POPI   C3B 9939  12.823  10.746   7.238  0.3689  0.3325  0.2283
  710POPI   C4B 9940  12.632  11.097   7.498 -0.1828  0.3180 -0.3281
  711POPI    C1 9941   2.197  11.978   5.394 -0.0198 -0.1787  0.1883
  711POPI    C2 9942   1.802  11.960   5.452 -0.0223 -0.0485  0.2140
  711POPI    C3 9943   1.958  11.839   5.105 -0.0707 -0.2284  0.2538
  711POPI   PO4 9944   2.239  12.148   5.620 -0.4199  0.1358  0.0710
  711POPI   GL1 9945   2.395  11.983   5.945 -0.0817 -0.3469  0.4925
  711POPI   GL2 9946   2.696  12.176   5.917  0.1525  0.1229 -0.4935
  711POPI   C1A 9947   2.256  11.959   6.288 -0.0422 -0.1676 -0.1561
  711POPI   D2A 9948   2.113  12.355   6.595  0.0583  0.2597  0.0411
  711POPI   C3A 9949   2.028  12.176   7.074  0.0644 -0.1482  0.0552
  711POPI   C4A 9950   2.063  12.135   7.559  0.1201  0.4712  0.2991
  711POPI   C1B 9951   2.465  12.420   6.283 -0.5012 -0.2395 -0.2088
  711POPI   C2B 9952   2.526  12.551   6.703 -0.0784  0.0380 -0.2404
  711POPI   C3B 9953   2.474  12.516   7.141 -0.1234 -0.1751  0.1809
  711POPI   C4B 9954   2.615  12.216   7.513 -0.0050 -0.1443 -0.3997
  712POPI    C1 9955  13.113  12.279   5.953 -0.0359  0.1749 -0.1100
  712POPI    C2 9956  12.825  12.006   6.003  0.1736  0.0055  0.2041
  712POPI    C3 9957  12.730  12.394   5.973 -0.0869 -0.0488  0.3001
  712POPI   PO4 9958  13.319  12.119   6.031  0.0420 -0.0394  0.0754
  712POPI   GL1 9959  13.251  11.815   6.354 -0.2016  0.0178 -0.0768
  712POPI   GL2 9960  12.970  11.875   6.575 -0.1894 -0.0937  0.1471
  712POPI   C1A 9961  13.328  11.378   6.645  0.0859 -0.4523 -0.2737
  712POPI   D2A 9962  13.371  11.337   7.163 -0.2421 -0.4220  0.2239
  712POPI   C3A 9963  13.225  11.101   7.512  0.0821 -0.0484 -0.1300
  712POPI   C4A 9964  13.039  10.812   7.641  0.3173  0.0493  0.0211
  712POPI   C1B 9965  13.117  11.760   7.001  0.0760 -0.0223  0.1129
  712POPI   C2B 9966  13.037  11.798   7.376 -0.1456  0.2635 -0.0105
  712POPI   C3B 9967  13.013  11.443   7.779 -0.0175 -0.1923 -0.2422
  712POPI   C4B 9968  12.867  11.087   8.093 -0.2430  0.1419  0.1637
  713POPI    C1 9969   7.687  16.915   4.906 -0.0373 -0.1419  0.2018
  713POPI    C2 9970   8.041  17.064   4.793 -0.0903  0.0768  0.3185
  713POPI    C3 9971   7.930  16.699   4.672  0.0184  0.1508 -0.0167
  713POPI   PO4 9972   7.758  16.988   5.248  0.1464 -0.0646 -0.0979
  713POPI   GL1 9973   7.723  17.121   5.699  0.0904  0.1571 -0.1916
  713POPI   GL2 9974   7.933  17.422   5.786  0.0782 -0.2334 -0.2220
  713POPI   C1A 9975   8.002  16.867   6.023  0.1795 -0.0076 -0.0376
  713POPI   D2A 9976   8.072  16.905   6.491 -0.0643  0.0084  0.0856
  713POPI   C3A 9977   8.029  16.939   6.982  0.2431  0.0240 -0.2002
  713POPI   C4A 9978   7.966  16.933   7.460 -0.1739 -0.0543 -0.1843
  713POPI   C1B 9979   7.803  17.516   6.141  0.0764 -0.0017  0.0085
  713POPI   C2B 9980   7.945  17.422   6.631 -0.1029  0.0702 -0.0542
  713POPI   C3B 9981   7.644  17.239   7.004  0.0890 -0.0445 -0.2283
  713POPI   C4B 9982   7.431  17.103   7.410 -0.1573 -0.1844  0.2563
  714POPI    C1 9983   6.126  16.607   5.396 -0.1330 -0.3521 -0.0294
  714POPI    C2 9984   5.840  16.872   5.309  0.1330 -0.0087  0.1193
  714POPI    C3 9985   5.977  16.626   5.025  0.1034  0.2292 -0.1054
  714POPI   PO4 9986   6.088  16.595   5.668 -0.1248  0.3499 -0.0720
  714POPI   GL1 9987   6.312  16.470   6.040  0.2946 -0.2077 -0.0639
  714POPI   GL2 9988   6.618  16.299   6.240  0.0737 -0.0866  0.2085
  714POPI   C1A 9989   6.507  16.815   6.282 -0.0268  0.2023  0.0663
  714POPI   D2A 9990   6.684  17.008   6.552  0.1033  0.2645 -0.1214
  714POPI   C3A 9991   6.711  16.737   6.856  0.0366 -0.1027 -0.2893
  714POPI   C4A 9992   6.862  16.294   6.849 -0.1603 -0.2783 -0.0093
  714POPI   C1B 9993   6.867  16.120   6.402  0.3301  0.2317  0.1235
  714POPI   C2B 9994   7.174  15.936   6.636 -0.1182 -0.3042  0.1431
  714POPI   C3B 9995   7.208  15.655   6.914  0.1503  0.0522 -0.3525
  714POPI   C4B 9996   7.132  15.274   6.793  0.0184 -0.0940 -0.0030
  715POPI    C1 9997   5.684  16.417   5.401  0.3343 -0.0123 -0.1817
  715POPI    C2 9998   5.380  16.226   5.226 -0.0591  0.1860  0.2630
  715POPI    C3 9999   5.365  16.623   5.274  0.3882  0.2317  0.0669
  715POPI   PO410000   5.636  16.364   5.658  0.1940 -0.0335 -0.2512
  715POPI   GL110001   5.553  16.286   6.095  0.1286  0.1415  0.3179
  715POPI   GL210002   5.830  16.487   6.177  0.0572 -0.1998 -0.6109
  715POPI   C1A10003   5.377  16.285   6.562  0.1597 -0.1058 -0.0674
  715POPI   D2A10004   4.958  16.340   6.842  0.1296 -0.1294 -0.2229
  715POPI   C3A10005   4.906  15.942   6.871 -0.3309 -0.2379 -0.1902
  715POPI   C4A10006   4.586  15.644   6.666  0.0349 -0.2171 -0.1297
  715POPI   C1B10007   5.825  16.475   6.593 -0.0051  0.0529  0.2113
  715POPI   C2B10008   5.902  16.413   7.015  0.1713 -0.1445  0.1049
  715POPI   C3B10009   5.980  16.539   7.418 -0.2115  0.3562 -0.0089
  715POPI   C4B10010   5.873  16.584   7.813 -0.1293 -0.0232 -0.4050
  716POPI    C110011  17.585  10.972   5.248  0.2763 -0.0979  0.1440
  716POPI    C210012  17.794  10.918   4.911 -0.5710  0.0804 -0.4400
  716POPI    C310013  17.651  10.602   5.110 -0.2549 -0.0180 -0.3642
  716POPI   PO410014  17.764  11.238   5.352 -0.2250  0.3897  0.0527
  716POPI   GL110015  18.030  11.260   5.734 -0.1397 -0.2328 -0.0532
  716POPI   GL210016  18.341  11.129   5.658  0.0162 -0.4153 -0.1984
  716POPI   C1A10017  17.902  11.157   6.140 -0.0835  0.1092  0.1128
  716POPI   D2A10018  17.818  11.114   6.459 -0.1784 -0.0740 -0.2326
  716POPI   C3A10019  17.578  10.713   6.654  0.0472  0.3230 -0.4678
  716POPI   C4A10020  17.229  10.699   7.004  0.1226  0.2221  0.1613
  716POPI   C1B10021  18.330  10.870   6.100 -0.1233  0.0335 -0.5025
  716POPI   C2B10022  18.196  10.833   6.469  0.0605 -0.4628  0.0150
  716POPI   C3B10023  18.001  10.866   6.895  0.0454  0.1630 -0.3438
  716POPI   C4B10024  17.700  11.144   6.956 -0.1203  0.1424 -0.0660
  717POPI    C110025   9.606  11.174   5.479 -0.0425  0.0102 -0.1380
  717POPI    C210026   9.327  11.036   5.227 -0.0751 -0.2249  0.0229
  717POPI    C310027   9.681  10.851   5.254  0.0626  0.0139 -0.1088
  717POPI   PO410028   9.483  11.272   5.710 -0.1211  0.1703  0.0243
  717POPI   GL110029   9.437  11.161   6.136 -0.0643  0.0993 -0.0836
  717POPI   GL210030   9.132  11.075   6.074  0.3348 -0.0683 -0.1205
  717POPI   C1A10031   9.537  11.244   6.587 -0.2064  0.0960  0.4074
  717POPI   D2A10032   9.685  11.262   6.957 -0.0398  0.0593 -0.3232
  717POPI   C3A10033  10.065  10.996   7.061 -0.2306 -0.1264 -0.0574
  717POPI   C4A10034  10.238  10.823   7.374  0.1913 -0.0139  0.3808
  717POPI   C1B10035   8.902  10.904   6.423  0.1211  0.1704 -0.4788
  717POPI   C2B10036   9.044  10.827   6.882  0.3141 -0.1776 -0.1140
  717POPI   C3B10037   9.223  11.189   7.244  0.0117 -0.1471  0.0312
  717POPI   C4B10038   9.633  11.415   7.420  0.0748 -0.2433  0.3881
  718POPI    C110039  14.307  10.245   5.511  0.1064  0.0059 -0.0800
  718POPI    C210040  14.565  10.489   5.327  0.1140 -0.0493 -0.1433
  718POPI    C310041  14.187  10.465   5.199 -0.0455  0.3654  0.2255
  718POPI   PO410042  14.349  10.320   5.832 -0.0159  0.0252 -0.1239
  718POPI   GL110043  14.047  10.485   6.110 -0.2027  0.3168 -0.2490
  718POPI   GL210044  14.209  10.294   6.294  0.0962 -0.0570 -0.1851
  718POPI   C1A10045  13.851  10.008   6.218  0.2434  0.0257 -0.0287
  718POPI   D2A10046  13.870   9.955   6.594  0.2268 -0.0262  0.1122
  718POPI   C3A10047  14.264   9.932   6.691  0.0242  0.2329 -0.0596
  718POPI   C4A10048  14.784   9.887   6.900  0.3441 -0.0292 -0.0349
  718POPI   C1B10049  14.111  10.452   6.689 -0.2306  0.2012 -0.1096
  718POPI   C2B10050  13.880  10.619   7.008  0.2496 -0.1919  0.6207
  718POPI   C3B10051  13.727  10.995   7.049  0.0892 -0.1154  0.1832
  718POPI   C4B10052  13.842  11.436   7.429 -0.0786  0.0583  0.2044
  719POPI    C110053  17.727   8.663   5.810  0.1450  0.0544  0.0428
  719POPI    C210054  17.472   8.570   5.516  0.0264 -0.0182  0.1671
  719POPI    C310055  17.834   8.717   5.429 -0.0771  0.1363 -0.0090
  719POPI   PO410056  17.799   8.514   5.923  0.1789  0.0049 -0.0721
  719POPI   GL110057  17.736   8.841   6.311 -0.2960 -0.0644  0.0397
  719POPI   GL210058  17.498   8.954   6.149  0.0575  0.0555 -0.1487
  719POPI   C1A10059  17.797   8.833   6.858  0.2698 -0.0065 -0.2030
  719POPI   D2A10060  17.648   9.032   7.157  0.1873  0.1174 -0.3270
  719POPI   C3A10061  17.462   8.838   7.519 -0.0047 -0.2259 -0.0571
  719POPI   C4A10062  17.257   8.848   7.961  0.1399 -0.0059  0.3030
  719POPI   C1B10063  17.316   8.752   6.593  0.1866 -0.3321  0.2350
  719POPI   C2B10064  17.290   8.719   6.965  0.0159 -0.0687 -0.1421
  719POPI   C3B10065  17.192   8.389   7.201 -0.1489  0.0715  0.0233
  719POPI   C4B10066  17.307   7.991   7.335  0.1276 -0.0468 -0.0042
  720POPI    C110067   9.105   5.086   5.474  0.0770  0.0472  0.0583
  720POPI    C210068   9.364   4.912   5.224  0.1695  0.1144  0.1068
  720POPI    C310069   9.174   4.693   5.499 -0.3357 -0.0608 -0.3637
  720POPI   PO410070   9.272   5.353   5.557  0.0652 -0.1227  0.2848
  720POPI   GL110071   9.365   5.329   6.011 -0.1941  0.1466 -0.0566
  720POPI   GL210072   9.103   5.384   6.072  0.1428  0.2054  0.1858
  720POPI   C1A10073   9.479   5.511   6.400  0.1752 -0.2117 -0.0372
  720POPI   D2A10074   9.500   5.465   6.887 -0.4583 -0.0919 -0.0225
  720POPI   C3A10075   9.186   5.595   7.354  0.1740  0.1486 -0.1744
  720POPI   C4A10076   8.982   5.753   7.811  0.1843 -0.0830  0.0792
  720POPI   C1B10077   8.952   5.553   6.442  0.3449  0.3100  0.4808
  720POPI   C2B10078   8.678   5.354   6.778  0.1082 -0.0065  0.1642
  720POPI   C3B10079   8.507   5.065   7.011 -0.1753 -0.1387  0.0756
  720POPI   C4B10080   8.566   4.842   7.475  0.1628  0.2470 -0.1205
  721POPI    C110081   8.707  15.291   5.507 -0.1599 -0.0375  0.1228
  721POPI    C210082   8.504  15.359   5.169  0.2366  0.0791 -0.0985
  721POPI    C310083   8.792  15.082   5.177  0.2028  0.0483  0.1580
  721POPI   PO410084   8.823  15.508   5.550  0.0270  0.0406  0.0007
  721POPI   GL110085   8.789  15.758   5.877  0.0964 -0.0395  0.0104
  721POPI   GL210086   8.981  15.647   6.054 -0.0011  0.2088  0.2127
  721POPI   C1A10087   9.202  16.015   5.938 -0.1359  0.2527  0.2276
  721POPI   D2A10088   9.538  16.435   5.959 -0.1703  0.1944 -0.2602
  721POPI   C3A10089   9.739  16.536   6.426  0.1353 -0.0108  0.1729
  721POPI   C4A10090  10.083  16.755   6.789 -0.0633  0.1053 -0.3878
  721POPI   C1B10091   8.952  15.738   6.391  0.0410  0.0813 -0.1539
  721POPI   C2B10092   9.209  15.723   6.753  0.0218 -0.1461 -0.1129
  721POPI   C3B10093   9.521  15.558   7.158  0.1961  0.2196  0.2521
  721POPI   C4B10094   9.428  15.635   7.510 -0.3350  0.0769  0.1124
  722POPI    C110095  11.996  11.655   5.639 -0.0600 -0.2373  0.1092
  722POPI    C210096  11.846  11.843   5.320  0.0181 -0.1199  0.1407
  722POPI    C310097  11.959  11.460   5.292  0.2225 -0.0491 -0.0310
  722POPI   PO410098  11.868  11.784   5.891 -0.1625  0.0149 -0.1285
  722POPI   GL110099  11.683  11.885   6.284  0.2211  0.1694 -0.2068
  722POPI   GL210100  11.362  11.852   6.008 -0.1480  0.2576 -0.0663
  722POPI   C1A10101  11.518  11.880   6.618 -0.5853  0.1140 -0.0137
  722POPI   D2A10102  11.493  11.787   7.060 -0.3060 -0.0778 -0.0417
  722POPI   C3A10103  11.168  11.597   7.229  0.0454  0.0512  0.5877
  722POPI   C4A10104  10.855  11.384   7.552 -0.0670 -0.2158 -0.2514
  722POPI   C1B10105  11.130  11.796   6.318  0.2468  0.0532 -0.1347
  722POPI   C2B10106  11.010  11.911   6.819 -0.0232 -0.0254  0.1750
  722POPI   C3B10107  11.068  12.139   7.195 -0.1285  0.2337 -0.1654
  722POPI   C4B10108  11.128  12.307   7.593  0.2894 -0.1572 -0.0321
  723POPI    C110109  14.619  12.591   5.380 -0.2578  0.1222 -0.0112
  723POPI    C210110  14.812  12.410   5.081  0.1224 -0.1503  0.3860
  723POPI    C310111  14.412  12.396   5.099  0.0954 -0.1562 -0.0847
  723POPI   PO410112  14.721  12.447   5.709  0.3160 -0.1312 -0.2036
  723POPI   GL110113  14.715  12.514   6.088 -0.2225  0.1049 -0.0413
  723POPI   GL210114  14.380  12.266   6.102 -0.0437  0.0470  0.2919
  723POPI   C1A10115  14.830  12.644   6.632 -0.0971 -0.0698 -0.2831
  723POPI   D2A10116  14.728  12.535   6.986 -0.0252 -0.0644  0.0777
  723POPI   C3A10117  14.597  12.862   7.354 -0.1398  0.2512  0.3152
  723POPI   C4A10118  14.448  13.085   7.783 -0.1400 -0.2175  0.4391
  723POPI   C1B10119  14.547  12.267   6.508  0.2230  0.0572  0.0996
  723POPI   C2B10120  14.433  12.210   6.903  0.1451 -0.0406 -0.0610
  723POPI   C3B10121  14.459  12.209   7.279  0.1079 -0.1684  0.0979
  723POPI   C4B10122  14.552  12.272   7.587 -0.1916  0.1173 -0.2291
  724POPI    C110123   0.550   2.687   5.035 -0.3992  0.0076 -0.1659
  724POPI    C210124   0.670   2.981   4.792  0.0280 -0.0598 -0.0432
  724POPI    C310125   0.478   2.664   4.642 -0.1093  0.1081 -0.2274
  724POPI   PO410126   0.735   2.715   5.280 -0.0837 -0.0048 -0.3925
  724POPI   GL110127   0.680   3.084   5.580 -0.1827 -0.0326 -0.2118
  724POPI   GL210128   0.514   2.806   5.718 -0.0151  0.4232 -0.1085
  724POPI   C1A10129   0.335   3.279   5.746  0.0454 -0.0662  0.0331
  724POPI   D2A10130   0.321   3.428   6.149  0.0832  0.1129 -0.1527
  724POPI   C3A10131   0.155   3.333   6.540 -0.0054  0.0227 -0.1725
  724POPI   C4A10132   0.261   3.471   6.980 -0.2312 -0.3642  0.0345
  724POPI   C1B10133   0.261   2.516   5.929  0.0179 -0.0516 -0.0740
  724POPI   C2B10134   0.081   2.542   6.320  0.0934  0.2308 -0.0722
  724POPI   C3B10135  -0.006   2.866   6.614 -0.1016 -0.2001  0.0929
  724POPI   C4B10136   0.062   3.026   6.998 -0.0693  0.0820 -0.1176
  725POPI    C110137   7.639   9.555   5.663 -0.1000 -0.0452  0.1413
  725POPI    C210138   7.274   9.618   5.512 -0.0081  0.0734 -0.0349
  725POPI    C310139   7.598   9.726   5.304  0.1296 -0.0809  0.0964
  725POPI   PO410140   7.636   9.648   5.907 -0.2136 -0.0030 -0.1427
  725POPI   GL110141   7.850   9.856   6.267 -0.0737  0.0210 -0.1980
  725POPI   GL210142   8.239   9.857   6.305  0.0063 -0.1368 -0.0886
  725POPI   C1A10143   8.029   9.429   6.402  0.1165 -0.1361 -0.1295
  725POPI   D2A10144   8.064   9.138   6.785  0.1757  0.3341 -0.0562
  725POPI   C3A10145   7.944   9.190   7.262 -0.0203  0.0057  0.0978
  725POPI   C4A10146   7.890   9.331   7.611  0.0862  0.0018  0.3332
  725POPI   C1B10147   8.413   9.719   6.628 -0.2715 -0.0901  0.0845
  725POPI   C2B10148   8.286   9.709   7.024  0.1930 -0.2739 -0.2034
  725POPI   C3B10149   8.303   9.654   7.499 -0.1154 -0.2277  0.0627
  725POPI   C4B10150   8.361  10.024   7.864 -0.2626  0.1972  0.0966
  726POPI    C110151  16.047  12.974   5.724 -0.0742  0.0364 -0.0494
  726POPI    C210152  16.204  12.787   5.407  0.1424 -0.0390  0.1002
  726POPI    C310153  15.843  12.956   5.380  0.1157 -0.1319 -0.1559
  726POPI   PO410154  16.072  12.874   5.900  0.0081 -0.3407 -0.3587
  726POPI   GL110155  16.346  12.785   6.262  0.0585  0.1142 -0.3673
  726POPI   GL210156  16.632  12.818   6.320  0.4132  0.0219 -0.1295
  726POPI   C1A10157  16.436  12.658   6.733  0.3677  0.0606 -0.0654
  726POPI   D2A10158  16.665  12.582   7.037 -0.0377  0.0867  0.1322
  726POPI   C3A10159  16.861  12.918   7.291  0.0848 -0.0612  0.0234
  726POPI   C4A10160  17.060  13.120   7.631  0.0347 -0.0048 -0.0722
  726POPI   C1B10161  16.882  12.889   6.670 -0.0717  0.2108 -0.1428
  726POPI   C2B10162  17.245  12.789   6.905  0.2923 -0.0739 -0.2532
  726POPI   C3B10163  17.456  12.988   7.296 -0.2988  0.1688  0.1556
  726POPI   C4B10164  17.960  13.110   7.432  0.0853 -0.0850  0.2377
  727POPI    C110165   4.558  18.183   5.133  0.0227  0.0990 -0.1050
  727POPI    C210166   4.468  17.909   4.856 -0.0454  0.2461 -0.2305
  727POPI    C310167   4.785  18.147   4.805  0.2727 -0.0950  0.0850
  727POPI   PO410168   4.602  18.030   5.332 -0.0279  0.2144 -0.0874
  727POPI   GL110169   4.535  18.154   5.740 -0.0777 -0.2313 -0.1017
  727POPI   GL210170   4.227  17.974   5.742 -0.1903 -0.0223  0.0400
  727POPI   C1A10171   4.459  18.213   6.108  0.1807  0.4192 -0.1436
  727POPI   D2A10172   4.320  18.378   6.384  0.1855  0.5041  0.1284
  727POPI   C3A10173   4.383  18.378   6.873 -0.2032 -0.0127  0.1449
  727POPI   C4A10174   4.263  18.534   7.205 -0.2560  0.2225  0.1479
  727POPI   C1B10175   4.000  18.309   5.939 -0.1777 -0.0027 -0.1224
  727POPI   C2B10176   3.625  18.383   6.222 -0.0600 -0.1468 -0.2740
  727POPI   C3B10177   3.340  18.381   6.599 -0.2421  0.1307 -0.0212
  727POPI   C4B10178   3.017  18.148   6.766 -0.2112  0.0937 -0.0750
  728POPI    C110179   6.870  11.405   5.741  0.0176  0.0686 -0.1471
  728POPI    C210180   6.925  11.769   5.583 -0.0063  0.0786 -0.1323
  728POPI    C310181   6.793  11.470   5.353 -0.3550  0.1724 -0.0602
  728POPI   PO410182   6.917  11.496   6.049  0.0733  0.3029 -0.1360
  728POPI   GL110183   6.742  11.618   6.393  0.6482  0.0134  0.0864
  728POPI   GL210184   6.899  11.460   6.607 -0.3414 -0.1111  0.3681
  728POPI   C1A10185   6.303  11.436   6.512  0.1446 -0.1293 -0.0545
  728POPI   D2A10186   6.069  11.224   6.881 -0.0040  0.2076 -0.1557
  728POPI   C3A10187   6.294  11.322   7.250  0.0347  0.0449 -0.2072
  728POPI   C4A10188   6.365  11.272   7.682  0.1341 -0.5186  0.1917
  728POPI   C1B10189   6.719  11.619   6.906 -0.0990  0.1161  0.0291
  728POPI   C2B10190   6.869  11.949   7.093  0.1237  0.1525  0.1756
  728POPI   C3B10191   7.387  11.921   7.252 -0.0343 -0.0011  0.1746
  728POPI   C4B10192   7.478  12.168   7.554  0.0833 -0.1775 -0.1913
  729POPI    C110193   5.857  12.223   6.108  0.0007 -0.0794  0.0712
  729POPI    C210194   5.760  12.463   5.803 -0.2212 -0.1146  0.1124
  729POPI    C310195   5.593  12.101   5.833  0.0012 -0.2168  0.1312
  729POPI   PO410196   6.013  12.449   6.266 -0.0502 -0.2619 -0.1867
  729POPI   GL110197   6.171  12.763   6.618 -0.4405 -0.0179 -0.4422
  729POPI   GL210198   5.968  13.010   6.561 -0.0487  0.2551 -0.2791
  729POPI   C1A10199   6.330  12.763   7.027 -0.0709  0.1824  0.3113
  729POPI   D2A10200   6.436  12.668   7.440 -0.1151 -0.2459 -0.0123
  729POPI   C3A10201   6.802  12.903   7.555  0.1542  0.2016  0.0814
  729POPI   C4A10202   6.870  13.311   7.919  0.5739 -0.1424 -0.0069
  729POPI   C1B10203   5.731  13.358   6.615 -0.2470  0.3476  0.0735
  729POPI   C2B10204   5.583  13.430   6.942 -0.1643  0.4094 -0.0092
  729POPI   C3B10205   5.305  13.314   7.155 -0.1961 -0.0269 -0.1956
  729POPI   C4B10206   5.087  13.085   7.394 -0.1494  0.0324  0.0205
  730POPI    C110207   8.487   4.427   5.822 -0.0903 -0.0702 -0.1548
  730POPI    C210208   8.566   4.617   6.166 -0.0208 -0.1316 -0.1366
  730POPI    C310209   8.805   4.668   5.849  0.0728 -0.2888 -0.0928
  730POPI   PO410210   8.340   4.197   5.954  0.1238 -0.4156 -0.0263
  730POPI   GL110211   8.490   4.063   6.461  0.1842  0.2539  0.0192
  730POPI   GL210212   8.786   4.122   6.445 -0.2379 -0.0462  0.0503
  730POPI   C1A10213   8.359   4.037   6.825 -0.0875  0.0314 -0.1010
  730POPI   D2A10214   8.121   3.729   6.934  0.0440 -0.0086  0.1085
  730POPI   C3A10215   8.271   3.464   7.313  0.2476  0.1473  0.0895
  730POPI   C4A10216   8.104   3.323   7.714  0.1308  0.0562  0.2067
  730POPI   C1B10217   9.030   4.200   6.731  0.1293 -0.1517 -0.0112
  730POPI   C2B10218   9.215   4.549   7.046 -0.2165  0.1645  0.0297
  730POPI   C3B10219   9.031   4.576   7.407  0.1063  0.1826 -0.3758
  730POPI   C4B10220   8.885   4.716   7.844 -0.1562 -0.0648  0.2650
  731POPI    C110221   3.086   0.921   4.827  0.0797  0.0362 -0.0873
  731POPI    C210222   2.830   0.639   4.948 -0.0796  0.2755  0.1408
  731POPI    C310223   2.895   0.695   4.558  0.0554 -0.1643  0.0957
  731POPI   PO410224   3.044   1.132   5.017  0.0697  0.4822 -0.3485
  731POPI   GL110225   2.924   0.997   5.453  0.3468  0.2530  0.0975
  731POPI   GL210226   2.772   0.718   5.472 -0.2367  0.0183  0.2429
  731POPI   C1A10227   2.783   1.257   5.853  0.3607 -0.0917 -0.1090
  731POPI   D2A10228   2.711   1.191   6.308  0.3684  0.0333 -0.2343
  731POPI   C3A10229   2.580   1.192   6.694  0.1903 -0.0419  0.1070
  731POPI   C4A10230   2.279   1.353   6.962  0.0117 -0.0592 -0.4627
  731POPI   C1B10231   3.106   0.760   5.858  0.2595  0.0276  0.0030
  731POPI   C2B10232   3.172   0.780   6.216 -0.2450  0.5005 -0.0599
  731POPI   C3B10233   2.898   0.774   6.492 -0.0890  0.1496 -0.1351
  731POPI   C4B10234   2.876   0.764   6.942  0.0025  0.0496  0.2408
  732POPI    C110235   8.679  11.931   5.804  0.2316 -0.0068  0.0228
  732POPI    C210236   8.751  12.121   5.459 -0.0595 -0.1801 -0.1370
  732POPI    C310237   8.825  11.729   5.491 -0.1478 -0.1896 -0.0424
  732POPI   PO410238   8.784  12.109   6.082  0.1624 -0.1838  0.1775
  732POPI   GL110239   8.517  12.240   6.493 -0.0612  0.0803  0.0625
  732POPI   GL210240   8.150  12.365   6.486 -0.2938  0.1372 -0.0779
  732POPI   C1A10241   8.570  12.315   6.893 -0.3380  0.3188  0.0737
  732POPI   D2A10242   8.675  12.438   7.351  0.2333  0.1427 -0.2295
  732POPI   C3A10243   8.363  12.716   7.542  0.2080 -0.1254 -0.2342
  732POPI   C4A10244   8.266  13.072   7.722 -0.3530 -0.0175 -0.0973
  732POPI   C1B10245   8.172  12.018   6.749  0.1380 -0.6412 -0.2869
  732POPI   C2B10246   8.083  11.782   7.097 -0.0136  0.1177  0.2811
  732POPI   C3B10247   7.994  11.846   7.513  0.0247  0.0930  0.0663
  732POPI   C4B10248   7.781  11.621   7.827  0.0406 -0.0239 -0.0881
  733POPI    C110249   4.607   6.793   5.879  0.1398 -0.1296  0.1086
  733POPI    C210250   4.574   6.776   6.277 -0.1706 -0.1711  0.0832
  733POPI    C310251   4.294   6.962   6.060  0.0416 -0.0724 -0.1110
  733POPI   PO410252   4.902   6.854   5.879 -0.1298 -0.0419 -0.2151
  733POPI   GL110253   5.078   6.893   6.248 -0.1355 -0.2767 -0.0923
  733POPI   GL210254   5.205   7.183   6.351 -0.4034  0.1170  0.0469
  733POPI   C1A10255   5.118   6.898   6.740  0.1314  0.0635 -0.0359
  733POPI   D2A10256   4.842   6.988   7.117  0.0209 -0.0773 -0.0731
  733POPI   C3A10257   5.105   6.832   7.446 -0.0004 -0.3286  0.4911
  733POPI   C4A10258   5.144   6.998   7.844 -0.2886  0.0157  0.2806
  733POPI   C1B10259   5.437   7.307   6.700  0.2190  0.3416 -0.0776
  733POPI   C2B10260   5.272   7.348   7.022  0.1403 -0.1052  0.0491
  733POPI   C3B10261   5.174   7.310   7.445 -0.0974  0.1256  0.2661
  733POPI   C4B10262   4.816   7.311   7.709 -0.0116 -0.2040  0.0929
  734POPI    C110263   3.688  17.760   5.194 -0.0394  0.0362  0.2179
  734POPI    C210264   3.869  17.735   5.550  0.0133 -0.0782  0.1837
  734POPI    C310265   4.086  17.728   5.214 -0.0411 -0.0322  0.1472
  734POPI   PO410266   3.463  17.473   5.272  0.1043  0.1995 -0.1559
  734POPI   GL110267   3.327  17.309   5.685  0.1530  0.0082  0.1940
  734POPI   GL210268   3.527  17.368   5.875 -0.0723 -0.0330 -0.1524
  734POPI   C1A10269   3.087  17.785   5.839  0.4341 -0.0163  0.0167
  734POPI   D2A10270   3.170  17.950   6.252 -0.0533  0.0722 -0.0393
  734POPI   C3A10271   3.450  17.928   6.455 -0.2383  0.1224  0.0945
  734POPI   C4A10272   3.779  17.832   6.946  0.1770  0.0044  0.2416
  734POPI   C1B10273   3.471  17.409   6.237  0.0089 -0.0796 -0.0608
  734POPI   C2B10274   3.370  17.483   6.658  0.1204 -0.0236 -0.0524
  734POPI   C3B10275   3.323  17.749   6.982 -0.0224  0.2371  0.1698
  734POPI   C4B10276   3.201  17.883   7.363 -0.0161 -0.0645  0.1420
  735POPI    C110277   0.561  15.564   5.454  0.1629  0.1891  0.0373
  735POPI    C210278   0.678  15.837   5.186  0.2143  0.0667 -0.0662
  735POPI    C310279   0.771  15.452   5.132  0.0084  0.0071 -0.0015
  735POPI   PO410280   0.300  15.665   5.559 -0.2039 -0.1782 -0.0908
  735POPI   GL110281   0.302  15.772   6.061  0.1663  0.1472  0.0571
  735POPI   GL210282   0.404  15.512   5.983 -0.2587  0.2603 -0.0984
  735POPI   C1A10283   0.440  15.805   6.480 -0.3387  0.2187  0.0401
  735POPI   D2A10284   0.446  15.459   6.802  0.1780 -0.1112  0.2446
  735POPI   C3A10285   0.898  15.522   7.120  0.0901 -0.2232  0.2891
  735POPI   C4A10286   1.242  15.202   7.045  0.1567  0.3553  0.1022
  735POPI   C1B10287   0.397  15.256   6.327  0.3719 -0.0104 -0.1524
  735POPI   C2B10288   0.183  15.061   6.668  0.2105  0.2349  0.1889
  735POPI   C3B10289   0.029  15.084   7.049  0.2536 -0.0012  0.1037
  735POPI   C4B10290  -0.240  14.855   7.341  0.0878 -0.1106  0.3125
  736POPI    C110291   7.532  15.578   5.314  0.1744 -0.0774  0.1426
  736POPI    C210292   7.602  15.705   4.941 -0.0334 -0.0090  0.1253
  736POPI    C310293   7.406  15.361   5.002  0.2881 -0.1881  0.1729
  736POPI   PO410294   7.565  15.906   5.473  0.0466 -0.0107 -0.0290
  736POPI   GL110295   7.527  16.307   5.741 -0.2124  0.1224 -0.2082
  736POPI   GL210296   7.423  16.616   5.836 -0.1450 -0.3737 -0.0888
  736POPI   C1A10297   7.473  16.206   6.157 -0.1314  0.2434 -0.0569
  736POPI   D2A10298   7.629  16.183   6.512 -0.2078 -0.2036 -0.0593
  736POPI   C3A10299   7.428  16.217   6.923  0.4082 -0.4464 -0.0534
  736POPI   C4A10300   7.171  16.102   7.260  0.1053  0.2144 -0.2977
  736POPI   C1B10301   7.593  16.645   6.298 -0.2534  0.1285  0.2850
  736POPI   C2B10302   7.656  16.698   6.795  0.0828  0.1038  0.2511
  736POPI   C3B10303   7.764  16.587   7.195  0.1553 -0.2094 -0.0137
  736POPI   C4B10304   7.776  16.468   7.597 -0.2757 -0.0885  0.0557
  737POPI    C110305   0.379  18.069   5.660  0.1715 -0.0638 -0.2545
  737POPI    C210306   0.220  17.722   5.779 -0.1087  0.1673  0.0608
  737POPI    C310307   0.150  17.857   5.409 -0.0174 -0.0977 -0.0559
  737POPI   PO410308   0.677  18.024   5.707  0.0353  0.2159 -0.0319
  737POPI   GL110309   0.795  17.967   6.047 -0.0185 -0.1058 -0.1510
  737POPI   GL210310   1.025  18.237   5.986  0.1465 -0.2498 -0.1864
  737POPI   C1A10311   0.384  17.874   6.261  0.5402  0.0914 -0.0481
  737POPI   D2A10312   0.151  18.010   6.657 -0.1214 -0.2117  0.0596
  737POPI   C3A10313  -0.070  17.734   6.814  0.1167 -0.1700  0.0174
  737POPI   C4A10314  -0.486  17.572   6.842  0.0950  0.1183 -0.0202
  737POPI   C1B10315   1.111  18.272   6.331  0.1296 -0.0329  0.0305
  737POPI   C2B10316   1.169  18.074   6.863  0.3374  0.0199  0.2591
  737POPI   C3B10317   1.096  17.982   7.296 -0.0236  0.1129  0.1519
  737POPI   C4B10318   0.839  17.953   7.690  0.4019  0.1273 -0.1231
  738POPI    C110319  16.861  12.429   5.380 -0.1323  0.1924  0.1415
  738POPI    C210320  16.504  12.428   5.200 -0.0495  0.2050 -0.0246
  738POPI    C310321  16.710  12.769   5.233  0.0613  0.1521 -0.1594
  738POPI   PO410322  16.840  12.229   5.642  0.0703  0.1777 -0.2042
  738POPI   GL110323  16.927  12.266   6.088 -0.2331  0.2250  0.1269
  738POPI   GL210324  16.701  12.400   6.109 -0.0654 -0.3052  0.2525
  738POPI   C1A10325  17.075  12.350   6.600  0.2237  0.0817 -0.0353
  738POPI   D2A10326  17.188  12.117   6.999 -0.2429  0.1037  0.0711
  738POPI   C3A10327  17.096  12.288   7.370  0.1119  0.1650  0.1766
  738POPI   C4A10328  17.126  12.600   7.667  0.0864 -0.3311 -0.0648
  738POPI   C1B10329  16.474  12.263   6.427 -0.1427  0.2860  0.2234
  738POPI   C2B10330  16.662  12.124   6.805 -0.0829 -0.0197 -0.0838
  738POPI   C3B10331  16.467  11.876   7.257 -0.0209  0.1361 -0.4789
  738POPI   C4B10332  16.293  11.904   7.712 -0.2296  0.2919 -0.1459
  739POPI    C110333   6.746   0.498   5.904 -0.0671  0.0569 -0.2375
  739POPI    C210334   6.895   0.642   5.562 -0.0527 -0.1435 -0.3172
  739POPI    C310335   7.101   0.370   5.771  0.1162  0.2552  0.0501
  739POPI   PO410336   6.416   0.607   5.850 -0.2757 -0.0122  0.0245
  739POPI   GL110337   6.081   0.888   6.161  0.0064  0.0840  0.3315
  739POPI   GL210338   6.333   0.762   6.307 -0.1204  0.0345 -0.1801
  739POPI   C1A10339   5.852   1.127   6.453 -0.3986 -0.0583  0.0573
  739POPI   D2A10340   5.733   1.314   6.781  0.0379 -0.0118  0.0624
  739POPI   C3A10341   5.677   1.513   7.175 -0.0313  0.0001  0.1455
  739POPI   C4A10342   5.317   1.625   7.376  0.0152  0.0429 -0.1340
  739POPI   C1B10343   6.255   0.878   6.682 -0.3800 -0.0149 -0.1171
  739POPI   C2B10344   5.951   0.897   6.952 -0.2365  0.0190 -0.2843
  739POPI   C3B10345   5.669   0.995   7.226 -0.3480  0.3114 -0.3930
  739POPI   C4B10346   5.620   0.699   7.594 -0.2069 -0.1211 -0.1569
  740POPI    C110347  16.450   2.457   5.107 -0.1571 -0.0769  0.0808
  740POPI    C210348  16.354   2.784   5.315 -0.1208 -0.1461  0.2074
  740POPI    C310349  16.527   2.819   4.956 -0.0481 -0.0272  0.2534
  740POPI   PO410350  16.605   2.384   5.313 -0.0321 -0.0452 -0.4569
  740POPI   GL110351  16.736   2.309   5.863  0.0075  0.0502 -0.4647
  740POPI   GL210352  16.683   2.659   5.790  0.1728 -0.0134  0.2116
  740POPI   C1A10353  16.724   2.527   6.314  0.1028  0.3433  0.1070
  740POPI   D2A10354  16.838   2.515   6.704 -0.0136  0.1651 -0.2192
  740POPI   C3A10355  16.983   2.206   7.035  0.0572  0.1076  0.0949
  740POPI   C4A10356  17.350   2.103   7.310 -0.0009 -0.2695 -0.0857
  740POPI   C1B10357  16.303   2.471   6.083  0.1749 -0.0348  0.2124
  740POPI   C2B10358  16.292   2.479   6.570 -0.1616 -0.1310  0.0263
  740POPI   C3B10359  16.235   2.506   6.947  0.1753  0.0407  0.1970
  740POPI   C4B10360  16.531   2.402   7.148 -0.1040 -0.0061 -0.3269
  741POPI    C110361   0.762  17.829   5.090  0.1422  0.0916  0.5567
  741POPI    C210362   1.086  17.598   5.042 -0.1434 -0.1863 -0.1836
  741POPI    C310363   1.093  17.981   4.925 -0.1135 -0.2238 -0.3059
  741POPI   PO410364   0.634  17.687   5.333 -0.1960  0.0843  0.0878
  741POPI   GL110365   0.537  17.367   5.558 -0.1373  0.1945 -0.1278
  741POPI   GL210366   0.696  17.506   5.889  0.0551  0.2278  0.2448
  741POPI   C1A10367   0.583  17.059   5.963 -0.0479  0.2256 -0.0523
  741POPI   D2A10368   0.565  16.755   6.244 -0.0459  0.1196  0.0952
  741POPI   C3A10369   0.584  16.696   6.692 -0.0208  0.0083 -0.3654
  741POPI   C4A10370   0.562  17.054   7.023 -0.0514 -0.1431  0.0458
  741POPI   C1B10371   0.738  17.466   6.364  0.4620  0.1662 -0.4082
  741POPI   C2B10372   0.445  17.531   6.789 -0.0720  0.1609  0.3019
  741POPI   C3B10373   0.436  17.852   7.075  0.0880 -0.1910  0.0951
  741POPI   C4B10374   0.702  18.234   7.222  0.2227 -0.2615  0.0526
  742POPS   CNO10375  16.391  16.027   5.184  0.2927 -0.3090 -0.0067
  742POPS   PO410376  16.617  15.741   5.488 -0.3203 -0.2555  0.1789
  742POPS   GL110377  16.649  15.771   5.966 -0.1712  0.2630  0.2583
  742POPS   GL210378  16.377  15.883   6.068  0.1006  0.0529  0.4995
  742POPS   C1A10379  16.832  16.107   6.173 -0.1632  0.0068 -0.0355
  742POPS   D2A10380  16.993  16.577   6.320 -0.1460 -0.0467  0.1778
  742POPS   C3A10381  16.947  16.565   6.805 -0.0637 -0.1535 -0.0974
  742POPS   C4A10382  17.327  16.610   7.115 -0.1925  0.0179  0.3739
  742POPS   C1B10383  16.346  15.769   6.513  0.2026 -0.1486 -0.1833
  742POPS   C2B10384  16.607  15.828   6.962  0.1889  0.0671 -0.0977
  742POPS   C3B10385  16.751  15.422   7.207  0.0161  0.3366  0.1510
  742POPS   C4B10386  16.613  15.372   7.618 -0.0676 -0.1238  0.2381
  743POPS   CNO10387  15.454   7.432   5.185  0.1259  0.0281  0.3517
  743POPS   PO410388  15.375   7.775   5.415  0.0615  0.0858 -0.1142
  743POPS   GL110389  15.106   7.737   5.776  0.3682  0.1175 -0.0312
  743POPS   GL210390  15.007   7.861   6.011 -0.5094 -0.3065 -0.2132
  743POPS   C1A10391  15.011   7.345   6.212 -0.3491  0.0413  0.0943
  743POPS   D2A10392  14.961   6.892   6.435 -0.2076 -0.1990  0.1851
  743POPS   C3A10393  14.815   6.950   6.818  0.2767  0.0719  0.2934
  743POPS   C4A10394  14.587   7.187   7.137 -0.2533  0.1752 -0.1097
  743POPS   C1B10395  15.164   7.805   6.420 -0.1180 -0.0834 -0.0646
  743POPS   C2B10396  15.362   7.428   6.632 -0.0306 -0.2998 -0.3506
  743POPS   C3B10397  15.290   7.085   6.857  0.0497 -0.1498 -0.0549
  743POPS   C4B10398  15.268   6.730   7.267 -0.2134 -0.2070 -0.1779
  744POPS   CNO10399  11.253  13.030   5.333  0.1276  0.0391  0.0804
  744POPS   PO410400  11.403  13.203   5.658 -0.0995 -0.0725  0.0467
  744POPS   GL110401  11.395  13.178   6.091  0.0779 -0.0828 -0.1636
  744POPS   GL210402  11.431  12.821   6.240 -0.1101  0.2371 -0.0833
  744POPS   C1A10403  11.430  13.295   6.497  0.0561 -0.1252  0.2844
  744POPS   D2A10404  11.235  13.403   6.806  0.1595  0.1809 -0.0568
  744POPS   C3A10405  10.884  13.297   6.770  0.0627  0.2400 -0.4069
  744POPS   C4A10406  10.677  12.988   6.571  0.0117 -0.0057  0.1918
  744POPS   C1B10407  11.179  12.901   6.566 -0.1063  0.3781  0.2396
  744POPS   C2B10408  11.086  12.856   6.946  0.0656  0.1492  0.1536
  744POPS   C3B10409  11.155  13.101   7.322  0.3013 -0.5088  0.0837
  744POPS   C4B10410  11.051  13.426   7.696 -0.2003 -0.0479  0.0913
  745POPS   CNO10411  16.240   3.332   5.815  0.1543  0.2184 -0.3130
  745POPS   PO410412  16.565   3.241   5.700  0.0992  0.5243  0.0060
  745POPS   GL110413  16.864   3.161   6.116 -0.0463  0.1660 -0.0802
  745POPS   GL210414  16.793   3.344   6.342  0.2579 -0.2437 -0.0921
  745POPS   C1A10415  17.080   2.959   6.535  0.3317  0.0388 -0.2740
  745POPS   D2A10416  17.073   2.902   6.932 -0.0069  0.0451 -0.3262
  745POPS   C3A10417  17.039   2.669   7.239 -0.1595 -0.2737 -0.2178
  745POPS   C4A10418  17.143   2.668   7.606  0.3013  0.0588  0.1923
  745POPS   C1B10419  16.412   3.440   6.357  0.3089  0.2013  0.2969
  745POPS   C2B10420  16.479   3.583   6.751  0.1587 -0.1692 -0.0341
  745POPS   C3B10421  16.394   3.561   7.139 -0.0743 -0.0189  0.0836
  745POPS   C4B10422  16.338   3.394   7.482  0.2200  0.0522  0.0653
  746POPS   CNO10423  17.981   4.498   5.299  0.2232  0.1973  0.0108
  746POPS   PO410424  17.481   4.533   5.232 -0.2786 -0.1991  0.0744
  746POPS   GL110425  17.287   4.611   5.683  0.2043 -0.2167 -0.0345
  746POPS   GL210426  17.202   4.879   5.736 -0.0725  0.5588 -0.0793
  746POPS   C1A10427  17.255   4.406   6.181 -0.1232  0.4380  0.0186
  746POPS   D2A10428  17.194   4.390   6.541  0.3848 -0.3941 -0.0220
  746POPS   C3A10429  16.988   4.323   6.939 -0.1851 -0.2406 -0.1124
  746POPS   C4A10430  16.751   4.273   7.405  0.0087  0.3239  0.1444
  746POPS   C1B10431  16.947   4.726   6.115 -0.0230  0.0280  0.2126
  746POPS   C2B10432  16.464   4.705   6.065 -0.3093  0.0715  0.0377
  746POPS   C3B10433  15.995   4.863   6.156  0.1895 -0.1163 -0.1406
  746POPS   C4B10434  15.737   5.179   6.312 -0.4682  0.1614  0.1660
  747POPS   CNO10435  10.674   7.190   5.108 -0.2033 -0.1763 -0.0537
  747POPS   PO410436  10.624   7.238   5.496  0.4308 -0.1819  0.1251
  747POPS   GL110437  10.514   7.222   5.957  0.0869  0.0095 -0.0291
  747POPS   GL210438  10.360   7.520   6.033  0.2978  0.0287 -0.1336
  747POPS   C1A10439  10.485   7.300   6.433 -0.0212 -0.0942 -0.1429
  747POPS   D2A10440  10.668   7.508   6.692  0.1230 -0.0544 -0.1866
  747POPS   C3A10441  10.654   7.418   7.097 -0.0985  0.0758 -0.1980
  747POPS   C4A10442  10.619   7.466   7.590  0.1040 -0.0179  0.3103
  747POPS   C1B10443  10.368   7.819   6.394  0.0290 -0.0475 -0.0588
  747POPS   C2B10444  10.187   7.958   6.683 -0.2359 -0.4374  0.0442
  747POPS   C3B10445  10.017   7.991   7.039  0.0158 -0.5245 -0.0131
  747POPS   C4B10446   9.568   8.069   7.255 -0.2702  0.0484 -0.0912
  748POPS   CNO10447   6.561  13.898   6.329  0.2618  0.0156 -0.1619
  748POPS   PO410448   6.363  14.196   5.956  0.3257  0.0876 -0.2647
  748POPS   GL110449   6.279  14.355   6.372 -0.0580  0.2103 -0.2135
  748POPS   GL210450   6.588  14.492   6.480  0.0521  0.2653 -0.2005
  748POPS   C1A10451   5.987  14.466   6.769 -0.1311  0.0354  0.2170
  748POPS   D2A10452   6.040  14.564   7.161  0.3169 -0.2596 -0.3246
  748POPS   C3A10453   5.718  14.356   7.537 -0.0223 -0.5257  0.0762
  748POPS   C4A10454   5.468  14.077   7.728 -0.0476 -0.3504 -0.1767
  748POPS   C1B10455   6.483  14.719   6.925 -0.0550 -0.2395  0.3374
  748POPS   C2B10456   6.541  14.756   7.393 -0.2763 -0.2006  0.2212
  748POPS   C3B10457   6.833  14.634   7.749  0.0695 -0.1173 -0.1134
  748POPS   C4B10458   7.061  14.290   7.823  0.2385  0.3550 -0.1651
  749POPS   CNO10459  11.508  15.979   5.591  0.1256 -0.0987  0.1968
  749POPS   PO410460  11.721  16.174   5.893  0.1316 -0.1942  0.1647
  749POPS   GL110461  11.494  16.309   6.286  0.2967 -0.1706 -0.1180
  749POPS   GL210462  11.363  16.576   6.190  0.0538 -0.1069 -0.0220
  749POPS   C1A10463  11.736  16.261   6.619 -0.0014  0.0526  0.1444
  749POPS   D2A10464  12.067  16.244   6.778 -0.3424 -0.0876  0.0164
  749POPS   C3A10465  12.071  16.291   7.287 -0.0474  0.2741 -0.0223
  749POPS   C4A10466  12.182  16.292   7.749  0.3297  0.0587  0.0062
  749POPS   C1B10467  11.420  16.730   6.628 -0.2216 -0.3215  0.0374
  749POPS   C2B10468  11.396  16.711   7.123  0.0153  0.2627  0.0554
  749POPS   C3B10469  11.286  16.381   7.440 -0.1142 -0.2926  0.1336
  749POPS   C4B10470  10.929  16.374   7.669  0.0570 -0.1491  0.4028
  750POPS   CNO10471  17.179   8.204   5.707 -0.3723 -0.1400  0.2905
  750POPS   PO410472  17.266   7.809   5.595 -0.0826  0.1596  0.0700
  750POPS   GL110473  17.474   7.663   6.018  0.2314 -0.2424  0.0392
  750POPS   GL210474  17.268   7.458   6.210 -0.1944  0.0215 -0.0083
  750POPS   C1A10475  17.508   7.736   6.479  0.0282 -0.1883 -0.0918
  750POPS   D2A10476  17.525   7.801   6.915  0.0908  0.0951 -0.3426
  750POPS   C3A10477  17.320   7.492   7.190  0.2759 -0.3732  0.4111
  750POPS   C4A10478  17.087   7.661   7.605  0.1662  0.0326 -0.1054
  750POPS   C1B10479  16.873   7.370   6.326 -0.2216 -0.0747 -0.0259
  750POPS   C2B10480  16.728   7.130   6.770 -0.1297 -0.0531  0.0032
  750POPS   C3B10481  16.719   6.912   7.230  0.0555  0.2623 -0.0398
  750POPS   C4B10482  16.549   7.140   7.643 -0.0455  0.2099 -0.1598
  751POPS   CNO10483  17.161  18.636   5.246 -0.3037 -0.0315 -0.2017
  751POPS   PO410484  17.253  18.991   5.358 -0.1744 -0.3471 -0.1730
  751POPS   GL110485  17.390  18.745   5.803 -0.1022  0.1592  0.1620
  751POPS   GL210486  17.653  18.913   5.911 -0.0130  0.0150  0.2545
  751POPS   C1A10487  17.440  18.710   6.298 -0.1582 -0.1221  0.2123
  751POPS   D2A10488  17.537  18.746   6.719  0.0518 -0.0472  0.2748
  751POPS   C3A10489  17.391  18.559   7.025  0.2732  0.4798 -0.1004
  751POPS   C4A10490  17.649  18.434   7.296  0.4848 -0.1297 -0.1522
  751POPS   C1B10491  17.734  19.160   6.324 -0.2822  0.0620 -0.1282
  751POPS   C2B10492  17.984  19.328   6.697  0.2773  0.0841  0.2107
  751POPS   C3B10493  18.058  19.262   7.063 -0.0591 -0.1483  0.2346
  751POPS   C4B10494  18.222  19.025   7.369 -0.0057 -0.0831  0.0898
  752POPS   CNO10495   2.304  13.991   5.589  0.0360  0.0263 -0.1866
  752POPS   PO410496   2.352  14.519   5.599  0.2184  0.2841 -0.1923
  752POPS   GL110497   2.460  14.717   5.985 -0.0206 -0.2100 -0.1527
  752POPS   GL210498   2.838  14.636   6.057  0.0481 -0.1972 -0.0636
  752POPS   C1A10499   2.459  14.537   6.373 -0.0538 -0.2032 -0.1433
  752POPS   D2A10500   2.118  14.341   6.623 -0.1968  0.0884 -0.2534
  752POPS   C3A10501   2.136  13.942   6.401  0.2171  0.1110 -0.2535
  752POPS   C4A10502   1.820  13.669   6.358 -0.1676 -0.1882  0.1115
  752POPS   C1B10503   3.007  14.278   6.344 -0.1464 -0.2613  0.1348
  752POPS   C2B10504   3.032  14.263   6.840  0.3906  0.4120  0.1168
  752POPS   C3B10505   2.663  14.068   7.120  0.1391  0.1641 -0.0037
  752POPS   C4B10506   2.597  13.938   7.533  0.0637 -0.0664 -0.5406
  753POPS   CNO10507  10.762   8.887   5.333  0.1661 -0.3090  0.1623
  753POPS   PO410508  10.951   8.564   5.539  0.0438 -0.2132 -0.0177
  753POPS   GL110509  10.932   8.308   5.925 -0.1613 -0.0466  0.2754
  753POPS   GL210510  11.019   8.581   6.158 -0.1362 -0.0420 -0.2835
  753POPS   C1A10511  10.885   8.068   6.209  0.1797 -0.0339 -0.1061
  753POPS   D2A10512  10.842   7.954   6.581 -0.0932  0.0963  0.2349
  753POPS   C3A10513  10.617   7.945   7.041  0.0557 -0.2823  0.1346
  753POPS   C4A10514  10.328   7.791   7.348 -0.0468  0.0844  0.2777
  753POPS   C1B10515  11.027   8.417   6.615  0.1587  0.3541 -0.1625
  753POPS   C2B10516  11.049   8.391   7.078 -0.0006  0.2263  0.1063
  753POPS   C3B10517  10.773   8.302   7.532 -0.2269  0.1331 -0.3506
  753POPS   C4B10518  10.561   8.115   7.812  0.2873 -0.0095 -0.2997
  754POPS   CNO10519   6.134  15.153   5.465 -0.4229 -0.3031  0.1990
  754POPS   PO410520   6.327  15.153   5.875 -0.5477 -0.1592  0.0497
  754POPS   GL110521   6.057  15.275   6.189  0.1667  0.2961 -0.1195
  754POPS   GL210522   6.157  15.434   6.386 -0.1952 -0.1097  0.2229
  754POPS   C1A10523   6.061  15.070   6.756 -0.0984  0.0934 -0.1067
  754POPS   D2A10524   6.045  15.145   7.187 -0.0744  0.2009  0.1247
  754POPS   C3A10525   6.090  15.484   7.413 -0.1247 -0.1990 -0.0273
  754POPS   C4A10526   6.073  15.728   7.759  0.2352 -0.1444  0.1874
  754POPS   C1B10527   6.151  15.552   6.804  0.1278 -0.4738 -0.1941
  754POPS   C2B10528   6.183  15.866   7.083 -0.2694  0.1102  0.0768
  754POPS   C3B10529   5.852  15.989   7.338  0.2381 -0.2075 -0.3629
  754POPS   C4B10530   5.649  16.187   7.556  0.1737 -0.1095  0.2284
  755POPS   CNO10531  15.066  17.279   5.734 -0.4410  0.0639  0.2667
  755POPS   PO410532  15.498  17.100   5.492  0.0168 -0.1498  0.1680
  755POPS   GL110533  15.395  16.899   5.807 -0.0529  0.0222 -0.4749
  755POPS   GL210534  15.400  17.129   6.127 -0.0595 -0.2138  0.3737
  755POPS   C1A10535  15.511  16.621   6.129 -0.2823 -0.4436 -0.1547
  755POPS   D2A10536  15.424  16.228   6.319  0.5110  0.3066 -0.0121
  755POPS   C3A10537  15.464  16.299   6.721  0.1097  0.2931  0.1636
  755POPS   C4A10538  15.657  16.448   7.094 -0.1045  0.0529  0.0910
  755POPS   C1B10539  15.361  17.303   6.584  0.0920  0.1850 -0.0026
  755POPS   C2B10540  15.504  17.406   6.988 -0.2874 -0.0952 -0.0717
  755POPS   C3B10541  15.781  17.685   7.180 -0.2236 -0.1231  0.2012
  755POPS   C4B10542  16.127  17.668   6.845 -0.2707  0.0899 -0.0790
  756POPS   CNO10543  15.334   4.389   5.122  0.1779  0.1157 -0.0449
  756POPS   PO410544  15.796   4.426   5.345 -0.0270  0.0125  0.0178
  756POPS   GL110545  15.477   4.364   5.656  0.2418  0.0039  0.3344
  756POPS   GL210546  15.233   4.148   5.568  0.1240 -0.4211  0.0829
  756POPS   C1A10547  15.467   4.215   6.102  0.0654  0.1775  0.2338
  756POPS   D2A10548  15.475   4.159   6.574  0.2831 -0.0244  0.2300
  756POPS   C3A10549  15.584   4.318   6.899 -0.0496 -0.0035 -0.3651
  756POPS   C4A10550  15.828   4.264   7.370 -0.0971 -0.2995  0.0626
  756POPS   C1B10551  15.246   3.729   5.847 -0.0760  0.0154 -0.1021
  756POPS   C2B10552  15.536   3.495   6.107 -0.1100  0.3574 -0.2907
  756POPS   C3B10553  15.661   3.334   6.615  0.2048  0.0060  0.0188
  756POPS   C4B10554  15.922   3.367   6.950 -0.2012  0.2028  0.0223
  757POPS   CNO10555   5.427  14.060   6.072 -0.0371 -0.1526 -0.5107
  757POPS   PO410556   5.804  13.881   5.798  0.2279 -0.3050  0.0750
  757POPS   GL110557   5.934  13.943   6.234  0.1982 -0.0449  0.0370
  757POPS   GL210558   6.054  13.682   6.363 -0.1616 -0.1386 -0.1301
  757POPS   C1A10559   5.695  13.984   6.672  0.2336 -0.2468 -0.0177
  757POPS   D2A10560   5.931  13.986   6.937 -0.0311 -0.0112  0.1002
  757POPS   C3A10561   6.068  14.073   7.338  0.1369 -0.1981  0.1084
  757POPS   C4A10562   6.192  14.372   7.612  0.1782 -0.0358 -0.2594
  757POPS   C1B10563   6.328  13.850   6.701 -0.1539 -0.0888  0.1171
  757POPS   C2B10564   6.480  14.180   6.896  0.0915  0.0066 -0.0525
  757POPS   C3B10565   6.880  14.384   6.984  0.1140 -0.3061 -0.2291
  757POPS   C4B10566   7.129  14.626   7.348 -0.1329 -0.2256  0.0026
  758POPS   CNO10567   6.123  10.930   5.999  0.0088  0.3375  0.0587
  758POPS   PO410568   6.087  10.531   6.111  0.1088  0.0927 -0.1220
  758POPS   GL110569   5.953  10.417   6.460 -0.2676 -0.1068  0.0767
  758POPS   GL210570   5.773  10.638   6.566 -0.1298  0.0701  0.0238
  758POPS   C1A10571   5.815  10.277   6.943  0.2079  0.0622  0.1172
  758POPS   D2A10572   5.793   9.924   7.249  0.0159  0.0299 -0.2761
  758POPS   C3A10573   6.030   9.508   7.223  0.0388 -0.0019  0.2774
  758POPS   C4A10574   6.192   9.279   7.552 -0.0213  0.0103  0.1508
  758POPS   C1B10575   6.099  10.658   6.887  0.1893  0.1677 -0.1841
  758POPS   C2B10576   6.181  10.797   7.244 -0.1253  0.0586  0.3208
  758POPS   C3B10577   6.093  10.860   7.628  0.2973 -0.2599  0.1918
  758POPS   C4B10578   6.113  10.825   8.087  0.1582 -0.2800 -0.0447
  759POPS   CNO10579  16.220   6.007   5.310 -0.0258  0.1603 -0.1787
  759POPS   PO410580  16.395   5.599   5.560  0.2667 -0.1726  0.0129
  759POPS   GL110581  16.302   5.429   6.009 -0.0025  0.1168  0.0005
  759POPS   GL210582  16.599   5.238   5.919 -0.0184 -0.1728 -0.4232
  759POPS   C1A10583  16.438   5.113   6.383  0.0792 -0.3080  0.0339
  759POPS   D2A10584  16.652   4.997   6.720  0.2082  0.2324 -0.4118
  759POPS   C3A10585  16.695   5.222   7.119 -0.2217 -0.1806  0.2664
  759POPS   C4A10586  16.318   5.491   7.306 -0.0713  0.0185  0.0973
  759POPS   C1B10587  16.913   5.191   6.209  0.0427  0.4758  0.0226
  759POPS   C2B10588  17.018   5.315   6.700  0.1881  0.0022  0.1770
  759POPS   C3B10589  17.198   5.269   7.138  0.2474 -0.0288  0.1463
  759POPS   C4B10590  17.133   5.017   7.509  0.1751 -0.4568  0.0107
  760POPS   CNO10591   0.145   6.735   5.665  0.2536  0.0557  0.1204
  760POPS   PO410592   0.567   6.711   5.590 -0.3710  0.3556  0.0281
  760POPS   GL110593   0.505   6.677   6.051 -0.4273  0.1005  0.0246
  760POPS   GL210594   0.526   6.349   5.969 -0.2000  0.0252 -0.0696
  760POPS   C1A10595   0.677   6.570   6.432 -0.2870  0.2832  0.2879
  760POPS   D2A10596   0.889   6.490   6.719 -0.1566  0.0820  0.4598
  760POPS   C3A10597   0.921   6.796   7.068  0.4758  0.2804 -0.3984
  760POPS   C4A10598   1.149   7.086   7.373  0.0166  0.3652 -0.0102
  760POPS   C1B10599   0.415   6.102   6.380  0.0520  0.1179  0.0001
  760POPS   C2B10600   0.600   6.137   6.853 -0.3128  0.0726  0.2248
  760POPS   C3B10601   0.681   6.344   7.148 -0.2078 -0.0830 -0.1536
  760POPS   C4B10602   0.496   6.419   7.500  0.2880  0.1133  0.0165
  761POPS   CNO10603   8.410  18.361   5.297  0.1352 -0.2962 -0.0485
  761POPS   PO410604   8.576  18.825   5.453  0.1856  0.0228  0.1063
  761POPS   GL110605   8.414  18.765   5.902 -0.0582  0.0901  0.0755
  761POPS   GL210606   8.662  18.541   6.111 -0.3361 -0.4616 -0.2060
  761POPS   C1A10607   8.183  18.819   6.218 -0.2026  0.1171  0.4240
  761POPS   D2A10608   7.769  18.864   6.442  0.1938 -0.2111  0.0845
  761POPS   C3A10609   7.334  18.721   6.562  0.2726  0.0110 -0.0077
  761POPS   C4A10610   7.022  18.916   6.733 -0.1802 -0.0471  0.0495
  761POPS   C1B10611   8.649  18.495   6.592  0.3631 -0.0535  0.2149
  761POPS   C2B10612   8.689  18.591   7.020 -0.1004  0.1631  0.1429
  761POPS   C3B10613   8.634  18.464   7.498 -0.0985 -0.0617 -0.1383
  761POPS   C4B10614   8.485  18.658   7.871 -0.2212 -0.0344 -0.0092
  762POPS   CNO10615  18.259   1.257   5.435  0.2827 -0.2849  0.1214
  762POPS   PO410616  18.655   1.106   5.607 -0.0901 -0.0671 -0.0888
  762POPS   GL110617  18.759   1.190   6.046  0.0473 -0.1713 -0.1743
  762POPS   GL210618  19.004   1.391   5.960  0.0751  0.1559 -0.0313
  762POPS   C1A10619  18.815   1.260   6.547 -0.1584 -0.1407  0.0424
  762POPS   D2A10620  18.509   1.265   6.966 -0.0169  0.0175  0.2252
  762POPS   C3A10621  18.508   1.221   7.431  0.2361  0.1412 -0.0449
  762POPS   C4A10622  18.668   1.273   7.874 -0.1121  0.1164  0.2329
  762POPS   C1B10623  19.138   1.654   6.213 -0.0009 -0.3229 -0.0286
  762POPS   C2B10624  19.269   1.844   6.591  0.1410  0.3781  0.0539
  762POPS   C3B10625  19.199   2.055   6.920  0.0034 -0.1656 -0.0681
  762POPS   C4B10626  19.016   2.416   6.979 -0.0883 -0.2072 -0.0830
  763POPS   CNO10627  13.662  11.738   5.898  0.1449  0.0262  0.0300
  763POPS   PO410628  13.840  12.189   5.737  0.0077  0.0322 -0.2573
  763POPS   GL110629  13.865  12.315   6.151  0.2714  0.0074  0.4116
  763POPS   GL210630  13.810  11.955   6.308  0.1913 -0.2720 -0.2281
  763POPS   C1A10631  13.994  12.314   6.570  0.2598  0.0963 -0.4176
  763POPS   D2A10632  13.900  12.402   6.995 -0.2019 -0.0757  0.1729
  763POPS   C3A10633  13.602  12.150   7.116  0.2347 -0.1094 -0.2755
  763POPS   C4A10634  13.221  12.273   7.356 -0.2407 -0.2089  0.2344
  763POPS   C1B10635  13.567  12.051   6.649  0.1559 -0.2562 -0.1593
  763POPS   C2B10636  13.220  12.218   6.874  0.3546 -0.2555 -0.2476
  763POPS   C3B10637  12.852  12.317   6.905  0.2974 -0.1710  0.0601
  763POPS   C4B10638  12.463  12.348   6.806 -0.0271  0.2227 -0.0551
  764POPS   CNO10639   3.793  13.594   5.526  0.0496  0.0278  0.2415
  764POPS   PO410640   3.652  13.694   5.918  0.0062  0.3857  0.3140
  764POPS   GL110641   3.375  13.505   6.223 -0.0655  0.0852  0.1370
  764POPS   GL210642   3.453  13.568   6.560 -0.5424 -0.0287  0.1481
  764POPS   C1A10643   2.985  13.338   6.394  0.0364 -0.1321  0.0618
  764POPS   D2A10644   2.722  13.316   6.786 -0.0019  0.0278  0.4795
  764POPS   C3A10645   2.267  13.061   6.987 -0.2400 -0.2785 -0.2577
  764POPS   C4A10646   1.957  13.154   7.335 -0.0750  0.0059 -0.1055
  764POPS   C1B10647   3.513  13.785   6.913  0.0465  0.2726 -0.1165
  764POPS   C2B10648   3.203  13.994   7.275 -0.0119 -0.1843  0.1232
  764POPS   C3B10649   3.122  14.053   7.631 -0.3049 -0.0148  0.2071
  764POPS   C4B10650   2.922  13.696   7.790  0.1060  0.2201 -0.0789
  765POPS   CNO10651  14.441  11.163   5.607  0.1174 -0.2448 -0.1024
  765POPS   PO410652  14.316  11.030   6.007 -0.1895  0.0881 -0.1634
  765POPS   GL110653  14.445  10.720   6.355  0.0809  0.1909  0.0922
  765POPS   GL210654  14.807  10.529   6.295  0.0823 -0.0144 -0.1754
  765POPS   C1A10655  14.688  10.846   6.751  0.2098  0.1044  0.1019
  765POPS   D2A10656  14.890  11.187   6.852  0.2516 -0.0579 -0.0566
  765POPS   C3A10657  15.243  11.088   6.954 -0.0472 -0.2400 -0.3301
  765POPS   C4A10658  15.670  10.898   6.870  0.0798 -0.2556  0.0397
  765POPS   C1B10659  14.629  10.382   6.709  0.1114  0.1674 -0.3212
  765POPS   C2B10660  14.414  10.543   7.124 -0.0351 -0.3657  0.1402
  765POPS   C3B10661  14.128  10.587   7.467  0.3268  0.0716  0.2429
  765POPS   C4B10662  13.927  10.528   7.860 -0.0363  0.1108  0.0324
  766POPS   CNO10663   9.207  12.491   5.976 -0.2595 -0.0578 -0.2870
  766POPS   PO410664   9.658  12.250   5.870  0.0070  0.1672  0.0626
  766POPS   GL110665   9.795  12.495   6.339 -0.0640  0.0702  0.0365
  766POPS   GL210666  10.038  12.639   6.371  0.0076 -0.0473  0.2496
  766POPS   C1A10667   9.758  12.449   6.828 -0.2961 -0.1887 -0.2857
  766POPS   D2A10668   9.659  12.500   7.224 -0.1298 -0.0465  0.2457
  766POPS   C3A10669   9.897  12.460   7.567  0.1263 -0.2586 -0.2290
  766POPS   C4A10670  10.041  12.679   7.948 -0.1083 -0.2194 -0.0561
  766POPS   C1B10671  10.221  12.594   6.733  0.2726 -0.4988  0.3542
  766POPS   C2B10672  10.182  12.607   7.175 -0.0781 -0.0333 -0.0336
  766POPS   C3B10673  10.304  12.837   7.536 -0.3240 -0.0448 -0.1764
  766POPS   C4B10674  10.132  13.170   7.813 -0.0338  0.0047 -0.1623
  767POPS   CNO10675  16.631  17.407   5.551  0.2728 -0.1030 -0.0900
  767POPS   PO410676  16.240  17.628   5.569  0.0936  0.0157  0.1720
  767POPS   GL110677  16.040  17.732   5.895  0.0364 -0.3620 -0.1188
  767POPS   GL210678  16.157  18.090   6.070 -0.3523  0.2065 -0.3889
  767POPS   C1A10679  16.163  17.591   6.270 -0.0025 -0.2853  0.0760
  767POPS   D2A10680  16.260  17.359   6.501  0.2122 -0.0048  0.1696
  767POPS   C3A10681  16.035  17.143   6.852  0.0679 -0.0267  0.4823
  767POPS   C4A10682  16.005  16.770   7.028 -0.2065  0.0671  0.1349
  767POPS   C1B10683  16.077  18.004   6.530  0.1519  0.0172  0.1164
  767POPS   C2B10684  15.952  18.133   6.988  0.4195  0.0036  0.0333
  767POPS   C3B10685  15.774  18.186   7.367 -0.3535 -0.0001  0.0907
  767POPS   C4B10686  15.648  18.110   7.722 -0.0606  0.1944 -0.0804
  768POPS   CNO10687   3.045   4.413   5.170 -0.0784 -0.0568 -0.2382
  768POPS   PO410688   3.423   4.275   5.331 -0.0367 -0.3393  0.0071
  768POPS   GL110689   3.378   4.194   5.762 -0.5147  0.4598 -0.0602
  768POPS   GL210690   3.065   4.254   5.911 -0.2608 -0.1131  0.0691
  768POPS   C1A10691   3.589   4.127   6.181 -0.1651  0.3004 -0.3359
  768POPS   D2A10692   3.710   4.449   6.455 -0.2693 -0.3943  0.0256
  768POPS   C3A10693   4.010   4.389   6.720 -0.0876  0.0549  0.1503
  768POPS   C4A10694   4.144   4.563   7.117 -0.2797  0.1913 -0.2267
  768POPS   C1B10695   2.823   4.390   6.395  0.0617  0.0650 -0.1835
  768POPS   C2B10696   2.761   4.476   6.775 -0.0008 -0.0113 -0.2819
  768POPS   C3B10697   2.868   4.143   7.100 -0.1956 -0.0376  0.2857
  768POPS   C4B10698   2.962   3.694   7.329  0.1375  0.2058 -0.0138
  769POPS   CNO10699   1.151  15.734   5.373  0.2035 -0.1072 -0.1943
  769POPS   PO410700   1.134  16.115   5.473  0.1242  0.2356 -0.2429
  769POPS   GL110701   0.983  16.260   5.867  0.1016 -0.3219  0.1160
  769POPS   GL210702   1.255  16.029   6.013 -0.3384  0.1182 -0.0740
  769POPS   C1A10703   0.882  16.362   6.195 -0.2214  0.2399 -0.0611
  769POPS   D2A10704   0.847  16.338   6.512 -0.0110 -0.0237 -0.0412
  769POPS   C3A10705   0.919  16.288   6.858 -0.0741 -0.1315  0.4886
  769POPS   C4A10706   0.967  16.320   7.332 -0.1764  0.0950  0.0734
  769POPS   C1B10707   1.335  16.223   6.431 -0.1100  0.0069 -0.2087
  769POPS   C2B10708   1.437  16.341   6.897  0.0648 -0.0138 -0.0778
  769POPS   C3B10709   1.392  16.578   7.357  0.0066 -0.0124  0.1888
  769POPS   C4B10710   1.275  16.418   7.742  0.2332 -0.0759  0.3326
  770POPS   CNO10711  13.089   0.572   5.071  0.0542  0.1447 -0.3943
  770POPS   PO410712  12.943   0.868   5.426 -0.0355  0.1332 -0.1614
  770POPS   GL110713  13.168   0.987   5.820 -0.2838  0.3126 -0.3582
  770POPS   GL210714  13.476   1.091   5.841  0.1828  0.0882 -0.3540
  770POPS   C1A10715  13.193   1.194   6.268 -0.0100 -0.0680  0.0330
  770POPS   D2A10716  12.920   1.315   6.491  0.0915  0.1157 -0.2723
  770POPS   C3A10717  13.024   1.497   7.020 -0.3576 -0.2159  0.2306
  770POPS   C4A10718  13.163   1.638   7.367 -0.0654  0.1143  0.2801
  770POPS   C1B10719  13.626   0.884   6.205  0.1748  0.2472  0.0828
  770POPS   C2B10720  13.746   0.700   6.652 -0.0968 -0.0325 -0.0940
  770POPS   C3B10721  13.734   0.714   6.986 -0.0192 -0.2982 -0.2092
  770POPS   C4B10722  13.839   0.774   7.441 -0.0325 -0.1162  0.1468
  771POPS   CNO10723  13.737  12.717   5.068  0.0524 -0.2244  0.2165
  771POPS   PO410724  13.972  12.628   5.416 -0.1232 -0.1868 -0.1523
  771POPS   GL110725  14.076  12.753   5.766  0.0800  0.1639 -0.1895
  771POPS   GL210726  13.843  12.959   5.914  0.3103  0.1637  0.0353
  771POPS   C1A10727  14.137  12.706   6.199 -0.1633 -0.0680  0.4539
  771POPS   D2A10728  13.855  12.850   6.469  0.0260  0.0863 -0.2053
  771POPS   C3A10729  13.792  12.926   6.885 -0.1083  0.0148  0.0352
  771POPS   C4A10730  13.655  13.016   7.316 -0.0370 -0.2446  0.1249
  771POPS   C1B10731  13.816  13.274   6.216 -0.1363 -0.0853 -0.3113
  771POPS   C2B10732  13.530  13.236   6.580 -0.0550 -0.1584  0.0517
  771POPS   C3B10733  13.448  13.281   6.925  0.0684 -0.0225 -0.1677
  771POPS   C4B10734  13.665  13.533   7.251 -0.2458 -0.2397 -0.3740
  772POPS   CNO10735  18.509   7.481   5.498  0.5145 -0.2780 -0.2300
  772POPS   PO410736  18.120   7.202   5.691  0.1732  0.1612  0.1299
  772POPS   GL110737  17.888   7.340   6.106  0.2165 -0.1219  0.2135
  772POPS   GL210738  17.993   7.551   6.338  0.1831 -0.1321 -0.0797
  772POPS   C1A10739  17.634   7.092   6.308  0.0261 -0.0956 -0.1471
  772POPS   D2A10740  17.346   7.259   6.669  0.0018 -0.0387 -0.2617
  772POPS   C3A10741  17.212   6.996   6.930  0.0184  0.0358  0.0115
  772POPS   C4A10742  17.227   6.617   7.164  0.1355  0.0917  0.1516
  772POPS   C1B10743  17.850   7.402   6.724 -0.0573 -0.1036  0.2173
  772POPS   C2B10744  17.752   7.133   6.963  0.1665 -0.1732 -0.1935
  772POPS   C3B10745  17.482   6.967   7.333 -0.2414  0.1283  0.0605
  772POPS   C4B10746  17.156   7.071   7.530 -0.1155 -0.1932 -0.2520
  773POPS   CNO10747  10.548  14.907   5.964 -0.1900  0.1988 -0.0645
  773POPS   PO410748  10.848  15.209   5.867 -0.0228 -0.0994 -0.2695
  773POPS   GL110749  11.007  15.228   6.300  0.2660  0.2441  0.0140
  773POPS   GL210750  11.336  15.166   6.411 -0.4164 -0.0281  0.0860
  773POPS   C1A10751  10.893  15.155   6.727  0.0209 -0.3541 -0.3383
  773POPS   D2A10752  10.663  15.253   7.067 -0.0791  0.1432 -0.1293
  773POPS   C3A10753  10.666  15.612   7.271 -0.0914  0.0662 -0.2339
  773POPS   C4A10754  10.968  15.962   7.352 -0.5363 -0.0139  0.0301
  773POPS   C1B10755  11.388  15.363   6.755 -0.2936 -0.2497  0.0514
  773POPS   C2B10756  11.232  15.244   7.053 -0.2618  0.1230 -0.0447
  773POPS   C3B10757  11.022  15.394   7.395 -0.0968 -0.0177 -0.1454
  773POPS   C4B10758  11.097  15.655   7.739  0.2196  0.0460  0.2801
  774POPS   CNO10759   0.906  10.742   5.681  0.1116 -0.2908  0.0294
  774POPS   PO410760   1.247  10.795   5.818 -0.1311  0.3253  0.0666
  774POPS   GL110761   1.103  10.756   6.172  0.1456  0.0522 -0.0738
  774POPS   GL210762   1.037  11.107   6.441  0.0129  0.1066 -0.0541
  774POPS   C1A10763   0.954  10.626   6.569  0.0104 -0.2588 -0.2814
  774POPS   D2A10764   0.850  10.702   6.991  0.2718 -0.1662 -0.1912
  774POPS   C3A10765   0.993  10.514   7.370  0.3480  0.2317 -0.3934
  774POPS   C4A10766   0.838  10.714   7.710 -0.1808  0.2005 -0.0549
  774POPS   C1B10767   1.412  11.304   6.398 -0.1831 -0.1136 -0.0207
  774POPS   C2B10768   1.850  11.218   6.493  0.1145  0.0871  0.1794
  774POPS   C3B10769   2.026  10.854   6.599 -0.2351 -0.1947 -0.0316
  774POPS   C4B10770   2.248  10.577   6.843 -0.1353  0.1531 -0.0471
  775POPS   CNO10771   9.023  16.581   5.354  0.3699 -0.1399 -0.2768
  775POPS   PO410772   8.720  16.888   5.552 -0.3022 -0.3421  0.1700
  775POPS   GL110773   8.503  17.182   5.920  0.0940  0.0522  0.0653
  775POPS   GL210774   8.428  17.374   5.787 -0.2087 -0.5035  0.0227
  775POPS   C1A10775   8.449  17.235   6.381  0.0697  0.1732 -0.0734
  775POPS   D2A10776   8.467  17.251   6.828  0.0841  0.1766  0.0810
  775POPS   C3A10777   8.856  17.223   7.102 -0.0481  0.0069 -0.0037
  775POPS   C4A10778   8.971  16.970   7.406  0.0115  0.0732 -0.1809
  775POPS   C1B10779   8.273  17.746   6.176 -0.4228 -0.1186 -0.1739
  775POPS   C2B10780   8.363  17.707   6.631  0.0090  0.1007 -0.0708
  775POPS   C3B10781   8.331  17.632   7.093 -0.1495  0.0774 -0.1103
  775POPS   C4B10782   7.969  17.476   7.317 -0.0748 -0.0753 -0.0203
  776POPS   CNO10783   7.584  10.846   5.906 -0.0437  0.1741 -0.0440
  776POPS   PO410784   7.979  10.630   6.188  0.4025 -0.2530 -0.0116
  776POPS   GL110785   7.986  10.355   6.475 -0.0512  0.0018  0.3812
  776POPS   GL210786   7.760  10.293   6.638 -0.2881 -0.4233 -0.1011
  776POPS   C1A10787   8.286  10.208   6.724  0.0555 -0.0887 -0.0096
  776POPS   D2A10788   8.381  10.197   7.178  0.3992  0.0892 -0.2913
  776POPS   C3A10789   8.762  10.053   7.189  0.2214  0.0497  0.2909
  776POPS   C4A10790   8.929  10.002   7.689  0.0824 -0.1603 -0.1014
  776POPS   C1B10791   7.559  10.208   7.119  0.1319 -0.1881  0.3240
  776POPS   C2B10792   7.362  10.121   7.448  0.1809 -0.0608  0.2008
  776POPS   C3B10793   7.017  10.306   7.740  0.2375 -0.0608 -0.0637
  776POPS   C4B10794   6.774  10.317   8.139  0.3504  0.2218  0.3438
  777POPS   CNO10795  17.194  14.277   5.301  0.0105 -0.0443 -0.1136
  777POPS   PO410796  16.922  14.365   5.607  0.1562 -0.0875  0.0431
  777POPS   GL110797  17.022  14.238   5.963 -0.2969 -0.0802  0.1887
  777POPS   GL210798  16.750  14.381   6.191  0.0690 -0.1216 -0.2583
  777POPS   C1A10799  17.031  14.051   6.361  0.0878 -0.0032 -0.1390
  777POPS   D2A10800  16.958  13.819   6.805 -0.0686 -0.2328  0.3437
  777POPS   C3A10801  17.278  13.777   7.033  0.0293 -0.1066  0.0501
  777POPS   C4A10802  17.302  13.952   7.487  0.0263 -0.1923  0.2076
  777POPS   C1B10803  17.130  14.570   6.408 -0.0433 -0.0267  0.0214
  777POPS   C2B10804  17.405  14.683   6.788 -0.0455 -0.0763 -0.0713
  777POPS   C3B10805  17.546  14.769   7.132  0.3273 -0.0229 -0.0169
  777POPS   C4B10806  17.520  14.735   7.577  0.2281  0.0129 -0.1622
  778POPS   CNO10807   2.517  10.200   5.513  0.0765 -0.3345 -0.0511
  778POPS   PO410808   2.227  10.179   5.850 -0.3520  0.2009 -0.3127
  778POPS   GL110809   2.366  10.462   6.080 -0.0860 -0.2052  0.1692
  778POPS   GL210810   2.067  10.472   6.332 -0.1015  0.1724 -0.0446
  778POPS   C1A10811   2.538  10.610   6.427 -0.0531  0.0546  0.2053
  778POPS   D2A10812   2.667  11.033   6.613 -0.2353 -0.2977  0.1146
  778POPS   C3A10813   3.052  11.052   6.881 -0.1042 -0.1690 -0.2435
  778POPS   C4A10814   3.073  11.174   7.358  0.0086  0.1944 -0.0077
  778POPS   C1B10815   1.809  10.360   6.606  0.2315 -0.0583  0.0437
  778POPS   C2B10816   1.831  10.400   7.041  0.0455 -0.0039 -0.2157
  778POPS   C3B10817   1.916  10.386   7.415 -0.0473  0.0399  0.2701
  778POPS   C4B10818   1.987  10.321   7.789 -0.1048 -0.2186 -0.2370
  779POPS   CNO10819  17.685   3.976   5.378 -0.1569  0.0113 -0.0713
  779POPS   PO410820  18.103   4.046   5.490  0.2975  0.0330 -0.2983
  779POPS   GL110821  17.956   4.199   5.833  0.3245  0.0637 -0.0364
  779POPS   GL210822  17.659   4.256   5.778 -0.0935 -0.2370 -0.1513
  779POPS   C1A10823  17.792   4.200   6.231 -0.3704  0.5723  0.1367
  779POPS   D2A10824  17.429   4.001   6.418 -0.0504 -0.2187  0.0059
  779POPS   C3A10825  17.313   3.939   6.818  0.0829  0.0025  0.0663
  779POPS   C4A10826  17.276   3.981   7.218 -0.2432 -0.1815 -0.0826
  779POPS   C1B10827  17.694   4.603   6.013  0.0290  0.0454 -0.0734
  779POPS   C2B10828  17.753   4.674   6.454 -0.1616 -0.0349 -0.1597
  779POPS   C3B10829  17.652   4.316   6.768 -0.0398  0.0817 -0.0315
  779POPS   C4B10830  17.795   4.009   7.062 -0.0368 -0.0754 -0.3866
  780POPS   CNO10831   2.145   6.081   5.790 -0.1400 -0.1162  0.1492
  780POPS   PO410832   1.754   6.064   5.816  0.0043 -0.4197  0.1621
  780POPS   GL110833   1.609   5.950   6.173  0.1010  0.0267  0.1896
  780POPS   GL210834   1.843   6.189   6.262  0.2555  0.1486 -0.1410
  780POPS   C1A10835   1.565   5.663   6.411  0.1925 -0.2436 -0.4418
  780POPS   D2A10836   1.228   5.616   6.625 -0.1556  0.2056 -0.4015
  780POPS   C3A10837   1.178   5.344   7.044 -0.3499 -0.2006  0.0444
  780POPS   C4A10838   1.225   4.939   7.361  0.1555 -0.1587  0.2953
  780POPS   C1B10839   1.868   6.514   6.515 -0.3662  0.0284 -0.1044
  780POPS   C2B10840   1.792   6.543   6.974 -0.2813  0.2140  0.0946
  780POPS   C3B10841   2.095   6.591   7.365 -0.1184 -0.1254 -0.0356
  780POPS   C4B10842   2.047   6.527   7.858 -0.0816 -0.1209 -0.0516
  781POPS   CNO10843   7.824   0.709   5.496 -0.2054  0.0039 -0.0663
  781POPS   PO410844   7.351   0.774   5.419 -0.0633 -0.1442  0.0033
  781POPS   GL110845   7.451   0.766   5.838 -0.0388 -0.0173  0.0277
  781POPS   GL210846   7.183   0.820   6.059 -0.1835  0.0102 -0.0475
  781POPS   C1A10847   7.665   0.682   6.272 -0.1192 -0.1113  0.0621
  781POPS   D2A10848   7.960   0.715   6.530  0.0575 -0.1310 -0.3241
  781POPS   C3A10849   7.931   0.343   6.903 -0.0837  0.1404  0.0527
  781POPS   C4A10850   7.588  -0.020   7.077  0.0974  0.1175 -0.0542
  781POPS   C1B10851   7.089   0.812   6.499  0.0046  0.2114 -0.0824
  781POPS   C2B10852   7.228   0.881   6.834 -0.1588 -0.2788 -0.3146
  781POPS   C3B10853   7.048   0.992   7.300  0.0208  0.0276 -0.2114
  781POPS   C4B10854   6.652   0.810   7.560 -0.0442  0.0546 -0.0730
  782POPS   CNO10855   3.998  16.587   5.468 -0.1221 -0.2267  0.1361
  782POPS   PO410856   3.569  16.601   5.532 -0.0696 -0.0645  0.0761
  782POPS   GL110857   3.330  16.871   5.855 -0.0999  0.4562  0.0143
  782POPS   GL210858   3.467  16.656   6.029 -0.0099 -0.2333 -0.3479
  782POPS   C1A10859   3.144  17.064   6.109  0.1537 -0.2258 -0.1137
  782POPS   D2A10860   3.181  17.002   6.517  0.4497  0.1964 -0.2861
  782POPS   C3A10861   3.200  17.151   6.951 -0.0630 -0.0319  0.0633
  782POPS   C4A10862   3.507  17.346   7.090  0.1035  0.0833  0.1151
  782POPS   C1B10863   3.287  16.519   6.401  0.0444  0.1601 -0.0407
  782POPS   C2B10864   3.068  16.567   6.767  0.0352  0.0906 -0.0642
  782POPS   C3B10865   2.828  16.703   7.093 -0.1016  0.3090 -0.0065
  782POPS   C4B10866   2.855  17.020   7.356 -0.1191 -0.1699  0.0395
  783POPS   CNO10867   1.766  17.428   5.825 -0.2321 -0.0473  0.0240
  783POPS   PO410868   1.532  17.547   5.537  0.0584  0.2933  0.4245
  783POPS   GL110869   1.698  17.944   5.752 -0.0518 -0.0715 -0.1851
  783POPS   GL210870   1.402  17.924   5.923  0.1469 -0.1582 -0.1939
  783POPS   C1A10871   1.671  18.259   6.129  0.0670  0.2543 -0.0167
  783POPS   D2A10872   1.750  18.373   6.580  0.2507 -0.0629  0.0968
  783POPS   C3A10873   1.663  18.170   6.911  0.2206  0.3926 -0.1900
  783POPS   C4A10874   1.649  18.061   7.294 -0.0846  0.1267 -0.0381
  783POPS   C1B10875   1.587  17.657   6.244 -0.3136 -0.0054 -0.0071
  783POPS   C2B10876   1.892  17.790   6.590 -0.1479 -0.2828  0.0530
  783POPS   C3B10877   2.115  18.081   6.779  0.0487 -0.0487  0.3291
  783POPS   C4B10878   2.504  18.269   6.910  0.1455  0.0585 -0.2830
  784POPS   CNO10879  14.424  14.521   5.418  0.1637  0.0670 -0.1660
  784POPS   PO410880  14.254  14.724   5.859 -0.1186 -0.0313 -0.0848
  784POPS   GL110881  14.047  14.854   6.188  0.5459  0.2371  0.1600
  784POPS   GL210882  13.767  14.830   6.290  0.2013 -0.1277 -0.1726
  784POPS   C1A10883  14.194  14.903   6.569 -0.3795 -0.1790 -0.0125
  784POPS   D2A10884  14.027  14.793   7.004 -0.1561  0.3225  0.4407
  784POPS   C3A10885  14.108  14.905   7.383  0.1717 -0.0200  0.1770
  784POPS   C4A10886  14.391  15.102   7.601  0.0534 -0.2117 -0.1977
  784POPS   C1B10887  13.634  14.858   6.690 -0.3537  0.1891  0.2030
  784POPS   C2B10888  13.488  15.134   6.977  0.0691  0.1031  0.2873
  784POPS   C3B10889  13.245  15.486   7.170 -0.2126  0.1375 -0.1656
  784POPS   C4B10890  13.096  15.684   7.611 -0.0902 -0.1248 -0.0601
  785POPS   CNO10891   7.808   6.553   5.848 -0.0068 -0.0561 -0.1237
  785POPS   PO410892   7.310   6.523   5.807  0.2315 -0.2607  0.1389
  785POPS   GL110893   7.420   6.524   6.178  0.0818  0.1699 -0.2194
  785POPS   GL210894   7.208   6.703   6.332 -0.0303  0.0510 -0.1302
  785POPS   C1A10895   7.571   6.326   6.441  0.2620 -0.2749  0.1869
  785POPS   D2A10896   7.745   6.196   6.785  0.0265 -0.0675 -0.0546
  785POPS   C3A10897   8.007   5.808   6.844  0.0342  0.1090  0.3479
  785POPS   C4A10898   8.298   5.617   7.039 -0.0158 -0.3804  0.0227
  785POPS   C1B10899   7.017   6.789   6.710  0.2567  0.0227 -0.2610
  785POPS   C2B10900   6.946   6.713   7.066  0.3113  0.1880  0.0150
  785POPS   C3B10901   7.090   6.858   7.490  0.1978 -0.1783 -0.1569
  785POPS   C4B10902   7.370   6.820   7.954  0.1780  0.0985  0.4511
  786POPS   CNO10903   4.959   2.977   5.612 -0.1665 -0.0037 -0.4295
  786POPS   PO410904   4.883   3.475   5.499  0.1115  0.0536  0.0852
  786POPS   GL110905   5.004   3.471   5.889  0.1345  0.1015 -0.1807
  786POPS   GL210906   4.703   3.230   5.979  0.4266  0.1621 -0.0246
  786POPS   C1A10907   5.091   3.709   6.288  0.3221 -0.0706 -0.0145
  786POPS   D2A10908   5.228   3.759   6.738  0.0037  0.0282  0.1477
  786POPS   C3A10909   5.604   3.471   6.921  0.0950 -0.0343  0.4286
  786POPS   C4A10910   5.747   3.683   7.217 -0.2169  0.2423 -0.3006
  786POPS   C1B10911   4.225   3.203   6.202  0.1175  0.0219  0.1166
  786POPS   C2B10912   4.060   3.399   6.445 -0.0401  0.0081 -0.0659
  786POPS   C3B10913   4.050   3.563   6.819 -0.2880 -0.2799 -0.0170
  786POPS   C4B10914   4.353   3.648   7.143  0.2696  0.2352 -0.3649
  787POPS   CNO10915  10.567   5.433   5.409 -0.1538 -0.1441  0.0240
  787POPS   PO410916  10.564   5.223   5.710 -0.1779 -0.2571 -0.0557
  787POPS   GL110917  10.762   4.897   6.002  0.0714 -0.1823  0.3428
  787POPS   GL210918  11.028   5.106   6.021 -0.1900 -0.2709  0.3251
  787POPS   C1A10919  10.775   4.718   6.407 -0.2219  0.2634  0.3167
  787POPS   D2A10920  11.101   4.700   6.735 -0.0262 -0.0697  0.0864
  787POPS   C3A10921  11.226   4.704   7.232 -0.0996 -0.2205  0.4311
  787POPS   C4A10922  11.337   4.880   7.588  0.1752 -0.0125 -0.3406
  787POPS   C1B10923  11.163   5.215   6.463 -0.1565 -0.1412 -0.1026
  787POPS   C2B10924  11.422   5.010   6.842 -0.0512 -0.1974 -0.3692
  787POPS   C3B10925  11.619   5.081   7.252  0.1058  0.2327  0.2873
  787POPS   C4B10926  11.816   5.279   7.569 -0.1299 -0.0203  0.3374
  788POPS   CNO10927   0.528  13.138   5.878  0.3180  0.0132  0.3258
  788POPS   PO410928   0.204  13.269   5.623 -0.0343 -0.1157 -0.1326
  788POPS   GL110929   0.135  13.476   6.019  0.0354 -0.1985  0.1671
  788POPS   GL210930   0.034  13.774   5.891 -0.1034  0.1594  0.0546
  788POPS   C1A10931   0.275  13.725   6.431  0.0852  0.3062  0.2390
  788POPS   D2A10932   0.295  13.646   6.907  0.0511  0.2023 -0.0265
  788POPS   C3A10933  -0.128  13.601   7.080 -0.2938  0.1254 -0.0254
  788POPS   C4A10934  -0.314  13.293   7.352  0.0702 -0.0625  0.2765
  788POPS   C1B10935  -0.187  13.790   6.258  0.2317  0.1344  0.2667
  788POPS   C2B10936  -0.265  13.904   6.648  0.3430  0.2398  0.1293
  788POPS   C3B10937  -0.442  13.993   6.949  0.2880 -0.3327 -0.0775
  788POPS   C4B10938  -0.748  14.382   6.991  0.0047  0.1708 -0.1830
  789POPS   CNO10939   7.293  11.873   5.858  0.0642  0.1253  0.1100
  789POPS   PO410940   7.483  11.582   6.245 -0.2100  0.1262  0.1527
  789POPS   GL110941   7.812  11.553   6.569 -0.0710 -0.1047  0.0407
  789POPS   GL210942   8.145  11.500   6.600 -0.2877 -0.0141  0.1573
  789POPS   C1A10943   7.667  11.496   6.928 -0.0257 -0.0687 -0.1755
  789POPS   D2A10944   7.648  11.395   7.402 -0.0291  0.1837 -0.0160
  789POPS   C3A10945   7.271  11.549   7.631  0.2577  0.1735 -0.0193
  789POPS   C4A10946   7.295  11.812   7.963  0.2839  0.3497 -0.0547
  789POPS   C1B10947   8.419  11.408   6.911  0.0849 -0.0355 -0.1241
  789POPS   C2B10948   8.323  11.457   7.392 -0.4217 -0.2153  0.4184
  789POPS   C3B10949   8.466  11.569   7.810  0.1325  0.4409  0.1387
  789POPS   C4B10950   8.605  11.338   8.177  0.3996 -0.1994 -0.1711
  790POPS   CNO10951  17.329   0.860   5.502 -0.1713 -0.4943 -0.0996
  790POPS   PO410952  17.313   0.564   5.836  0.1264 -0.2663  0.0043
  790POPS   GL110953  17.271   0.568   6.228  0.0450  0.0239 -0.0514
  790POPS   GL210954  16.936   0.679   6.255 -0.0874 -0.2003 -0.1091
  790POPS   C1A10955  17.265   0.449   6.617 -0.2252 -0.0518 -0.2331
  790POPS   D2A10956  17.200   0.496   7.124  0.0993  0.0834 -0.3074
  790POPS   C3A10957  17.108   0.074   7.392  0.1521 -0.2707  0.1400
  790POPS   C4A10958  17.000  -0.292   7.540 -0.1164 -0.0110 -0.0135
  790POPS   C1B10959  16.825   0.660   6.659  0.0377 -0.0156  0.1080
  790POPS   C2B10960  16.814   0.845   7.046  0.2265  0.3209  0.2055
  790POPS   C3B10961  16.403   0.879   7.240 -0.0800 -0.0945 -0.1135
  790POPS   C4B10962  16.407   0.732   7.643  0.0711 -0.2715  0.1114
  791POPS   CNO10963   9.801   7.047   5.383 -0.0779 -0.0777 -0.2281
  791POPS   PO410964   9.672   6.758   5.775 -0.1163  0.0222  0.3558
  791POPS   GL110965   9.808   6.734   6.139 -0.0574 -0.3056 -0.1262
  791POPS   GL210966  10.014   6.425   6.160  0.2607  0.1090  0.1431
  791POPS   C1A10967   9.712   6.809   6.598  0.2947 -0.0348  0.1060
  791POPS   D2A10968   9.781   7.063   7.006  0.1115  0.0086 -0.1685
  791POPS   C3A10969   9.939   6.817   7.367 -0.0619  0.0197  0.0142
  791POPS   C4A10970  10.174   6.496   7.453  0.1509 -0.2305 -0.1726
  791POPS   C1B10971   9.999   6.385   6.557 -0.3182  0.1005 -0.1093
  791POPS   C2B10972   9.983   6.434   7.011 -0.1347 -0.0613  0.0404
  791POPS   C3B10973   9.790   6.242   7.321  0.2087  0.2946 -0.1504
  791POPS   C4B10974   9.386   5.989   7.198 -0.2935  0.3458 -0.1540
  792POPS   CNO10975   0.367  10.003   6.065 -0.3067  0.0297  0.0275
  792POPS   PO410976   0.360   9.585   5.746 -0.0928 -0.2851  0.0850
  792POPS   GL110977   0.109   9.396   6.150 -0.1770  0.1102  0.2296
  792POPS   GL210978  -0.002   9.684   6.121 -0.0817  0.1046 -0.1012
  792POPS   C1A10979  -0.084   9.418   6.583  0.1393 -0.1545 -0.1531
  792POPS   D2A10980  -0.261   9.450   6.967 -0.0253  0.0608  0.0612
  792POPS   C3A10981  -0.113   9.407   7.353 -0.0111 -0.0635  0.2223
  792POPS   C4A10982   0.198   9.090   7.496  0.0255 -0.1004 -0.1575
  792POPS   C1B10983   0.206   9.784   6.523 -0.0998  0.0322 -0.1294
  792POPS   C2B10984   0.404  10.007   6.836 -0.0385  0.2084  0.2075
  792POPS   C3B10985   0.102  10.290   7.104  0.2579 -0.2518  0.2806
  792POPS   C4B10986  -0.202  10.228   7.442 -0.4159 -0.1703  0.0562
  793POPS   CNO10987   9.760  16.183   5.022  0.0932 -0.0880  0.0676
  793POPS   PO410988   9.787  16.477   5.342 -0.0745  0.1802 -0.0542
  793POPS   GL110989   9.459  16.742   5.569  0.2444  0.1479  0.1420
  793POPS   GL210990   9.200  16.978   5.519 -0.0886  0.2342  0.1011
  793POPS   C1A10991   9.249  16.868   6.002 -0.1119  0.0305 -0.0895
  793POPS   D2A10992   8.866  16.990   6.153  0.1126  0.0128 -0.1838
  793POPS   C3A10993   9.025  17.017   6.512  0.1603 -0.1226 -0.1844
  793POPS   C4A10994   9.084  16.855   6.919  0.1096 -0.1818 -0.3050
  793POPS   C1B10995   9.597  17.201   5.609  0.0091 -0.4266  0.2000
  793POPS   C2B10996   9.801  17.148   5.978  0.0600 -0.0429  0.0774
  793POPS   C3B10997   9.646  16.993   6.292  0.1637 -0.0619 -0.2971
  793POPS   C4B10998   9.554  16.897   6.741  0.3203  0.0053 -0.0610
  794POPS   CNO10999   1.838   2.293   5.354  0.0233 -0.0858  0.0190
  794POPS   PO411000   1.473   1.940   5.341 -0.0962  0.0195  0.2265
  794POPS   GL111001   1.543   2.066   5.713 -0.1215 -0.1673 -0.0042
  794POPS   GL211002   1.522   2.433   5.724  0.0288 -0.0235 -0.1220
  794POPS   C1A11003   1.433   1.960   6.229 -0.1822 -0.0628  0.3119
  794POPS   D2A11004   1.395   1.950   6.701 -0.1465  0.1796  0.2115
  794POPS   C3A11005   0.966   2.059   6.822  0.2831  0.0411 -0.0938
  794POPS   C4A11006   0.743   2.414   6.712 -0.0900  0.0612  0.0931
  794POPS   C1B11007   1.472   2.645   6.128 -0.0766 -0.1788 -0.1972
  794POPS   C2B11008   1.210   2.855   6.270  0.1598  0.2716 -0.1463
  794POPS   C3B11009   1.029   2.887   6.707  0.0224  0.3110  0.1510
  794POPS   C4B11010   0.786   3.203   6.934 -0.1384  0.0352  0.1730
  795POPS   CNO11011   6.120   9.652   5.476 -0.1376  0.2439  0.1250
  795POPS   PO411012   6.112   9.390   5.737  0.4109  0.1545  0.0795
  795POPS   GL111013   6.294   9.358   6.164 -0.1986  0.0985  0.1801
  795POPS   GL211014   6.573   9.374   6.170 -0.2844  0.0406 -0.1767
  795POPS   C1A11015   6.310   8.973   6.367  0.1550  0.1078 -0.1107
  795POPS   D2A11016   6.084   8.818   6.655 -0.0305 -0.1034 -0.1652
  795POPS   C3A11017   6.239   8.488   6.938 -0.0818  0.0855  0.1405
  795POPS   C4A11018   6.290   8.186   7.285  0.0657 -0.0222 -0.0986
  795POPS   C1B11019   6.597   9.253   6.651 -0.0838  0.4141  0.0974
  795POPS   C2B11020   6.362   9.192   7.011  0.0487 -0.0748  0.1203
  795POPS   C3B11021   6.166   8.967   7.147  0.1572 -0.0614  0.1315
  795POPS   C4B11022   5.777   8.982   7.395  0.1908  0.0971 -0.0401
  796POPS   CNO11023  10.450   9.937   5.448  0.0064  0.0921 -0.5202
  796POPS   PO411024  10.764   9.749   5.668 -0.0139 -0.0165 -0.3945
  796POPS   GL111025  11.097  10.003   5.937  0.1646  0.0166 -0.2857
  796POPS   GL211026  11.027  10.361   6.057  0.2021  0.1172 -0.0425
  796POPS   C1A11027  11.141  10.043   6.438 -0.1769  0.1874 -0.0853
  796POPS   D2A11028  11.504   9.787   6.678 -0.0060  0.3687  0.1293
  796POPS   C3A11029  11.566   9.841   7.202 -0.1219  0.2484  0.2120
  796POPS   C4A11030  11.574   9.656   7.576  0.1578 -0.2668 -0.1860
  796POPS   C1B11031  10.825  10.505   6.382  0.0819  0.0433  0.0984
  796POPS   C2B11032  10.850  10.302   6.773  0.2533 -0.2769  0.1847
  796POPS   C3B11033  11.146  10.009   7.021 -0.0340 -0.1176  0.2703
  796POPS   C4B11034  11.197  10.018   7.421 -0.0443  0.1923 -0.0837
  797POPS   CNO11035   9.171   4.102   5.610 -0.0056 -0.1842  0.1535
  797POPS   PO411036   9.361   3.823   5.783 -0.0185 -0.3471  0.0197
  797POPS   GL111037   9.527   4.095   6.144  0.2880  0.3062  0.2736
  797POPS   GL211038   9.283   3.870   6.364  0.2402 -0.2554 -0.1841
  797POPS   C1A11039   9.277   4.446   6.409  0.0790  0.2724  0.0698
  797POPS   D2A11040   8.973   4.657   6.472 -0.2225 -0.0659 -0.1376
  797POPS   C3A11041   8.663   4.647   6.770 -0.2076 -0.0913  0.1165
  797POPS   C4A11042   8.668   4.401   7.130  0.1488  0.0711 -0.0625
  797POPS   C1B11043   9.509   4.017   6.655  0.1581 -0.0955  0.2745
  797POPS   C2B11044   9.575   4.205   7.013  0.1678 -0.1208  0.0017
  797POPS   C3B11045   9.497   4.209   7.343 -0.0850  0.2376  0.0898
  797POPS   C4B11046   9.542   4.364   7.741 -0.2525 -0.1866  0.0856
  798POPS   CNO11047   4.484   0.672   4.652 -0.0026 -0.1233  0.2409
  798POPS   PO411048   4.314   0.405   4.902  0.1387  0.1156 -0.1560
  798POPS   GL111049   3.949   0.284   5.238 -0.1773  0.2150  0.0135
  798POPS   GL211050   3.625   0.313   5.393  0.0307 -0.0212 -0.1678
  798POPS   C1A11051   3.940   0.227   5.732  0.3809  0.0414 -0.1463
  798POPS   D2A11052   3.505   0.110   6.059 -0.3161  0.0870  0.4054
  798POPS   C3A11053   3.356   0.211   6.386 -0.1677  0.1084 -0.1610
  798POPS   C4A11054   3.449   0.448   6.706 -0.1204  0.0506  0.1294
  798POPS   C1B11055   3.387   0.405   5.679 -0.2374 -0.2456  0.2597
  798POPS   C2B11056   3.062   0.241   5.997  0.2770 -0.1172  0.3339
  798POPS   C3B11057   2.685   0.363   6.278  0.0963 -0.0839  0.0373
  798POPS   C4B11058   2.461   0.542   6.651  0.2553  0.1747 -0.2414
  799POPS   CNO11059   7.096   6.084   5.417 -0.1484  0.2615 -0.5056
  799POPS   PO411060   7.254   5.991   5.752 -0.1855 -0.0712  0.3554
  799POPS   GL111061   7.312   5.824   6.135  0.0893 -0.0832 -0.2016
  799POPS   GL211062   7.053   5.658   6.225 -0.0334 -0.0993  0.0755
  799POPS   C1A11063   7.404   5.810   6.513  0.0426  0.0347  0.0837
  799POPS   D2A11064   7.415   5.791   6.941 -0.1376  0.3963 -0.2985
  799POPS   C3A11065   7.609   6.057   7.202  0.0501 -0.1985 -0.1507
  799POPS   C4A11066   7.850   6.410   7.184  0.1076 -0.1510 -0.2653
  799POPS   C1B11067   6.854   5.706   6.583  0.1267  0.2140 -0.1455
  799POPS   C2B11068   6.883   5.648   6.984  0.2705  0.5634  0.1303
  799POPS   C3B11069   7.065   5.712   7.258 -0.3323 -0.3328  0.2347
  799POPS   C4B11070   7.250   5.882   7.573  0.0047  0.2987  0.0549
  800POPS   CNO11071  11.740   2.921   5.371 -0.1331 -0.1454  0.1857
  800POPS   PO411072  12.032   3.077   5.585  0.0163  0.0024  0.0140
  800POPS   GL111073  12.086   3.387   5.915 -0.1260 -0.0802  0.1934
  800POPS   GL211074  12.231   3.605   5.856 -0.1181  0.1017  0.2612
  800POPS   C1A11075  11.902   3.320   6.243  0.2186  0.0780 -0.0692
  800POPS   D2A11076  11.659   3.464   6.626  0.2381 -0.0266 -0.1418
  800POPS   C3A11077  11.892   3.585   7.004 -0.0372  0.0117  0.0954
  800POPS   C4A11078  12.017   3.291   7.364 -0.0628  0.0268  0.1620
  800POPS   C1B11079  12.133   3.823   6.202 -0.3358 -0.0302 -0.0521
  800POPS   C2B11080  12.182   3.787   6.641  0.2115 -0.2156  0.3445
  800POPS   C3B11081  12.208   3.956   7.103  0.0685 -0.1558  0.0375
  800POPS   C4B11082  12.521   4.259   7.392  0.2126 -0.0244  0.2606
  801POPS   CNO11083  13.852   9.114   5.531  0.2858  0.3320  0.0864
  801POPS   PO411084  13.932   9.452   5.657 -0.1784  0.1155 -0.2274
  801POPS   GL111085  13.810   9.573   5.924  0.3108  0.0214  0.0450
  801POPS   GL211086  13.917   9.128   6.049  0.0006 -0.2568  0.0805
  801POPS   C1A11087  13.507   9.667   6.340 -0.0856  0.1400 -0.0111
  801POPS   D2A11088  13.593   9.643   6.846 -0.0400 -0.0792 -0.0725
  801POPS   C3A11089  13.931   9.660   7.190  0.0248  0.0166 -0.0652
  801POPS   C4A11090  14.232   9.684   7.638  0.2068  0.0703  0.1451
  801POPS   C1B11091  13.618   9.128   6.367  0.0396 -0.1981 -0.1503
  801POPS   C2B11092  13.455   9.131   6.738 -0.1660  0.3101  0.2904
  801POPS   C3B11093  13.600   9.202   7.169  0.0317 -0.0957  0.2304
  801POPS   C4B11094  13.324   9.395   7.576 -0.0380 -0.0425  0.3326
  802POPS   CNO11095  12.747   1.823   5.553 -0.2773  0.4166  0.2332
  802POPS   PO411096  12.519   2.239   5.770  0.3881  0.0699  0.4105
  802POPS   GL111097  12.358   2.298   6.189 -0.0600  0.1541 -0.2224
  802POPS   GL211098  12.115   2.376   6.185  0.1974  0.1963  0.1352
  802POPS   C1A11099  12.523   2.279   6.623  0.3306 -0.0535 -0.0515
  802POPS   D2A11100  12.922   2.449   6.946 -0.1763  0.0040 -0.1499
  802POPS   C3A11101  12.879   2.661   7.327 -0.0946 -0.1795  0.0447
  802POPS   C4A11102  13.257   2.824   7.559  0.1402 -0.1821  0.3376
  802POPS   C1B11103  12.054   2.125   6.604  0.0574 -0.1157  0.2976
  802POPS   C2B11104  12.169   2.012   6.972  0.0586 -0.0827  0.2106
  802POPS   C3B11105  12.101   1.836   7.372  0.1064 -0.0541 -0.0003
  802POPS   C4B11106  11.844   1.762   7.735 -0.0254  0.0672 -0.2295
  803POPS   CNO11107   7.968   4.550   5.814 -0.4246 -0.2870 -0.0577
  803POPS   PO411108   7.515   4.513   5.804  0.1379 -0.0564 -0.1609
  803POPS   GL111109   7.112   4.305   5.927 -0.1011  0.0257  0.0731
  803POPS   GL211110   7.283   4.005   5.819 -0.0758 -0.0583  0.1303
  803POPS   C1A11111   6.677   4.073   6.015 -0.1567  0.1811 -0.2092
  803POPS   D2A11112   6.284   4.229   6.110  0.1883 -0.0427  0.3309
  803POPS   C3A11113   6.152   4.035   6.525 -0.0712 -0.1379 -0.0443
  803POPS   C4A11114   6.220   3.810   6.843 -0.2378  0.0274  0.0711
  803POPS   C1B11115   7.191   3.727   6.253  0.2046  0.0343  0.0745
  803POPS   C2B11116   6.867   3.499   6.466 -0.2139 -0.2278 -0.0552
  803POPS   C3B11117   6.658   3.519   6.835 -0.4482  0.0151  0.0075
  803POPS   C4B11118   6.558   3.615   7.297 -0.5102  0.0440  0.0642
  804POPS   CNO11119   9.647  14.809   5.924 -0.2522 -0.2723  0.0569
  804POPS   PO411120  10.005  14.881   5.867  0.1228 -0.0649 -0.1172
  804POPS   GL111121   9.940  15.290   6.217  0.1834  0.3056  0.1673
  804POPS   GL211122   9.811  15.067   6.425  0.0866 -0.0664  0.1313
  804POPS   C1A11123   9.821  15.560   6.508 -0.0531  0.4479 -0.0374
  804POPS   D2A11124   9.758  15.876   6.856 -0.0148 -0.0498  0.2591
  804POPS   C3A11125   9.878  15.861   7.305  0.1336  0.1098  0.2535
  804POPS   C4A11126  10.214  15.724   7.632  0.2299 -0.2644 -0.0751
  804POPS   C1B11127   9.832  15.106   6.823 -0.1952  0.1525 -0.2540
  804POPS   C2B11128   9.583  15.062   7.175  0.2369 -0.0278 -0.1034
  804POPS   C3B11129   9.355  14.809   7.310 -0.0998  0.2308 -0.2716
  804POPS   C4B11130   9.143  14.647   7.789  0.1918  0.1672  0.3715
  805POPS   CNO11131   3.237  12.850   5.516 -0.0893 -0.0581 -0.0401
  805POPS   PO411132   3.443  12.731   5.933 -0.0288  0.3295  0.1830
  805POPS   GL111133   3.330  12.439   6.209 -0.4774 -0.0589  0.0309
  805POPS   GL211134   3.030  12.565   6.281  0.2733 -0.4414 -0.0261
  805POPS   C1A11135   3.313  12.412   6.672 -0.1481  0.0765 -0.0720
  805POPS   D2A11136   3.345  12.603   7.089 -0.0654 -0.1232 -0.3621
  805POPS   C3A11137   3.591  12.412   7.407 -0.0382  0.1447  0.1599
  805POPS   C4A11138   3.776  12.035   7.550  0.1183 -0.1634  0.1881
  805POPS   C1B11139   2.883  12.851   6.581  0.2629  0.1218  0.2006
  805POPS   C2B11140   2.812  12.948   7.039 -0.1990  0.3221 -0.0679
  805POPS   C3B11141   2.624  12.808   7.472 -0.0038 -0.0220  0.0112
  805POPS   C4B11142   2.506  12.807   7.911 -0.0144  0.4385  0.1647
  806POPS   CNO11143   2.846   5.266   5.140  0.5175  0.4276  0.1224
  806POPS   PO411144   3.030   5.117   5.504  0.4655 -0.1153  0.0618
  806POPS   GL111145   3.240   5.256   5.888 -0.1381 -0.0209  0.1062
  806POPS   GL211146   3.547   5.521   5.873  0.3252  0.1175 -0.1071
  806POPS   C1A11147   3.199   5.285   6.366 -0.0085 -0.1107  0.0423
  806POPS   D2A11148   3.336   5.324   6.781 -0.0999  0.0434 -0.3702
  806POPS   C3A11149   3.564   5.278   6.997  0.1688 -0.0762  0.1295
  806POPS   C4A11150   3.681   5.403   7.419  0.0427  0.1409  0.2181
  806POPS   C1B11151   3.694   5.329   6.315  0.0540  0.1307 -0.2634
  806POPS   C2B11152   3.733   5.030   6.564  0.0471  0.0184  0.1940
  806POPS   C3B11153   3.945   4.951   6.885  0.2217 -0.0238  0.0962
  806POPS   C4B11154   4.044   5.056   7.297  0.0678  0.0298  0.1977
  807POPS   CNO11155  13.864   4.814   5.255  0.0535 -0.0804 -0.1132
  807POPS   PO411156  14.074   4.944   5.681 -0.0522  0.2605 -0.0654
  807POPS   GL111157  13.897   4.508   5.930 -0.0063  0.0981 -0.1378
  807POPS   GL211158  13.543   4.614   6.111  0.0406 -0.1806  0.2539
  807POPS   C1A11159  13.963   4.634   6.326  0.0294 -0.3364  0.2647
  807POPS   D2A11160  14.012   4.611   6.769 -0.0860 -0.0592  0.2413
  807POPS   C3A11161  13.700   4.430   6.926 -0.1691 -0.0575 -0.0837
  807POPS   C4A11162  13.576   4.426   7.403 -0.0624  0.2100  0.0091
  807POPS   C1B11163  13.538   4.264   6.515 -0.0088  0.1404  0.1158
  807POPS   C2B11164  13.559   3.819   6.680  0.2090  0.1150  0.0081
  807POPS   C3B11165  13.709   3.481   6.892 -0.1396 -0.1985  0.0426
  807POPS   C4B11166  14.030   3.168   6.791  0.3580 -0.0157 -0.2408
  808POPS   CNO11167   5.562   3.251   5.041  0.1710  0.1048 -0.4270
  808POPS   PO411168   5.813   3.533   5.249 -0.0051  0.0664 -0.0293
  808POPS   GL111169   6.066   3.627   5.606 -0.2011  0.4718  0.4421
  808POPS   GL211170   5.956   3.436   5.861 -0.2273  0.2212  0.1462
  808POPS   C1A11171   6.370   3.738   5.848  0.0403  0.1272 -0.1271
  808POPS   D2A11172   6.441   3.659   6.240 -0.3225 -0.0229 -0.0640
  808POPS   C3A11173   6.665   3.900   6.528 -0.2680 -0.0006 -0.0102
  808POPS   C4A11174   6.655   4.039   6.991  0.3938  0.0778 -0.1364
  808POPS   C1B11175   6.155   3.070   6.018 -0.0432 -0.1230 -0.0719
  808POPS   C2B11176   6.154   3.047   6.401  0.0405 -0.2228 -0.3261
  808POPS   C3B11177   5.997   2.873   6.752  0.2868 -0.0020 -0.2807
  808POPS   C4B11178   5.883   3.003   7.156 -0.1419  0.0431  0.2996
  809POPS   CNO11179   8.668  18.094   4.957 -0.2161  0.0136  0.4467
  809POPS   PO411180   8.948  18.019   5.373  0.2666 -0.1574  0.3353
  809POPS   GL111181   9.111  17.945   5.724 -0.1017  0.2340 -0.2051
  809POPS   GL211182   9.271  17.587   5.680  0.0845  0.0434  0.1438
  809POPS   C1A11183   9.235  17.905   6.197 -0.3700 -0.2906 -0.0420
  809POPS   D2A11184   9.453  17.836   6.655 -0.1780  0.0147 -0.0007
  809POPS   C3A11185   9.631  17.934   7.074 -0.0146  0.1887 -0.3803
  809POPS   C4A11186   9.694  17.543   7.333 -0.2677 -0.0523 -0.1369
  809POPS   C1B11187   9.369  17.354   6.082  0.1487 -0.0493 -0.0042
  809POPS   C2B11188   9.317  17.394   6.434  0.2759  0.0916 -0.2925
  809POPS   C3B11189   9.356  17.303   6.945 -0.1099 -0.0659 -0.1467
  809POPS   C4B11190   9.480  17.139   7.405  0.0061 -0.0841  0.0565
  810POPS   CNO11191  14.072   7.790   5.563 -0.2436  0.0303 -0.0287
  810POPS   PO411192  13.799   7.528   5.855  0.2001 -0.1210 -0.2028
  810POPS   GL111193  13.905   7.690   6.278 -0.0851  0.0114  0.0947
  810POPS   GL211194  14.025   8.017   6.326  0.0864 -0.3081  0.1307
  810POPS   C1A11195  14.208   7.623   6.574  0.0749  0.0559 -0.0034
  810POPS   D2A11196  14.303   7.617   6.982 -0.0740 -0.0052  0.1526
  810POPS   C3A11197  14.155   7.324   7.374 -0.0977  0.3786  0.0019
  810POPS   C4A11198  14.254   6.847   7.328  0.1853  0.4897  0.1219
  810POPS   C1B11199  13.714   7.983   6.626  0.2875  0.0226 -0.2215
  810POPS   C2B11200  13.747   7.578   6.961 -0.3579 -0.1582 -0.0431
  810POPS   C3B11201  13.321   7.318   7.164  0.1780  0.1213  0.0726
  810POPS   C4B11202  13.230   7.323   7.580 -0.1127  0.0504  0.0588
  811POPS   CNO11203  15.925  15.463   6.023  0.0035  0.1109 -0.1290
  811POPS   PO411204  15.513  15.102   5.897  0.0832  0.1907 -0.0098
  811POPS   GL111205  15.328  15.017   6.172 -0.1345 -0.1198  0.0122
  811POPS   GL211206  15.137  14.856   6.160 -0.0775  0.2675 -0.1588
  811POPS   C1A11207  15.464  15.195   6.597  0.1325  0.2265 -0.1443
  811POPS   D2A11208  15.521  15.061   7.044  0.1531  0.0708 -0.0537
  811POPS   C3A11209  15.223  14.810   7.295 -0.1405  0.1317  0.1693
  811POPS   C4A11210  15.141  14.606   7.633  0.1608  0.4292 -0.0317
  811POPS   C1B11211  15.094  14.822   6.554 -0.1721  0.0539 -0.0437
  811POPS   C2B11212  15.027  15.007   6.920  0.4533  0.1051  0.2151
  811POPS   C3B11213  15.080  15.268   7.261  0.1157 -0.1508 -0.2706
  811POPS   C4B11214  15.347  15.375   7.432  0.0789 -0.1706  0.1601
  812YOPS   CNO11215  10.303  11.904   5.952 -0.1748 -0.2447  0.4352
  812YOPS   PO411216  10.030  11.998   5.645  0.2130 -0.0230 -0.0904
  812YOPS   GL111217   9.867  11.920   6.175  0.0780 -0.3661 -0.2076
  812YOPS   GL211218   9.778  11.607   6.204  0.1893 -0.2102 -0.1792
  812YOPS   C1A11219   9.641  12.073   6.508 -0.0864 -0.1000  0.0309
  812YOPS   D2A11220   9.345  12.267   6.788  0.0053 -0.0699  0.0295
  812YOPS   C3A11221   9.066  12.212   6.589 -0.2122 -0.4647  0.1600
  812YOPS   C4A11222   8.814  12.611   6.451  0.1885  0.0822  0.1186
  812YOPS   C1B11223   9.904  11.664   6.659  0.0369  0.1682  0.0593
  812YOPS   C2B11224   9.689  11.926   6.940 -0.3298 -0.1522 -0.1130
  812YOPS   D3B11225   9.732  11.962   7.327 -0.0947  0.0571  0.1069
  812YOPS   C4B11226   9.460  12.161   7.514  0.0692  0.0534 -0.1963
  813YOPS   CNO11227   7.601  14.597   5.758 -0.2809 -0.2160  0.1538
  813YOPS   PO411228   7.912  14.317   5.988  0.2831 -0.1149 -0.2753
  813YOPS   GL111229   7.894  14.521   6.299  0.0699 -0.1877  0.4123
  813YOPS   GL211230   8.087  14.641   6.370  0.1207  0.2302  0.0715
  813YOPS   C1A11231   7.751  14.430   6.701 -0.0597 -0.1128  0.3318
  813YOPS   D2A11232   7.892  14.302   7.081 -0.0310 -0.1601 -0.2139
  813YOPS   C3A11233   7.904  14.389   7.445  0.1861  0.1138  0.1086
  813YOPS   C4A11234   8.072  14.710   7.686 -0.0376 -0.1287 -0.0290
  813YOPS   C1B11235   8.315  14.591   6.738 -0.0839 -0.1305 -0.1161
  813YOPS   C2B11236   8.318  14.609   7.151  0.1401 -0.0817 -0.1116
  813YOPS   D3B11237   8.301  15.032   7.333 -0.1012 -0.1021  0.2396
  813YOPS   C4B11238   7.951  15.214   7.499 -0.0809  0.3086 -0.1620
  814YOPS   CNO11239  10.047  10.679   5.518  0.0337  0.2912  0.1876
  814YOPS   PO411240   9.739  10.438   5.672  0.1053  0.0467 -0.1340
  814YOPS   GL111241   9.997  10.449   6.078 -0.2889  0.0339 -0.1528
  814YOPS   GL211242  10.356  10.554   6.262  0.2393  0.2043  0.1159
  814YOPS   C1A11243   9.920  10.351   6.613  0.1395 -0.1510 -0.0306
  814YOPS   D2A11244   9.988  10.386   7.168  0.0812  0.1157  0.1893
  814YOPS   C3A11245   9.711  10.493   7.627 -0.2443 -0.0759 -0.0230
  814YOPS   C4A11246   9.830  10.827   7.951  0.1907 -0.0360  0.0275
  814YOPS   C1B11247  10.376  10.225   6.508  0.1661 -0.3062  0.2489
  814YOPS   C2B11248  10.162   9.945   6.753 -0.1479  0.2145  0.3397
  814YOPS   D3B11249  10.030   9.875   7.256  0.0134  0.2575 -0.2671
  814YOPS   C4B11250  10.091  10.150   7.608  0.0860 -0.0362  0.3194
  815YOPS   CNO11251  17.144  17.846   5.223 -0.0983  0.1140  0.0845
  815YOPS   PO411252  16.952  17.867   5.587  0.1368  0.4055  0.0543
  815YOPS   GL111253  17.130  17.840   5.885  0.0211 -0.0258  0.0875
  815YOPS   GL211254  17.436  17.726   6.001 -0.1078  0.1109 -0.0256
  815YOPS   C1A11255  17.181  17.982   6.330 -0.0710  0.0977 -0.0645
  815YOPS   D2A11256  17.230  17.882   6.778  0.1299  0.0704  0.0632
  815YOPS   C3A11257  17.219  18.095   7.258  0.1658 -0.3815 -0.0173
  815YOPS   C4A11258  17.227  17.910   7.588  0.1187 -0.0373  0.3569
  815YOPS   C1B11259  17.780  17.808   6.322  0.1732 -0.1984 -0.0350
  815YOPS   C2B11260  17.740  17.642   6.723 -0.0537 -0.0858  0.1067
  815YOPS   D3B11261  17.819  17.302   6.984 -0.0488 -0.1905 -0.1456
  815YOPS   C4B11262  18.031  17.307   7.312 -0.2871  0.1079 -0.0223
  816YOPS   CNO11263   8.107   4.120   5.470 -0.0415  0.1693 -0.0512
  816YOPS   PO411264   7.738   4.295   5.388  0.3354 -0.3866 -0.0572
  816YOPS   GL111265   7.781   4.030   5.867  0.2679  0.0473  0.1869
  816YOPS   GL211266   7.968   3.924   6.130 -0.2328  0.2282 -0.0022
  816YOPS   C1A11267   7.463   4.158   6.336 -0.3325 -0.2351  0.0501
  816YOPS   D2A11268   7.622   4.186   6.820  0.1174 -0.1388 -0.3198
  816YOPS   C3A11269   7.419   4.338   7.227 -0.0537  0.1832  0.1462
  816YOPS   C4A11270   7.248   4.821   7.250  0.1413 -0.2495  0.0668
  816YOPS   C1B11271   7.877   3.870   6.497  0.0605 -0.3861  0.2653
  816YOPS   C2B11272   7.604   3.679   6.859  0.1652  0.0884  0.1124
  816YOPS   D3B11273   7.422   3.557   7.275  0.0006 -0.1721  0.1065
  816YOPS   C4B11274   7.749   3.691   7.503  0.2171  0.3708 -0.2477
  817YOPS   CNO11275   1.384  13.863   5.738  0.0307  0.0610 -0.0937
  817YOPS   PO411276   1.172  13.959   6.055  0.1800  0.3823 -0.2504
  817YOPS   GL111277   1.344  13.981   6.409 -0.0053  0.0939  0.1114
  817YOPS   GL211278   1.703  14.141   6.292 -0.1064 -0.0214 -0.0778
  817YOPS   C1A11279   1.260  13.878   6.847 -0.0503 -0.2421 -0.0874
  817YOPS   D2A11280   1.363  13.718   7.283 -0.0129  0.1083 -0.0016
  817YOPS   C3A11281   1.492  13.968   7.622  0.1049  0.3046  0.4095
  817YOPS   C4A11282   1.892  14.091   7.654 -0.0183 -0.2419 -0.0139
  817YOPS   C1B11283   1.720  14.033   6.758 -0.0250  0.0836  0.0010
  817YOPS   C2B11284   1.961  14.124   7.073 -0.2143 -0.0378  0.0021
  817YOPS   D3B11285   2.301  14.457   7.344 -0.0585  0.1343 -0.1030
  817YOPS   C4B11286   2.256  14.452   7.758  0.0686 -0.2245 -0.2900
  818YOPS   CNO11287  11.614   8.440   5.464 -0.0847  0.1521 -0.0400
  818YOPS   PO411288  11.821   8.680   5.741 -0.2644 -0.0954 -0.1699
  818YOPS   GL111289  11.778   8.703   6.163 -0.0346  0.0990 -0.0316
  818YOPS   GL211290  12.041   8.577   6.329  0.2901 -0.1242 -0.1463
  818YOPS   C1A11291  11.509   8.474   6.468 -0.2231 -0.0209  0.2652
  818YOPS   D2A11292  11.577   8.460   6.931  0.1991  0.0553  0.4017
  818YOPS   C3A11293  11.591   8.735   7.141 -0.0080 -0.0699  0.0642
  818YOPS   C4A11294  11.323   8.557   7.441  0.1549 -0.3277  0.0572
  818YOPS   C1B11295  12.022   8.601   6.843  0.0554  0.2683  0.1547
  818YOPS   C2B11296  12.015   8.346   7.244 -0.3754  0.1611  0.0372
  818YOPS   D3B11297  12.248   7.976   7.459 -0.0894  0.0608 -0.1084
  818YOPS   C4B11298  12.268   7.878   7.906 -0.0773  0.2905 -0.3153
  819YOPS   CNO11299   9.029   6.655   5.702  0.0814  0.0514 -0.3430
  819YOPS   PO411300   8.571   6.537   5.637  0.1143 -0.0416 -0.2230
  819YOPS   GL111301   8.406   6.535   5.997 -0.2380  0.0563  0.0619
  819YOPS   GL211302   8.505   6.467   6.264  0.1334 -0.1919  0.1384
  819YOPS   C1A11303   8.046   6.645   6.329 -0.2954  0.2997 -0.1562
  819YOPS   D2A11304   8.013   6.693   6.839 -0.2652 -0.0602  0.2378
  819YOPS   C3A11305   8.036   7.143   6.986  0.1863 -0.0093 -0.0410
  819YOPS   C4A11306   8.100   7.094   7.493 -0.0044  0.5166 -0.0618
  819YOPS   C1B11307   8.458   6.701   6.667 -0.0039  0.1866  0.2148
  819YOPS   C2B11308   8.415   6.657   7.214  0.1988  0.1310 -0.0222
  819YOPS   D3B11309   8.319   6.610   7.630 -0.0831 -0.2302  0.0817
  819YOPS   C4B11310   8.304   6.183   7.773  0.0281 -0.0657  0.2170
  820YOPS   CNO11311  16.705   4.076   5.094  0.0161  0.0940 -0.1897
  820YOPS   PO411312  16.808   4.451   5.368  0.2453  0.4307  0.0182
  820YOPS   GL111313  16.710   4.181   5.613  0.0416  0.1191 -0.2181
  820YOPS   GL211314  16.877   4.196   5.976  0.1698  0.1693  0.0568
  820YOPS   C1A11315  16.380   4.211   5.906  0.0738  0.0797  0.0362
  820YOPS   D2A11316  16.037   4.370   6.138 -0.1068 -0.3388 -0.2113
  820YOPS   C3A11317  15.797   4.500   6.485 -0.0818  0.6006 -0.2011
  820YOPS   C4A11318  16.010   4.908   6.627 -0.0886  0.0569  0.1977
  820YOPS   C1B11319  16.691   4.288   6.357  0.1239 -0.3031 -0.0340
  820YOPS   C2B11320  16.452   4.544   6.626  0.2139 -0.1592  0.0068
  820YOPS   D3B11321  16.102   4.541   6.962  0.2797  0.0590 -0.0250
  820YOPS   C4B11322  16.348   4.562   7.341  0.4733  0.0424 -0.3609
  821YOPS   CNO11323   0.729   5.594   5.159 -0.0263  0.1580  0.1001
  821YOPS   PO411324   0.533   5.844   5.320 -0.2189  0.1942 -0.1688
  821YOPS   GL111325   0.530   5.812   5.653 -0.0569 -0.1650  0.2692
  821YOPS   GL211326   0.743   5.938   5.875  0.4901  0.1010  0.0433
  821YOPS   C1A11327   0.179   5.853   5.994 -0.3781  0.0657  0.0231
  821YOPS   D2A11328  -0.038   6.085   6.353  0.2798 -0.2844  0.2983
  821YOPS   C3A11329  -0.092   6.211   6.780 -0.0241  0.3248 -0.2108
  821YOPS   C4A11330  -0.403   6.252   7.188  0.1645 -0.1694 -0.1744
  821YOPS   C1B11331   0.613   5.623   6.254 -0.0399 -0.3756 -0.0829
  821YOPS   C2B11332   0.667   5.630   6.656 -0.0138  0.0582  0.0681
  821YOPS   D3B11333   0.677   5.679   7.092 -0.3006 -0.1638  0.0466
  821YOPS   C4B11334   0.658   5.890   7.400  0.3075  0.3147 -0.1740
  822YOPS   CNO11335   2.557  15.725   5.269 -0.2647  0.0236  0.1095
  822YOPS   PO411336   2.810  15.979   5.512  0.0259 -0.0934  0.0255
  822YOPS   GL111337   2.799  16.055   5.979  0.0724 -0.1247  0.2001
  822YOPS   GL211338   2.854  15.726   5.960  0.1642  0.0229 -0.3483
  822YOPS   C1A11339   2.683  16.197   6.405 -0.0644  0.1007 -0.0143
  822YOPS   D2A11340   2.571  16.459   6.696  0.3538  0.1244 -0.1949
  822YOPS   C3A11341   2.390  16.456   7.072  0.0970 -0.1948  0.1278
  822YOPS   C4A11342   2.330  16.762   7.212 -0.0061  0.0700  0.0231
  822YOPS   C1B11343   3.027  15.536   6.291 -0.1226 -0.0166 -0.3547
  822YOPS   C2B11344   3.123  15.540   6.796 -0.0589 -0.2903 -0.0225
  822YOPS   D3B11345   3.127  15.284   7.145 -0.0727 -0.0897 -0.1848
  822YOPS   C4B11346   2.826  15.248   7.474 -0.0318 -0.1500  0.0893
  823YOPS   CNO11347  11.934  14.140   6.085 -0.1393  0.0358 -0.2802
  823YOPS   PO411348  12.354  14.192   6.201  0.0318 -0.0644  0.1294
  823YOPS   GL111349  12.332  14.565   6.396 -0.0101  0.0049 -0.2367
  823YOPS   GL211350  12.706  14.672   6.465 -0.0882 -0.1818 -0.0043
  823YOPS   C1A11351  12.185  14.745   6.805 -0.4842  0.3438 -0.0370
  823YOPS   D2A11352  11.987  14.729   7.123  0.2159  0.0774 -0.2330
  823YOPS   C3A11353  12.083  14.844   7.650  0.0548 -0.0115  0.1321
  823YOPS   C4A11354  12.509  15.114   7.677 -0.2212 -0.1637 -0.1370
  823YOPS   C1B11355  12.732  14.738   6.857  0.1795  0.2585 -0.0942
  823YOPS   C2B11356  12.520  14.831   7.241 -0.1664 -0.1177 -0.0206
  823YOPS   D3B11357  12.478  14.577   7.677 -0.1003 -0.0528 -0.0457
  823YOPS   C4B11358  12.306  14.783   8.031 -0.1937 -0.2740 -0.2746
  824YOPS   CNO11359   6.328   5.472   5.421 -0.5448  0.0259  0.1669
  824YOPS   PO411360   6.060   5.760   5.739 -0.0745  0.3240  0.0606
  824YOPS   GL111361   6.256   5.644   6.120  0.1318  0.0095 -0.1523
  824YOPS   GL211362   6.099   5.952   6.239 -0.0603  0.3547 -0.1523
  824YOPS   C1A11363   6.301   5.610   6.525  0.2299  0.1956 -0.3913
  824YOPS   D2A11364   6.436   5.389   6.823  0.0386  0.2525 -0.2068
  824YOPS   C3A11365   6.457   5.401   7.287  0.1090  0.0887 -0.2492
  824YOPS   C4A11366   6.039   5.677   7.329  0.0325 -0.2184 -0.1614
  824YOPS   C1B11367   5.800   5.931   6.618  0.1707  0.0370 -0.0502
  824YOPS   C2B11368   5.741   5.866   6.947 -0.0344 -0.3130 -0.5573
  824YOPS   D3B11369   5.725   6.078   7.332 -0.1898 -0.0560 -0.3167
  824YOPS   C4B11370   5.840   5.848   7.719 -0.0089  0.1189  0.0880
  825YOPS   CNO11371  15.025  10.620   5.349  0.0027 -0.0228  0.4683
  825YOPS   PO411372  15.323  10.351   5.471 -0.0978 -0.1246  0.1497
  825YOPS   GL111373  15.382  10.284   5.892 -0.0777  0.2069 -0.0448
  825YOPS   GL211374  15.350   9.970   6.002  0.3026 -0.0620 -0.4509
  825YOPS   C1A11375  15.313  10.488   6.264  0.1020 -0.0767 -0.0489
  825YOPS   D2A11376  15.130  10.662   6.655 -0.1995 -0.0022  0.0029
  825YOPS   C3A11377  15.311  10.578   7.083 -0.1965 -0.1853  0.1336
  825YOPS   C4A11378  15.224  10.965   7.457 -0.4798 -0.1670  0.1121
  825YOPS   C1B11379  15.765  10.201   6.291 -0.3283  0.0613  0.1644
  825YOPS   C2B11380  16.090  10.455   6.252 -0.0484 -0.0264 -0.1061
  825YOPS   D3B11381  16.353  10.811   6.177  0.0208  0.1814  0.2568
  825YOPS   C4B11382  16.774  10.617   6.139  0.0985  0.1644  0.1280
  826YOPS   CNO11383  17.027   8.640   4.971 -0.0051 -0.1234 -0.1119
  826YOPS   PO411384  17.062   8.807   5.410  0.0642 -0.0289 -0.1550
  826YOPS   GL111385  17.050   8.709   5.821  0.1024 -0.3320 -0.0270
  826YOPS   GL211386  17.008   9.101   5.908 -0.0617  0.0652 -0.1671
  826YOPS   C1A11387  16.893   8.671   6.299  0.0238 -0.0406 -0.2302
  826YOPS   D2A11388  16.886   8.458   6.717 -0.0327 -0.1587  0.2872
  826YOPS   C3A11389  16.871   8.096   6.922 -0.1301  0.0434 -0.0450
  826YOPS   C4A11390  16.779   8.083   7.334 -0.1584 -0.0038  0.1387
  826YOPS   C1B11391  17.087   9.168   6.350 -0.1237 -0.4261 -0.1501
  826YOPS   C2B11392  16.930   9.061   6.758  0.0253  0.3059 -0.2212
  826YOPS   D3B11393  16.801   8.770   7.114 -0.1364  0.1698 -0.0448
  826YOPS   C4B11394  16.986   8.657   7.593  0.2952 -0.2248 -0.3788
  827YOPS   CNO11395   1.768   0.081   5.029  0.4525  0.1731 -0.5514
  827YOPS   PO411396   1.902  -0.414   5.009 -0.0526 -0.3660  0.0749
  827YOPS   GL111397   1.704  -0.337   5.477  0.2070  0.3686 -0.4148
  827YOPS   GL211398   1.368  -0.412   5.556  0.1027 -0.1249 -0.0550
  827YOPS   C1A11399   1.918  -0.026   5.748  0.1390  0.1855 -0.2329
  827YOPS   D2A11400   2.330  -0.029   5.870  0.4316 -0.0997 -0.1201
  827YOPS   C3A11401   2.732  -0.174   5.992 -0.0367 -0.2594  0.0784
  827YOPS   C4A11402   3.141  -0.268   6.052 -0.2784 -0.2224 -0.3250
  827YOPS   C1B11403   1.388  -0.130   5.881 -0.0318 -0.2220 -0.1913
  827YOPS   C2B11404   1.071   0.054   6.196  0.1965  0.0539 -0.2018
  827YOPS   D3B11405   0.822   0.259   6.488 -0.3659 -0.1308 -0.1217
  827YOPS   C4B11406   0.731   0.674   6.491 -0.0554  0.2225 -0.1557
  828YOPS   CNO11407   9.835   7.645   5.315  0.5085 -0.1069  0.0009
  828YOPS   PO411408   9.856   7.461   5.733  0.1172 -0.1010 -0.0984
  828YOPS   GL111409   9.771   7.370   6.075 -0.0635  0.2612  0.0945
  828YOPS   GL211410   9.996   7.230   6.268  0.1019 -0.3113  0.3381
  828YOPS   C1A11411   9.436   7.278   6.254 -0.5581  0.0078 -0.4342
  828YOPS   D2A11412   9.435   7.203   6.705  0.4076  0.0621 -0.1473
  828YOPS   C3A11413   9.297   7.086   7.170 -0.1882 -0.0562 -0.1697
  828YOPS   C4A11414   9.563   7.130   7.490  0.1644  0.4822  0.3145
  828YOPS   C1B11415  10.074   7.445   6.706 -0.1427  0.0057 -0.2128
  828YOPS   C2B11416  10.156   7.422   7.063  0.0179 -0.0802 -0.0286
  828YOPS   D3B11417   9.860   7.507   7.302  0.1373 -0.0436 -0.0867
  828YOPS   C4B11418   9.753   7.856   7.626 -0.0016 -0.0085 -0.0299
  829YOPS   CNO11419   9.625   2.791   5.566 -0.1923  0.2690 -0.1263
  829YOPS   PO411420   9.654   3.007   5.894 -0.3188 -0.0012 -0.0300
  829YOPS   GL111421   9.531   3.109   6.192 -0.4495  0.0462  0.0897
  829YOPS   GL211422   9.180   3.372   6.253 -0.0394  0.0693  0.0509
  829YOPS   C1A11423   9.733   3.036   6.595  0.0428 -0.2484 -0.0461
  829YOPS   D2A11424   9.878   2.868   7.015  0.0320  0.0617  0.0255
  829YOPS   C3A11425   9.943   3.091   7.392 -0.2999  0.4844  0.2013
  829YOPS   C4A11426  10.343   3.064   7.567 -0.1593 -0.0608 -0.0047
  829YOPS   C1B11427   9.267   3.499   6.679  0.0231 -0.0763  0.2174
  829YOPS   C2B11428   9.247   3.740   7.022 -0.0684 -0.3612  0.0390
  829YOPS   D3B11429   8.973   4.104   7.308 -0.1553 -0.0787  0.0792
  829YOPS   C4B11430   8.810   3.856   7.680  0.0702  0.0555 -0.0130
  830YOPS   CNO11431  11.492  17.016   5.500 -0.3118  0.2358 -0.2315
  830YOPS   PO411432  11.757  16.899   5.825 -0.1111 -0.2361 -0.2143
  830YOPS   GL111433  11.555  17.077   6.124 -0.0862 -0.0068 -0.2369
  830YOPS   GL211434  11.832  17.161   6.220 -0.1561  0.1788 -0.0738
  830YOPS   C1A11435  11.438  17.177   6.527  0.0120  0.0393 -0.1792
  830YOPS   D2A11436  11.480  17.202   6.948 -0.0443  0.2701  0.1082
  830YOPS   C3A11437  11.405  17.202   7.323 -0.3829 -0.2447 -0.0966
  830YOPS   C4A11438  11.837  17.333   7.587 -0.0448 -0.2167  0.0655
  830YOPS   C1B11439  12.259  17.052   6.427 -0.0344  0.0610 -0.0615
  830YOPS   C2B11440  12.364  17.167   6.811  0.0842  0.3288 -0.2119
  830YOPS   D3B11441  12.274  17.178   7.325 -0.0344 -0.1167  0.5957
  830YOPS   C4B11442  12.640  17.047   7.633  0.0876  0.2397 -0.1557
  831YOPS   CNO11443   3.243   6.392   5.165  0.0458 -0.2396  0.1692
  831YOPS   PO411444   3.078   6.490   5.511  0.2865 -0.2413 -0.1629
  831YOPS   GL111445   2.957   6.373   6.000  0.1839 -0.0060  0.0377
  831YOPS   GL211446   2.903   6.679   6.132 -0.0282 -0.2196  0.0595
  831YOPS   C1A11447   2.863   6.089   6.407  0.1584 -0.2689 -0.1759
  831YOPS   D2A11448   3.036   6.188   6.863 -0.1115  0.0883 -0.2549
  831YOPS   C3A11449   3.341   6.381   6.991 -0.1352  0.1823  0.1468
  831YOPS   C4A11450   3.372   6.359   7.426 -0.0325 -0.1280  0.0754
  831YOPS   C1B11451   2.668   6.522   6.558  0.0521 -0.1185  0.1723
  831YOPS   C2B11452   2.566   6.503   6.982  0.1885  0.1338 -0.0980
  831YOPS   D3B11453   2.645   6.416   7.443 -0.3715  0.0164  0.0251
  831YOPS   C4B11454   2.463   6.750   7.642 -0.1491 -0.1344  0.0729
  832YOPS   CNO11455  10.754   0.918   5.499  0.0445 -0.3459 -0.0431
  832YOPS   PO411456  10.372   1.088   5.586  0.0774  0.1464 -0.0276
  832YOPS   GL111457  10.109   1.198   5.934  0.0622 -0.0214  0.1203
  832YOPS   GL211458  10.142   1.040   6.250 -0.0740  0.0656 -0.2867
  832YOPS   C1A11459   9.650   1.137   6.093 -0.0767 -0.3840  0.2660
  832YOPS   D2A11460   9.473   1.057   6.442  0.1347  0.1544  0.0588
  832YOPS   C3A11461   9.087   1.176   6.635 -0.1375 -0.2821  0.0978
  832YOPS   C4A11462   8.874   1.023   6.329  0.0779  0.0645 -0.0072
  832YOPS   C1B11463  10.146   0.605   6.225 -0.0117 -0.0116  0.0276
  832YOPS   C2B11464  10.299   0.217   6.507 -0.0592 -0.1622 -0.0124
  832YOPS   D3B11465  10.183   0.234   6.991  0.1704 -0.0142  0.0732
  832YOPS   C4B11466  10.224   0.294   7.467  0.0939  0.5426 -0.0296
  833YOPS   CNO11467   2.137   7.651   5.609  0.2032  0.2362  0.0900
  833YOPS   PO411468   2.354   7.608   5.992  0.0294  0.0877  0.0384
  833YOPS   GL111469   2.525   7.494   6.374  0.1616  0.1078  0.1269
  833YOPS   GL211470   2.205   7.477   6.573 -0.2558  0.0897  0.2591
  833YOPS   C1A11471   2.640   7.360   6.782  0.1775 -0.1501  0.1630
  833YOPS   D2A11472   2.390   7.489   7.075  0.0228 -0.0058  0.2132
  833YOPS   C3A11473   2.073   7.820   6.977 -0.0665 -0.2611 -0.0201
  833YOPS   C4A11474   1.825   7.811   6.544  0.2643  0.0094  0.3799
  833YOPS   C1B11475   1.998   7.115   6.880 -0.2496 -0.0243  0.0670
  833YOPS   C2B11476   1.739   7.031   7.158 -0.0257 -0.1935 -0.0617
  833YOPS   D3B11477   1.625   6.737   7.407 -0.4309 -0.0432 -0.4385
  833YOPS   C4B11478   1.443   6.893   7.762 -0.1893  0.1511 -0.1311
  834YOPS   CNO11479   5.336  11.139   5.838 -0.0465 -0.0826 -0.1445
  834YOPS   PO411480   5.084  10.905   6.195  0.2526  0.1934  0.1086
  834YOPS   GL111481   5.277  10.808   6.582 -0.3199 -0.1240 -0.0504
  834YOPS   GL211482   5.314  10.479   6.745 -0.0655 -0.0031 -0.0581
  834YOPS   C1A11483   4.980  10.804   6.916  0.1881  0.0666  0.1167
  834YOPS   D2A11484   4.989  10.851   7.426 -0.1465 -0.0244  0.0494
  834YOPS   C3A11485   5.388  10.956   7.671  0.0651 -0.0009 -0.1536
  834YOPS   C4A11486   5.625  10.670   7.947 -0.2599 -0.0533  0.1177
  834YOPS   C1B11487   5.275  10.494   7.190 -0.0985 -0.3359 -0.2140
  834YOPS   C2B11488   5.181  10.487   7.673 -0.1571 -0.3130  0.1242
  834YOPS   D3B11489   5.304  10.175   8.020 -0.1572 -0.1213 -0.2060
  834YOPS   C4B11490   5.302   9.688   8.096 -0.0594 -0.0602 -0.0121
  835YOPS   CNO11491  18.179   8.369   5.671 -0.1331  0.0903 -0.1388
  835YOPS   PO411492  18.258   8.228   6.018 -0.1198  0.1913  0.0117
  835YOPS   GL111493  18.229   7.989   6.419  0.0294 -0.0017 -0.0518
  835YOPS   GL211494  18.557   8.045   6.523  0.0287 -0.1017  0.3908
  835YOPS   C1A11495  17.982   7.916   6.678  0.0334 -0.1467  0.0139
  835YOPS   D2A11496  17.928   8.122   7.102 -0.0955 -0.0630 -0.0631
  835YOPS   C3A11497  18.008   8.142   7.483  0.2116  0.1120  0.3639
  835YOPS   C4A11498  18.408   8.298   7.754  0.0745 -0.0770  0.2117
  835YOPS   C1B11499  18.473   7.997   6.961  0.2317 -0.0664  0.1528
  835YOPS   C2B11500  18.663   7.672   7.122  0.5247 -0.0271  0.0025
  835YOPS   D3B11501  18.520   7.125   7.188 -0.2657  0.1849  0.1083
  835YOPS   C4B11502  18.160   6.973   7.226 -0.3164  0.4994 -0.0626
  836YOPS   CNO11503  18.164  17.546   5.352 -0.1650  0.2581 -0.2172
  836YOPS   PO411504  18.395  17.812   5.607 -0.1581 -0.0789 -0.2310
  836YOPS   GL111505  18.179  17.549   5.855 -0.0815  0.0500 -0.0520
  836YOPS   GL211506  17.941  17.660   5.860  0.0624 -0.0281 -0.1801
  836YOPS   C1A11507  18.464  17.281   6.076 -0.3248 -0.1320  0.0551
  836YOPS   D2A11508  18.529  17.083   6.504 -0.0038 -0.1223  0.1256
  836YOPS   C3A11509  18.687  17.197   6.888 -0.1283  0.0418 -0.0693
  836YOPS   C4A11510  18.868  17.447   7.219 -0.2966  0.0452 -0.3501
  836YOPS   C1B11511  17.711  17.332   6.099 -0.0892  0.1131  0.0133
  836YOPS   C2B11512  17.586  17.212   6.446 -0.2910 -0.1390  0.1454
  836YOPS   D3B11513  17.536  16.891   6.767  0.0106 -0.0280  0.2327
  836YOPS   C4B11514  17.830  16.809   7.140 -0.0172  0.0248  0.1097
  837YOPS   CNO11515  17.623   0.038   5.060  0.2386 -0.4916  0.1049
  837YOPS   PO411516  17.802  -0.068   5.492  0.3261  0.0339  0.0836
  837YOPS   GL111517  17.999  -0.141   5.864 -0.0768  0.2111 -0.1172
  837YOPS   GL211518  18.272  -0.109   5.833 -0.1419 -0.0781  0.1056
  837YOPS   C1A11519  17.963  -0.024   6.335 -0.1111  0.3687 -0.1582
  837YOPS   D2A11520  18.050   0.071   6.748  0.0660 -0.1103  0.3171
  837YOPS   C3A11521  18.073  -0.083   7.116  0.3878 -0.0066  0.2118
  837YOPS   C4A11522  18.153  -0.286   7.515  0.0920 -0.0756  0.0776
  837YOPS   C1B11523  18.505  -0.131   6.174  0.0459  0.1894  0.1732
  837YOPS   C2B11524  18.795  -0.205   6.571  0.0244 -0.0440  0.1096
  837YOPS   D3B11525  19.098  -0.090   6.894 -0.0002  0.1121 -0.5040
  837YOPS   C4B11526  19.458   0.109   7.130  0.0253 -0.0193  0.1879
  838YOPS   CNO11527  17.169  15.488   5.430 -0.3387  0.3530  0.1201
  838YOPS   PO411528  17.589  15.741   5.599  0.1246  0.1480 -0.3083
  838YOPS   GL111529  17.622  15.722   6.044  0.2258  0.0545  0.0129
  838YOPS   GL211530  17.375  15.962   6.031  0.2608 -0.0549  0.3214
  838YOPS   C1A11531  17.572  15.827   6.573  0.2318  0.3999  0.4352
  838YOPS   D2A11532  17.510  15.977   6.879  0.0314 -0.1914  0.0769
  838YOPS   C3A11533  17.569  16.007   7.300 -0.0299  0.0236 -0.0093
  838YOPS   C4A11534  17.459  15.793   7.632 -0.1272 -0.2396  0.1436
  838YOPS   C1B11535  17.288  16.144   6.402  0.2780 -0.0203 -0.0436
  838YOPS   C2B11536  17.412  16.446   6.575 -0.4041  0.0370  0.1282
  838YOPS   D3B11537  17.815  16.573   6.345 -0.2738  0.0219 -0.0788
  838YOPS   C4B11538  18.024  16.955   6.545 -0.2846 -0.1323  0.2041
  839YOPS   CNO11539   7.076   7.536   5.825 -0.0392 -0.0622 -0.2674
  839YOPS   PO411540   7.075   7.142   6.029 -0.0333 -0.1190 -0.2128
  839YOPS   GL111541   6.868   7.223   6.376 -0.1906  0.1155 -0.1054
  839YOPS   GL211542   6.596   7.399   6.460 -0.1289 -0.1106  0.0369
  839YOPS   C1A11543   6.725   7.109   6.852  0.1656  0.0713 -0.1836
  839YOPS   D2A11544   6.657   7.178   7.283  0.2801 -0.1021  0.0139
  839YOPS   C3A11545   6.405   6.993   7.722 -0.1831  0.0424  0.2198
  839YOPS   C4A11546   6.458   7.257   8.082 -0.0114  0.0251 -0.1876
  839YOPS   C1B11547   6.568   7.682   6.707  0.3010  0.6567 -0.0235
  839YOPS   C2B11548   6.516   7.737   7.175  0.5412 -0.3607 -0.2131
  839YOPS   D3B11549   6.565   7.516   7.652 -0.1144 -0.0452  0.1312
  839YOPS   C4B11550   6.331   7.800   7.981 -0.2042  0.0421  0.1056
  840YOPS   CNO11551   4.927   0.238   5.377  0.4485 -0.2517 -0.3478
  840YOPS   PO411552   4.879  -0.271   5.467 -0.2700 -0.0354  0.0799
  840YOPS   GL111553   4.947  -0.321   5.924  0.0598  0.0188 -0.3004
  840YOPS   GL211554   4.943  -0.557   6.107 -0.0084 -0.2636  0.1751
  840YOPS   C1A11555   4.779   0.002   6.257  0.2517  0.1013 -0.0983
  840YOPS   D2A11556   4.587   0.082   6.596  0.1131 -0.0764  0.2268
  840YOPS   C3A11557   4.717   0.001   6.992 -0.1538 -0.0851  0.2403
  840YOPS   C4A11558   4.555   0.240   7.229  0.3723  0.0474  0.1938
  840YOPS   C1B11559   4.816  -0.436   6.549 -0.1801  0.2272  0.0934
  840YOPS   C2B11560   4.770  -0.599   6.911 -0.0193 -0.1580  0.0468
  840YOPS   D3B11561   4.685  -0.481   7.341  0.0381  0.2456 -0.0795
  840YOPS   C4B11562   4.643  -0.153   7.627  0.1050 -0.1394 -0.0727
  841YOPS   CNO11563   0.424   1.150   5.399 -0.0724  0.0248  0.1359
  841YOPS   PO411564   0.719   1.356   5.615 -0.3221  0.0516 -0.3449
  841YOPS   GL111565   0.746   1.778   5.905  0.0937  0.0163  0.0192
  841YOPS   GL211566   1.065   1.887   5.768  0.2045  0.0177 -0.1741
  841YOPS   C1A11567   0.918   2.063   6.260  0.1522  0.1231 -0.1154
  841YOPS   D2A11568   1.185   2.353   6.418 -0.0243 -0.0584 -0.0267
  841YOPS   C3A11569   1.291   2.431   6.819  0.1481 -0.0128 -0.1657
  841YOPS   C4A11570   1.061   2.511   7.199 -0.0408 -0.1637  0.1016
  841YOPS   C1B11571   1.113   1.606   6.179  0.0864  0.0315 -0.0669
  841YOPS   C2B11572   1.201   1.489   6.646 -0.1663 -0.3664  0.1205
  841YOPS   D3B11573   1.212   1.558   7.114  0.2503  0.0074  0.0917
  841YOPS   C4B11574   1.355   1.969   7.197 -0.0470 -0.0723 -0.0469
  842POPE   NH311575   9.242  10.239   5.687 -0.0191  0.0909  0.2367
  842POPE   PO411576   8.987   9.870   5.546  0.2084 -0.2163 -0.0174
  842POPE   GL111577   9.037   9.663   5.950 -0.2709 -0.0742 -0.3252
  842POPE   GL211578   8.823   9.562   6.028  0.1207 -0.2879  0.2579
  842POPE   C1A11579   9.300   9.742   6.262  0.1244  0.0022  0.0431
  842POPE   D2A11580   9.181   9.948   6.601  0.0398 -0.1885  0.1875
  842POPE   C3A11581   8.749  10.069   6.669 -0.0066 -0.0297  0.0057
  842POPE   C4A11582   8.713  10.480   6.880  0.3528 -0.1762 -0.1698
  842POPE   C1B11583   8.895   9.515   6.472  0.1173  0.0876 -0.0174
  842POPE   C2B11584   8.964   9.647   6.891 -0.1840  0.1723 -0.4126
  842POPE   C3B11585   8.788   9.544   7.339 -0.0920 -0.1098  0.0128
  842POPE   C4B11586   8.927   9.212   7.614  0.3143  0.2340 -0.0375
  843POPE   NH311587  10.166  14.509   6.157 -0.0071 -0.4117  0.1129
  843POPE   PO411588   9.893  14.285   5.847  0.3095  0.1600  0.3041
  843POPE   GL111589   9.714  14.460   6.286  0.2307  0.0194 -0.0002
  843POPE   GL211590   9.477  14.357   6.474 -0.1566 -0.1316 -0.1214
  843POPE   C1A11591   9.842  14.641   6.738  0.2221  0.1835 -0.0044
  843POPE   D2A11592  10.037  14.517   7.045 -0.4248 -0.2813 -0.1364
  843POPE   C3A11593   9.912  14.731   7.395 -0.2332 -0.1282  0.2147
  843POPE   C4A11594   9.855  14.916   7.760 -0.2694  0.2715  0.0539
  843POPE   C1B11595   9.566  14.116   6.810  0.1570 -0.2919  0.0087
  843POPE   C2B11596   9.591  14.288   7.233 -0.2235 -0.1729 -0.0671
  843POPE   C3B11597   9.377  14.283   7.549 -0.1250 -0.0549  0.1085
  843POPE   C4B11598   9.388  14.229   7.981  0.2917 -0.1991  0.1373
  844POPE   NH311599   3.863  10.761   6.084  0.2694 -0.2053 -0.2531
  844POPE   PO411600   3.521  11.078   6.015 -0.4403 -0.3858  0.1033
  844POPE   GL111601   3.442  11.080   6.439  0.0293 -0.2086  0.3237
  844POPE   GL211602   3.693  10.786   6.563 -0.1140  0.3573 -0.3134
  844POPE   C1A11603   3.542  11.328   6.823  0.3900  0.0099 -0.1173
  844POPE   D2A11604   3.725  11.542   7.118  0.2088 -0.2992 -0.1621
  844POPE   C3A11605   3.409  11.646   7.420  0.1854  0.0352 -0.0100
  844POPE   C4A11606   3.071  11.522   7.776  0.0048 -0.0455 -0.2638
  844POPE   C1B11607   3.501  10.795   6.891  0.2387  0.1194  0.0351
  844POPE   C2B11608   3.391  10.724   7.418  0.0514  0.3549  0.0938
  844POPE   C3B11609   3.136  10.756   7.661  0.0446  0.0366 -0.0817
  844POPE   C4B11610   2.945  10.675   8.005 -0.2482 -0.0501 -0.0911
  845POPE   NH311611  17.219   4.143   5.462 -0.0509  0.2288 -0.0012
  845POPE   PO411612  17.215   3.600   5.432 -0.2491  0.2944  0.0384
  845POPE   GL111613  16.926   3.691   5.716 -0.1650 -0.1683 -0.1051
  845POPE   GL211614  17.239   3.873   5.899 -0.1014 -0.0035 -0.1977
  845POPE   C1A11615  16.602   3.740   6.020 -0.2194 -0.0001 -0.1063
  845POPE   D2A11616  16.326   3.997   6.369  0.1260  0.2860 -0.1213
  845POPE   C3A11617  16.431   4.041   6.806  0.2716 -0.3439 -0.1030
  845POPE   C4A11618  16.323   4.044   7.246 -0.2575  0.2345 -0.1627
  845POPE   C1B11619  17.051   3.762   6.279  0.3597 -0.0207 -0.1470
  845POPE   C2B11620  16.880   3.827   6.633  0.0663 -0.1820 -0.3582
  845POPE   C3B11621  16.851   3.845   7.012 -0.3285  0.0283  0.1456
  845POPE   C4B11622  16.703   3.771   7.434  0.1210 -0.2257 -0.0210
  846POPE   NH311623  17.993   2.957   5.470 -0.0368  0.2766  0.1407
  846POPE   PO411624  17.928   2.527   5.530  0.0261  0.0287  0.0655
  846POPE   GL111625  18.076   2.834   5.948  0.3124  0.1263 -0.0766
  846POPE   GL211626  17.868   3.145   5.978  0.3154  0.2061 -0.2335
  846POPE   C1A11627  18.281   2.800   6.337 -0.2328 -0.0217 -0.0424
  846POPE   D2A11628  18.320   2.541   6.579  0.0291  0.1002 -0.0038
  846POPE   C3A11629  18.300   2.043   6.411  0.0013  0.2382  0.0967
  846POPE   C4A11630  18.148   1.855   6.082 -0.3415  0.2999  0.2331
  846POPE   C1B11631  17.934   3.238   6.408  0.1463  0.1441 -0.1809
  846POPE   C2B11632  18.155   3.121   6.749  0.1332  0.3424  0.2279
  846POPE   C3B11633  18.289   3.070   7.224 -0.1710 -0.1926 -0.1640
  846POPE   C4B11634  18.654   2.992   7.516  0.0284 -0.1158 -0.0489
  847POPE   NH311635   4.081  14.054   5.761 -0.2991  0.0748 -0.1140
  847POPE   PO411636   4.415  14.361   5.846  0.2328 -0.1531 -0.0087
  847POPE   GL111637   4.483  14.631   6.245 -0.4587  0.1406  0.1036
  847POPE   GL211638   4.148  14.750   6.439 -0.0050 -0.1086  0.1530
  847POPE   C1A11639   4.541  14.499   6.629  0.4596 -0.2836  0.1468
  847POPE   D2A11640   4.569  14.255   6.877 -0.0030 -0.1835 -0.1156
  847POPE   C3A11641   4.609  14.398   7.320  0.0017  0.0223 -0.1837
  847POPE   C4A11642   4.447  14.732   7.557  0.0054  0.1661 -0.3160
  847POPE   C1B11643   4.376  14.975   6.821  0.2834 -0.0338 -0.0361
  847POPE   C2B11644   4.754  14.956   7.228  0.0051  0.1359 -0.0651
  847POPE   C3B11645   5.046  14.856   7.566  0.0239  0.0477 -0.1161
  847POPE   C4B11646   5.368  14.594   7.806  0.1986 -0.2297 -0.0345
  848POPE   NH311647   8.403   3.101   5.594  0.0479  0.1763  0.1574
  848POPE   PO411648   7.981   3.319   5.514 -0.0136  0.1994 -0.3136
  848POPE   GL111649   7.714   3.327   5.895 -0.1954  0.1705  0.2370
  848POPE   GL211650   7.360   3.476   5.859  0.0700  0.0302 -0.0143
  848POPE   C1A11651   7.656   3.424   6.310  0.0334  0.0198  0.1867
  848POPE   D2A11652   7.907   3.398   6.580 -0.0086  0.0308  0.2202
  848POPE   C3A11653   7.679   3.206   6.942 -0.0858  0.1449 -0.2485
  848POPE   C4A11654   7.384   2.870   7.129 -0.0637  0.2634  0.2771
  848POPE   C1B11655   7.139   3.194   6.192  0.0636 -0.2679  0.2950
  848POPE   C2B11656   7.245   3.216   6.630  0.1703 -0.2765 -0.3131
  848POPE   C3B11657   7.054   3.240   7.042 -0.2100  0.0940  0.1148
  848POPE   C4B11658   6.874   3.322   7.516 -0.1772  0.3808 -0.0695
  849POPE   NH311659   4.453  16.882   5.237  0.0679  0.2411  0.2348
  849POPE   PO411660   4.169  17.253   5.573  0.0936  0.2438 -0.1663
  849POPE   GL111661   4.112  17.494   5.985  0.2173 -0.0231  0.0601
  849POPE   GL211662   4.067  17.321   6.104  0.1200  0.0705  0.2813
  849POPE   C1A11663   4.039  17.986   6.296  0.2139 -0.0784  0.0475
  849POPE   D2A11664   3.873  18.291   6.637  0.0729 -0.1608  0.2177
  849POPE   C3A11665   3.821  18.301   7.112 -0.1475 -0.0129 -0.1125
  849POPE   C4A11666   3.372  18.250   7.141  0.2408  0.1987  0.0883
  849POPE   C1B11667   4.014  17.457   6.476 -0.0818 -0.1398 -0.0820
  849POPE   C2B11668   3.956  17.409   6.851 -0.1974 -0.1842  0.1938
  849POPE   C3B11669   4.122  17.432   7.268  0.1913 -0.1312  0.2867
  849POPE   C4B11670   4.145  17.072   7.650  0.0314  0.2632  0.1364
  850POPE   NH311671   4.435  11.258   5.646  0.0427 -0.0200  0.2057
  850POPE   PO411672   4.043  11.164   5.826 -0.0221 -0.1796  0.3224
  850POPE   GL111673   4.218  11.081   6.270 -0.3361 -0.5152  0.4106
  850POPE   GL211674   3.972  11.125   6.457  0.2594  0.0141 -0.1969
  850POPE   C1A11675   4.521  11.323   6.538 -0.1828  0.0840 -0.5048
  850POPE   D2A11676   4.981  11.218   6.712  0.2444  0.0126 -0.0611
  850POPE   C3A11677   5.038  11.294   7.172  0.3943  0.2150  0.3967
  850POPE   C4A11678   5.306  11.630   7.371 -0.0034  0.0892  0.0975
  850POPE   C1B11679   4.121  11.189   6.813  0.0269 -0.0145 -0.0508
  850POPE   C2B11680   4.077  11.064   7.193  0.1302 -0.1217  0.2206
  850POPE   C3B11681   3.717  11.092   7.334  0.1880  0.0054 -0.0504
  850POPE   C4B11682   3.466  11.176   7.686 -0.1972 -0.0441  0.0287
  851POPE   NH311683   5.999  16.121   5.908 -0.1701  0.0882  0.1517
  851POPE   PO411684   5.750  15.808   6.062 -0.0401 -0.1543 -0.2822
  851POPE   GL111685   5.868  15.975   6.433  0.0860  0.1849  0.1393
  851POPE   GL211686   6.130  16.111   6.393 -0.0013 -0.2151  0.0393
  851POPE   C1A11687   5.823  15.998   6.841 -0.0109  0.0016 -0.0781
  851POPE   D2A11688   5.445  16.227   7.043 -0.1200  0.0855  0.1119
  851POPE   C3A11689   5.424  16.622   7.350  0.1607 -0.0785 -0.0326
  851POPE   C4A11690   5.105  16.744   7.626  0.1126 -0.1358 -0.2251
  851POPE   C1B11691   6.343  16.407   6.621  0.1019  0.2692 -0.0041
  851POPE   C2B11692   6.365  16.345   6.991 -0.1887 -0.1719  0.2060
  851POPE   C3B11693   6.338  16.199   7.429  0.0486 -0.0559  0.4550
  851POPE   C4B11694   6.219  16.212   7.876  0.4055  0.1501 -0.2248
  852POPE   NH311695  16.692   8.242   5.588  0.0003 -0.2246 -0.0788
  852POPE   PO411696  16.501   8.581   5.713  0.0391  0.3761 -0.2474
  852POPE   GL111697  16.271   8.642   6.049 -0.1823 -0.0214 -0.2448
  852POPE   GL211698  16.403   8.471   6.348  0.1577  0.2348  0.2014
  852POPE   C1A11699  15.851   8.510   6.181  0.0675  0.0961  0.0117
  852POPE   D2A11700  15.512   8.646   6.305 -0.0050  0.1223 -0.0525
  852POPE   C3A11701  15.425   8.976   6.555 -0.0484  0.0086  0.0674
  852POPE   C4A11702  15.257   9.104   6.818 -0.3369 -0.1465 -0.1028
  852POPE   C1B11703  16.410   8.456   6.730 -0.1211  0.3850  0.2528
  852POPE   C2B11704  16.421   8.485   7.201 -0.0211  0.4691 -0.3141
  852POPE   C3B11705  16.524   8.374   7.653 -0.2269 -0.3351  0.3161
  852POPE   C4B11706  16.366   8.138   7.984 -0.0197 -0.0223  0.0148
  853POPE   NH311707   5.605   0.377   5.786  0.0214 -0.1417  0.0160
  853POPE   PO411708   5.799   0.033   5.808  0.2699 -0.0548  0.3275
  853POPE   GL111709   5.744   0.218   6.216  0.0282  0.1824  0.0594
  853POPE   GL211710   5.993   0.339   6.176  0.0141 -0.0489 -0.0420
  853POPE   C1A11711   5.549   0.192   6.574  0.0935  0.1224  0.1318
  853POPE   D2A11712   5.852   0.174   6.953 -0.3584 -0.0793  0.0435
  853POPE   C3A11713   5.881   0.402   7.307 -0.3175  0.2706  0.1023
  853POPE   C4A11714   6.129   0.569   7.611  0.0990 -0.2808 -0.1878
  853POPE   C1B11715   6.134   0.430   6.598  0.0893  0.0121  0.2024
  853POPE   C2B11716   6.288   0.435   6.985 -0.1236 -0.0828 -0.2068
  853POPE   C3B11717   6.434   0.346   7.325  0.0319  0.0192  0.2084
  853POPE   C4B11718   6.439   0.139   7.729 -0.1525  0.0587  0.1808
  854POPE   NH311719   1.423   2.545   5.231  0.3363 -0.2440 -0.1538
  854POPE   PO411720   1.532   2.847   5.456  0.2243  0.1373  0.1146
  854POPE   GL111721   1.928   2.928   5.737  0.3322  0.1233  0.1823
  854POPE   GL211722   2.005   2.605   5.810  0.1483 -0.0655 -0.0004
  854POPE   C1A11723   1.877   2.888   6.183 -0.0997  0.2952  0.2629
  854POPE   D2A11724   1.710   2.947   6.622  0.1097  0.1828 -0.3631
  854POPE   C3A11725   1.659   2.720   7.043 -0.3521 -0.0351 -0.0553
  854POPE   C4A11726   1.645   2.561   7.409  0.0292  0.0305 -0.2139
  854POPE   C1B11727   1.888   2.365   6.129 -0.0839 -0.4423  0.2118
  854POPE   C2B11728   1.685   2.359   6.536  0.0357  0.1977  0.2973
  854POPE   C3B11729   1.696   2.262   6.984  0.0464  0.3834  0.1023
  854POPE   C4B11730   1.768   2.041   7.412 -0.1497 -0.0461 -0.1241
  855POPE   NH311731  11.391  11.669   5.561  0.0985 -0.0818  0.0174
  855POPE   PO411732  11.108  11.439   5.658  0.0429 -0.1337 -0.0933
  855POPE   GL111733  10.940  11.237   6.035 -0.3101 -0.1535  0.0861
  855POPE   GL211734  10.750  11.015   6.184  0.1041 -0.1374 -0.0643
  855POPE   C1A11735  10.744  11.524   6.357 -0.2115 -0.3393 -0.0392
  855POPE   D2A11736  10.383  11.607   6.392  0.1841  0.2080  0.0025
  855POPE   C3A11737  10.456  11.782   6.811 -0.2311 -0.0364  0.1242
  855POPE   C4A11738  10.659  11.879   7.182  0.2886 -0.1499  0.1617
  855POPE   C1B11739  10.778  10.945   6.558 -0.2152 -0.2125  0.0373
  855POPE   C2B11740  10.440  10.748   6.792 -0.2550 -0.0472  0.2237
  855POPE   C3B11741  10.502  10.334   7.091 -0.0124 -0.0085 -0.1545
  855POPE   C4B11742  10.483  10.424   7.534 -0.0185  0.2255 -0.3027
  856POPE   NH311743   2.176  11.610   5.710 -0.0251  0.0286  0.2515
  856POPE   PO411744   1.724  11.387   5.594 -0.2667 -0.4204  0.1309
  856POPE   GL111745   1.665  11.648   5.930  0.2655 -0.0537 -0.1904
  856POPE   GL211746   1.405  11.829   6.068  0.2091  0.0803  0.0308
  856POPE   C1A11747   1.771  11.713   6.435  0.1489 -0.1042 -0.0429
  856POPE   D2A11748   2.023  11.690   6.825  0.1017 -0.4553 -0.3181
  856POPE   C3A11749   2.127  11.343   7.002  0.1333 -0.1373 -0.0645
  856POPE   C4A11750   2.430  11.006   7.058 -0.0355  0.0017 -0.2064
  856POPE   C1B11751   1.213  11.842   6.417  0.0129 -0.1027  0.0558
  856POPE   C2B11752   1.242  11.578   6.758  0.0162  0.2357 -0.3165
  856POPE   C3B11753   1.605  11.333   6.928 -0.0302  0.0965 -0.0817
  856POPE   C4B11754   1.678  11.265   7.312 -0.0410 -0.0214 -0.1279
  857POPE   NH311755   5.362   2.876   5.343 -0.0934  0.0507  0.0877
  857POPE   PO411756   5.109   2.584   5.362  0.2060  0.1592 -0.3231
  857POPE   GL111757   5.350   2.388   5.607 -0.1093 -0.0364 -0.0075
  857POPE   GL211758   5.690   2.256   5.678  0.2531 -0.1079  0.0621
  857POPE   C1A11759   5.305   2.334   6.111  0.0588 -0.2139  0.1249
  857POPE   D2A11760   5.224   2.213   6.422  0.1463  0.3133  0.0763
  857POPE   C3A11761   5.130   2.227   6.825 -0.1441 -0.0323 -0.2340
  857POPE   C4A11762   5.297   2.351   7.314 -0.3164 -0.4423  0.1571
  857POPE   C1B11763   5.786   2.488   6.147  0.2576  0.1029 -0.4658
  857POPE   C2B11764   5.457   2.725   6.441 -0.0311  0.4625  0.0499
  857POPE   C3B11765   5.164   2.674   6.663  0.2089  0.0258  0.2739
  857POPE   C4B11766   5.072   2.694   7.080  0.1374  0.0676 -0.5202
  858POPE   NH311767  15.439   5.150   5.791 -0.0852 -0.1101 -0.0449
  858POPE   PO411768  15.078   5.002   5.741  0.1516  0.1851 -0.0240
  858POPE   GL111769  14.831   5.130   6.072 -0.2003  0.2257  0.1133
  858POPE   GL211770  15.055   5.379   6.206 -0.1427  0.1604 -0.1036
  858POPE   C1A11771  14.814   5.005   6.478 -0.2432  0.2372  0.2221
  858POPE   D2A11772  14.860   4.975   6.903  0.2966 -0.2354  0.0396
  858POPE   C3A11773  14.986   4.701   7.003 -0.0737 -0.3412 -0.3864
  858POPE   C4A11774  15.089   4.508   7.342  0.0834  0.2428 -0.4075
  858POPE   C1B11775  15.295   5.249   6.585 -0.2765 -0.1813 -0.2047
  858POPE   C2B11776  15.221   5.210   7.077 -0.0771 -0.3236  0.1234
  858POPE   C3B11777  15.197   5.022   7.401 -0.1189 -0.1314 -0.1629
  858POPE   C4B11778  15.481   4.980   7.721  0.1924 -0.2643 -0.2104
  859POPE   NH311779   0.223   5.477   5.226  0.0382 -0.1188 -0.3798
  859POPE   PO411780   0.071   5.212   5.489 -0.0436  0.1385 -0.2437
  859POPE   GL111781  -0.030   5.323   5.882  0.0554 -0.2042  0.1970
  859POPE   GL211782  -0.198   5.620   5.939 -0.2778  0.0393 -0.0018
  859POPE   C1A11783   0.264   5.262   6.388 -0.2309  0.1178  0.3157
  859POPE   D2A11784   0.234   5.390   6.713 -0.2198  0.2675  0.0254
  859POPE   C3A11785   0.208   5.818   6.803  0.0537 -0.2355  0.1947
  859POPE   C4A11786   0.237   6.032   7.190 -0.0527  0.0746  0.1831
  859POPE   C1B11787  -0.103   5.581   6.349  0.2253 -0.3629 -0.1561
  859POPE   C2B11788  -0.270   5.395   6.687 -0.0335  0.3392  0.1168
  859POPE   C3B11789  -0.058   5.244   7.105  0.6140 -0.1779 -0.2352
  859POPE   C4B11790   0.305   5.332   7.241 -0.1288 -0.0345 -0.1282
  860POPE   NH311791  15.757  11.582   5.495  0.0941 -0.0518  0.1751
  860POPE   PO411792  15.827  11.174   5.659  0.1530  0.2616  0.1991
  860POPE   GL111793  15.835  11.201   6.039  0.3164 -0.1201  0.1589
  860POPE   GL211794  15.809  11.529   6.051  0.2151  0.0091 -0.1605
  860POPE   C1A11795  16.096  11.290   6.479  0.2591 -0.1041 -0.2156
  860POPE   D2A11796  16.216  11.616   6.810 -0.0719  0.0335 -0.2293
  860POPE   C3A11797  16.181  11.447   7.165  0.1846 -0.2730 -0.0454
  860POPE   C4A11798  16.053  11.470   7.522  0.3205  0.1348 -0.1642
  860POPE   C1B11799  15.637  11.446   6.465  0.1806 -0.0480 -0.0637
  860POPE   C2B11800  15.702  11.428   6.870  0.1693 -0.0966  0.1088
  860POPE   C3B11801  15.676  11.261   7.264 -0.0821 -0.1963 -0.2425
  860POPE   C4B11802  15.727  11.140   7.779  0.2232 -0.1380  0.2126
  861POPE   NH311803   8.929  15.890   5.272 -0.2219 -0.1974 -0.1009
  861POPE   PO411804   8.759  16.150   5.534 -0.0440 -0.2570 -0.2397
  861POPE   GL111805   8.488  16.152   5.965  0.1660 -0.0971  0.0512
  861POPE   GL211806   8.288  15.908   5.981  0.1590  0.1578  0.0239
  861POPE   C1A11807   8.555  16.054   6.395  0.2846 -0.0907 -0.1742
  861POPE   D2A11808   8.703  16.131   6.724 -0.0667 -0.0958 -0.0204
  861POPE   C3A11809   9.003  16.099   7.065  0.3137 -0.1928  0.2929
  861POPE   C4A11810   9.463  16.170   7.321  0.1768  0.1114 -0.1492
  861POPE   C1B11811   7.911  15.873   6.059 -0.1984 -0.1810  0.0716
  861POPE   C2B11812   7.994  15.419   6.223  0.1074  0.1582  0.2425
  861POPE   C3B11813   7.974  15.075   6.624 -0.1176 -0.2197 -0.0671
  861POPE   C4B11814   7.655  14.907   6.453 -0.2345  0.2074 -0.0424
  862POPE   NH311815   7.051  10.839   5.969 -0.0267  0.1057 -0.1089
  862POPE   PO411816   7.088  10.383   6.107  0.0836 -0.1592 -0.0723
  862POPE   GL111817   7.187  10.197   6.423 -0.2488  0.3441 -0.1692
  862POPE   GL211818   7.270  10.403   6.739  0.2589  0.0088 -0.0095
  862POPE   C1A11819   7.485   9.887   6.596 -0.0456  0.0262  0.2971
  862POPE   D2A11820   7.816   9.795   6.798 -0.0763 -0.1942 -0.2123
  862POPE   C3A11821   7.857   9.800   7.279 -0.0076  0.1910  0.2297
  862POPE   C4A11822   8.021  10.119   7.516  0.1039  0.0600 -0.1269
  862POPE   C1B11823   7.133  10.538   7.201  0.4304  0.1518 -0.0129
  862POPE   C2B11824   7.079  10.838   7.615 -0.0501  0.0671 -0.1738
  862POPE   C3B11825   6.988  11.165   7.856  0.1025  0.1126 -0.1690
  862POPE   C4B11826   6.943  11.426   8.277 -0.1182 -0.0967  0.4327
  863POPE   NH311827   4.237  15.813   5.380  0.0453 -0.5556 -0.2828
  863POPE   PO411828   4.376  16.289   5.365  0.2746 -0.3604  0.0482
  863POPE   GL111829   4.207  16.239   5.766  0.1745 -0.2822 -0.0917
  863POPE   GL211830   3.952  16.431   5.936  0.0660  0.1225 -0.1138
  863POPE   C1A11831   4.421  15.929   6.071  0.1786 -0.2108  0.4428
  863POPE   D2A11832   4.724  15.590   6.090 -0.0567  0.0005  0.1063
  863POPE   C3A11833   4.584  15.176   6.391 -0.0430 -0.2074  0.2522
  863POPE   C4A11834   4.898  14.906   6.413 -0.3093  0.0975  0.0530
  863POPE   C1B11835   4.283  16.504   6.209  0.2152 -0.3513  0.2450
  863POPE   C2B11836   4.143  16.516   6.641  0.3135 -0.1635  0.2496
  863POPE   C3B11837   3.931  16.424   6.949 -0.0847 -0.1261 -0.1715
  863POPE   C4B11838   3.828  16.165   7.259  0.2321 -0.2784 -0.0763
  864POPE   NH311839  12.891   3.526   5.613 -0.1126  0.0141 -0.3084
  864POPE   PO411840  13.120   3.136   5.484 -0.1299 -0.0081 -0.0077
  864POPE   GL111841  13.329   3.401   5.828 -0.2726 -0.0509 -0.0973
  864POPE   GL211842  13.309   3.734   5.856 -0.1340  0.0050 -0.4660
  864POPE   C1A11843  13.480   3.486   6.272 -0.2169 -0.1165  0.2910
  864POPE   D2A11844  13.610   3.126   6.506  0.1156 -0.3376 -0.0562
  864POPE   C3A11845  13.532   3.017   6.869 -0.0411 -0.2004 -0.2994
  864POPE   C4A11846  13.749   2.798   7.274  0.0620  0.2333  0.1706
  864POPE   C1B11847  13.142   3.840   6.293  0.0164 -0.2479  0.4400
  864POPE   C2B11848  13.082   3.979   6.601  0.2346  0.2479  0.0543
  864POPE   C3B11849  13.292   4.138   6.981  0.4170 -0.0705  0.0532
  864POPE   C4B11850  13.045   4.281   7.404 -0.0973  0.0857  0.2435
  865POPE   NH311851  18.666   1.471   5.264  0.0250  0.0553  0.1305
  865POPE   PO411852  18.329   1.770   5.279 -0.0623  0.2264  0.1052
  865POPE   GL111853  18.501   1.574   5.786 -0.1720  0.0846  0.1002
  865POPE   GL211854  18.303   1.373   5.922  0.1528  0.0800 -0.2007
  865POPE   C1A11855  18.603   1.654   6.192  0.0534 -0.0340 -0.2655
  865POPE   D2A11856  18.487   1.614   6.614  0.1333  0.0909  0.0890
  865POPE   C3A11857  18.823   1.654   6.920 -0.0740  0.3856 -0.0635
  865POPE   C4A11858  18.881   1.663   7.330  0.1337 -0.1938 -0.1688
  865POPE   C1B11859  18.170   1.334   6.390 -0.2955  0.0195 -0.0840
  865POPE   C2B11860  17.888   1.205   6.721  0.1135  0.1743 -0.1695
  865POPE   C3B11861  17.602   1.282   7.082  0.0677 -0.0018 -0.1255
  865POPE   C4B11862  17.606   1.209   7.450 -0.3038 -0.2145 -0.1588
  866POPE   NH311863   1.581  15.063   5.961  0.0307 -0.0966 -0.0587
  866POPE   PO411864   1.162  14.840   5.744  0.1229 -0.1441  0.5107
  866POPE   GL111865   1.091  14.851   6.207  0.0990  0.0024 -0.5183
  866POPE   GL211866   1.155  15.123   6.294  0.3105 -0.2401  0.0542
  866POPE   C1A11867   1.371  14.857   6.662 -0.3285  0.1854 -0.4539
  866POPE   D2A11868   1.665  14.586   6.768  0.1313 -0.1332 -0.5277
  866POPE   C3A11869   1.794  14.639   7.225 -0.0081  0.2398 -0.0024
  866POPE   C4A11870   1.941  14.832   7.627 -0.1544 -0.2344  0.2866
  866POPE   C1B11871   0.852  15.127   6.635  0.0472 -0.3290 -0.2437
  866POPE   C2B11872   0.596  15.067   7.059  0.0526  0.1030  0.2115
  866POPE   C3B11873   0.336  14.993   7.457  0.3532 -0.1498  0.1179
  866POPE   C4B11874   0.477  15.203   7.799 -0.2611  0.0313 -0.1313
  867POPE   NH311875   2.169   8.137   5.880  0.1163 -0.2965  0.0913
  867POPE   PO411876   2.436   8.447   6.172 -0.4521 -0.0510  0.1813
  867POPE   GL111877   2.365   8.767   6.400  0.0485  0.0187 -0.0396
  867POPE   GL211878   2.354   9.053   6.309 -0.1812 -0.1649  0.0453
  867POPE   C1A11879   2.357   9.030   6.843  0.1081  0.0234 -0.0095
  867POPE   D2A11880   2.038   9.068   7.029  0.2165 -0.2887  0.0232
  867POPE   C3A11881   1.854   8.948   7.394 -0.1759 -0.1177  0.1062
  867POPE   C4A11882   1.691   8.624   7.406  0.2444 -0.0689 -0.2488
  867POPE   C1B11883   2.723   9.244   6.562  0.2696  0.1856 -0.1244
  867POPE   C2B11884   3.132   9.214   6.690 -0.1777  0.0933  0.1894
  867POPE   C3B11885   3.308   9.137   7.075  0.0730  0.2195  0.2973
  867POPE   C4B11886   3.275   9.309   7.466  0.0214  0.0591  0.1883
  868POPE   NH311887  17.059   3.147   5.656 -0.2873  0.2570 -0.0065
  868POPE   PO411888  17.439   2.895   5.484  0.2356 -0.0529  0.2664
  868POPE   GL111889  17.384   2.906   5.893 -0.2291 -0.0293  0.2071
  868POPE   GL211890  17.549   2.585   5.798 -0.1464 -0.1408  0.1622
  868POPE   C1A11891  17.172   2.704   6.155  0.4555  0.0993 -0.2298
  868POPE   D2A11892  17.273   2.497   6.475 -0.1097  0.2303 -0.1014
  868POPE   C3A11893  17.352   2.513   6.837  0.0955 -0.0454 -0.0433
  868POPE   C4A11894  17.536   2.511   7.295  0.2202  0.1725 -0.0328
  868POPE   C1B11895  17.669   2.739   6.219 -0.1076 -0.1416 -0.0061
  868POPE   C2B11896  17.577   2.939   6.582  0.1495 -0.1012 -0.1003
  868POPE   C3B11897  17.614   2.937   6.969  0.3774  0.0580  0.0520
  868POPE   C4B11898  17.797   2.865   7.553 -0.3174 -0.3167  0.1305
  869POPE   NH311899   7.578  10.337   6.113  0.1692 -0.2565 -0.1710
  869POPE   PO411900   7.485  10.692   6.433  0.1410 -0.1563 -0.1420
  869POPE   GL111901   7.856  10.830   6.686  0.0746 -0.0592  0.2354
  869POPE   GL211902   7.936  11.059   6.828 -0.0673 -0.2897  0.0669
  869POPE   C1A11903   8.069  10.568   7.033  0.1245 -0.1620 -0.1425
  869POPE   D2A11904   8.244  10.544   7.485 -0.0262 -0.0566  0.0716
  869POPE   C3A11905   8.669  10.435   7.597  0.1464  0.1137 -0.2037
  869POPE   C4A11906   9.046  10.417   7.893  0.0543  0.2067 -0.3828
  869POPE   C1B11907   8.056  11.113   7.270  0.0443 -0.0181  0.1378
  869POPE   C2B11908   7.984  11.140   7.630  0.0888  0.0001 -0.1179
  869POPE   C3B11909   7.943  11.189   7.979  0.1831  0.1482 -0.1702
  869POPE   C4B11910   7.720  10.870   8.267 -0.1453  0.0751 -0.1332
  870POPE   NH311911   5.856   6.700   5.793  0.1125 -0.0985 -0.0852
  870POPE   PO411912   5.480   6.453   5.810  0.1119 -0.0510 -0.0606
  870POPE   GL111913   5.638   6.156   6.134  0.1240  0.0152 -0.1661
  870POPE   GL211914   5.862   6.389   6.278  0.0657 -0.3582  0.2584
  870POPE   C1A11915   5.252   6.010   6.419 -0.1339 -0.0962 -0.1296
  870POPE   D2A11916   4.950   5.959   6.701  0.0245 -0.0559 -0.1099
  870POPE   C3A11917   4.804   6.046   7.103 -0.3467  0.0481 -0.3145
  870POPE   C4A11918   4.790   6.145   7.529 -0.3201  0.1015 -0.1131
  870POPE   C1B11919   6.072   6.378   6.755  0.1400  0.3224 -0.3093
  870POPE   C2B11920   5.851   6.490   7.069  0.0532  0.2328  0.0256
  870POPE   C3B11921   5.545   6.603   7.527 -0.1817 -0.2339 -0.0392
  870POPE   C4B11922   5.404   6.611   7.975  0.3640 -0.1023  0.2450
  871POPE   NH311923  10.419   2.765   5.734 -0.0234 -0.0382  0.0946
  871POPE   PO411924  10.874   2.537   5.657  0.0761  0.0449 -0.3341
  871POPE   GL111925  10.826   2.851   6.000  0.2060 -0.0799 -0.1660
  871POPE   GL211926  11.054   2.810   6.272 -0.0624 -0.0315 -0.0457
  871POPE   C1A11927  10.585   3.027   6.383 -0.0855  0.1776  0.0237
  871POPE   D2A11928  10.265   3.171   6.661 -0.0064 -0.0657 -0.0329
  871POPE   C3A11929  10.403   2.926   7.023 -0.2728  0.1816  0.1204
  871POPE   C4A11930  10.607   2.586   7.078 -0.0518 -0.0468 -0.0526
  871POPE   C1B11931  10.949   2.806   6.723  0.0829  0.1428 -0.1313
  871POPE   C2B11932  11.003   2.857   7.037  0.1222  0.3428  0.0775
  871POPE   C3B11933  10.820   3.012   7.403  0.1008  0.0384  0.0684
  871POPE   C4B11934  10.979   3.033   7.870  0.1511 -0.0615 -0.1238
  872YOPE   NH311935   5.584  15.450   5.756 -0.0134 -0.3154  0.3992
  872YOPE   PO411936   5.128  15.453   5.794  0.0924 -0.0515  0.1944
  872YOPE   GL111937   5.172  15.495   6.223 -0.0132 -0.0547 -0.0060
  872YOPE   GL211938   5.279  15.806   6.317 -0.0947  0.2915 -0.2646
  872YOPE   C1A11939   5.010  15.449   6.579  0.2786  0.3236  0.2030
  872YOPE   D2A11940   4.985  15.419   7.014 -0.6923 -0.1880  0.0037
  872YOPE   C3A11941   4.717  15.484   7.211 -0.3495 -0.0879 -0.1534
  872YOPE   C4A11942   4.835  15.781   7.541  0.2114 -0.0729 -0.0555
  872YOPE   C1B11943   5.363  15.821   6.751  0.2732 -0.0504  0.1012
  872YOPE   C2B11944   5.217  15.827   7.242 -0.1772  0.0124  0.1250
  872YOPE   D3B11945   5.392  15.765   7.596  0.0115 -0.3028 -0.0947
  872YOPE   C4B11946   5.619  15.909   7.992 -0.1420  0.0418  0.0537
  873YOPE   NH311947  13.960  15.100   5.696 -0.0350  0.1799 -0.0467
  873YOPE   PO411948  13.589  15.312   5.505  0.0944  0.1395 -0.3456
  873YOPE   GL111949  13.661  15.548   5.866  0.0480 -0.2233 -0.2075
  873YOPE   GL211950  13.740  15.291   6.128  0.0438 -0.3890 -0.0618
  873YOPE   C1A11951  13.409  15.746   6.194 -0.0064  0.0299 -0.0079
  873YOPE   D2A11952  13.062  15.965   6.234 -0.1758 -0.0901 -0.2777
  873YOPE   C3A11953  12.990  16.345   6.451  0.0050  0.0596  0.0004
  873YOPE   C4A11954  12.788  16.828   6.595 -0.1860 -0.1415 -0.3468
  873YOPE   C1B11955  14.173  15.348   6.352  0.1049  0.2948 -0.0299
  873YOPE   C2B11956  14.413  15.626   6.526  0.1090 -0.1986  0.1437
  873YOPE   D3B11957  14.531  15.691   6.863  0.1537  0.4710  0.1837
  873YOPE   C4B11958  14.532  15.978   7.125  0.0520  0.1083 -0.2921
  874YOPE   NH311959  18.693   4.170   4.876 -0.0115 -0.0500  0.3549
  874YOPE   PO411960  19.023   3.934   5.056 -0.2789  0.4424  0.0134
  874YOPE   GL111961  19.345   3.947   5.386 -0.1429  0.1324 -0.0471
  874YOPE   GL211962  19.236   3.720   5.671  0.1594  0.0642 -0.1106
  874YOPE   C1A11963  19.520   4.181   5.794  0.3971 -0.3906  0.1108
  874YOPE   D2A11964  19.523   4.378   6.240 -0.2066 -0.1034  0.2902
  874YOPE   C3A11965  19.902   4.664   6.291  0.0016 -0.1731  0.0045
  874YOPE   C4A11966  20.268   4.663   6.547  0.2537  0.1783  0.1287
  874YOPE   C1B11967  19.071   3.940   6.059  0.0061 -0.1404  0.1381
  874YOPE   C2B11968  19.071   4.265   6.480  0.2525  0.2503 -0.1518
  874YOPE   D3B11969  19.092   4.420   6.883 -0.1234  0.1306 -0.0950
  874YOPE   C4B11970  19.163   4.348   7.409 -0.0017  0.1133 -0.3134
  875YOPE   NH311971  12.707  10.678   5.103  0.1461 -0.0147  0.0894
  875YOPE   PO411972  12.652  10.396   5.475  0.1011  0.1320  0.0819
  875YOPE   GL111973  12.548  10.279   5.854  0.2057  0.1704  0.2227
  875YOPE   GL211974  12.656  10.078   6.025  0.3809  0.0600  0.2691
  875YOPE   C1A11975  12.460  10.533   6.205 -0.3575 -0.0202 -0.0046
  875YOPE   D2A11976  12.593  10.649   6.656  0.2123  0.2885  0.0249
  875YOPE   C3A11977  12.496  10.998   6.961 -0.3848  0.0148  0.2461
  875YOPE   C4A11978  12.288  11.432   6.920  0.0541 -0.0193  0.2035
  875YOPE   C1B11979  12.753  10.066   6.580 -0.2238 -0.3622 -0.0008
  875YOPE   C2B11980  12.664  10.041   6.983 -0.0090  0.2556  0.0742
  875YOPE   D3B11981  12.490  10.230   7.306 -0.0663 -0.3103  0.0740
  875YOPE   C4B11982  12.215  10.192   7.721  0.1575  0.3520 -0.1140
  876YOPE   NH311983   5.770  10.139   6.083  0.1566 -0.2152 -0.1422
  876YOPE   PO411984   5.947   9.770   5.994 -0.3810 -0.1048 -0.0623
  876YOPE   GL111985   5.989   9.756   6.373  0.2720  0.0267  0.1325
  876YOPE   GL211986   6.204   9.993   6.436 -0.2879 -0.0277  0.1220
  876YOPE   C1A11987   6.060   9.347   6.601  0.0676  0.2173  0.0468
  876YOPE   D2A11988   5.818   9.224   6.890 -0.1543  0.1762  0.0145
  876YOPE   C3A11989   5.557   9.498   7.206  0.2849 -0.0030  0.5404
  876YOPE   C4A11990   5.710   9.448   7.621  0.0686  0.1595  0.1692
  876YOPE   C1B11991   6.481   9.723   6.565  0.0298  0.1233  0.1095
  876YOPE   C2B11992   6.636   9.691   6.967 -0.0349 -0.2680 -0.0876
  876YOPE   D3B11993   6.500   9.630   7.357 -0.0150  0.0403 -0.4581
  876YOPE   C4B11994   6.149   9.848   7.596  0.1544  0.1952  0.0967
  877YOPE   NH311995  13.593  13.967   5.759  0.3593  0.2421  0.3858
  877YOPE   PO411996  14.025  14.248   5.652  0.2654 -0.1969 -0.1964
  877YOPE   GL111997  14.067  14.143   6.069  0.3343 -0.1022 -0.0526
  877YOPE   GL211998  13.879  14.318   6.262 -0.0867  0.1410  0.0930
  877YOPE   C1A11999  14.062  13.840   6.340 -0.2286 -0.0632  0.1093
  877YOPE   D2A12000  14.300  13.719   6.696  0.1986  0.1253  0.1467
  877YOPE   C3A12001  14.443  14.052   6.953  0.0173  0.3006  0.0276
  877YOPE   C4A12002  14.419  14.460   7.163 -0.0183 -0.3600 -0.2787
  877YOPE   C1B12003  14.034  14.365   6.642  0.2182  0.1617  0.0086
  877YOPE   C2B12004  13.676  14.490   7.007 -0.1559  0.1666 -0.3947
  877YOPE   D3B12005  13.629  14.812   7.343  0.1711 -0.2352  0.1382
  877YOPE   C4B12006  13.374  14.744   7.716  0.2120  0.0703 -0.2277
  878YOPE   NH312007  11.516   0.985   5.796  0.0164 -0.1387  0.1337
  878YOPE   PO412008  11.883   0.696   5.675  0.3537  0.0460  0.0885
  878YOPE   GL112009  11.887   0.840   6.101  0.1443 -0.1222  0.1569
  878YOPE   GL212010  12.193   0.776   6.142  0.0750  0.0475  0.1958
  878YOPE   C1A12011  11.885   1.041   6.460  0.1306 -0.0017  0.0806
  878YOPE   D2A12012  12.017   1.270   6.788 -0.0787  0.0100  0.1435
  878YOPE   C3A12013  11.818   1.639   6.953  0.0570 -0.1262 -0.2090
  878YOPE   C4A12014  11.589   1.727   7.303  0.2382 -0.0688 -0.0274
  878YOPE   C1B12015  12.257   0.746   6.630  0.1215  0.1414  0.1206
  878YOPE   C2B12016  12.111   0.839   7.004  0.1658 -0.2037 -0.0692
  878YOPE   D3B12017  11.992   0.800   7.389 -0.1454 -0.1814  0.0368
  878YOPE   C4B12018  11.549   0.951   7.472  0.2583  0.0763  0.1924
  879YOPE   NH312019   1.058   9.669   5.312 -0.1522 -0.0115  0.1177
  879YOPE   PO412020   1.166   9.276   5.639  0.3931  0.1379  0.0581
  879YOPE   GL112021   1.155   9.333   6.158 -0.0526  0.3496  0.2079
  879YOPE   GL212022   0.941   9.331   6.218  0.0177 -0.2557  0.0411
  879YOPE   C1A12023   1.291   9.342   6.590 -0.1653 -0.0241  0.0651
  879YOPE   D2A12024   1.173   9.363   6.994  0.0026 -0.2076  0.0565
  879YOPE   C3A12025   1.287   9.437   7.376  0.3300 -0.0385 -0.0359
  879YOPE   C4A12026   1.232   9.652   7.754 -0.1173  0.1164  0.1384
  879YOPE   C1B12027   0.848   8.965   6.371 -0.0926 -0.2195  0.0364
  879YOPE   C2B12028   0.925   9.013   6.826 -0.1458 -0.1230 -0.1051
  879YOPE   D3B12029   0.625   8.998   7.162 -0.3276 -0.1074  0.1128
  879YOPE   C4B12030   0.608   8.843   7.540  0.1051  0.1273 -0.2493
  880YOPE   NH312031   5.444  17.690   5.546 -0.1068  0.0978  0.0633
  880YOPE   PO412032   5.774  17.322   5.589 -0.0387 -0.2319 -0.2593
  880YOPE   GL112033   5.649  17.561   5.993 -0.1633  0.1763  0.0344
  880YOPE   GL212034   5.936  17.561   6.280  0.2385 -0.3866  0.1617
  880YOPE   C1A12035   5.486  17.447   6.429  0.1450 -0.0316  0.0646
  880YOPE   D2A12036   5.660  17.446   6.771  0.0162 -0.1274  0.1671
  880YOPE   C3A12037   5.542  17.333   7.190  0.0229  0.0493 -0.2423
  880YOPE   C4A12038   5.365  17.400   7.572  0.1934  0.0570 -0.1903
  880YOPE   C1B12039   6.085  17.922   6.483  0.2897  0.2632 -0.0650
  880YOPE   C2B12040   6.295  18.080   6.686 -0.0069 -0.2949  0.2489
  880YOPE   D3B12041   6.173  18.218   7.097  0.0469  0.3063 -0.0533
  880YOPE   C4B12042   6.276  17.896   7.458  0.0885 -0.1136  0.2219
  881YOPE   NH312043  17.407  10.446   5.506  0.0326  0.0384  0.1757
  881YOPE   PO412044  17.002  10.252   5.589  0.0142  0.0822 -0.2483
  881YOPE   GL112045  16.916  10.144   5.952 -0.0469  0.1145 -0.1484
  881YOPE   GL212046  17.243  10.018   6.088 -0.1998  0.1314  0.1401
  881YOPE   C1A12047  16.706  10.135   6.230 -0.1523 -0.4725  0.1384
  881YOPE   D2A12048  16.593  10.345   6.596  0.1680 -0.1742 -0.0033
  881YOPE   C3A12049  16.835  10.448   7.010 -0.0497  0.1004 -0.1849
  881YOPE   C4A12050  16.672  10.602   7.434 -0.1878  0.1842 -0.0265
  881YOPE   C1B12051  17.128  10.173   6.512 -0.1986 -0.2502  0.0357
  881YOPE   C2B12052  16.908   9.981   6.693 -0.0710  0.0225  0.0829
  881YOPE   D3B12053  17.019   9.813   7.125  0.0988  0.2646 -0.1771
  881YOPE   C4B12054  16.778   9.639   7.370  0.1063  0.0992 -0.0551
  882YOPE   NH312055   8.985  13.457   5.794 -0.0922  0.0233  0.1604
  882YOPE   PO412056   8.738  13.101   5.662  0.1173 -0.0507 -0.0577
  882YOPE   GL112057   8.784  13.066   6.143 -0.1678 -0.0609  0.2726
  882YOPE   GL212058   8.611  13.310   6.232  0.0566 -0.1491 -0.0944
  882YOPE   C1A12059   8.939  13.047   6.609  0.2534 -0.1799 -0.0246
  882YOPE   D2A12060   8.884  13.255   6.989 -0.3957 -0.1630 -0.1218
  882YOPE   C3A12061   9.079  13.007   7.335  0.1791  0.0330 -0.0371
  882YOPE   C4A12062   9.219  12.602   7.543 -0.2240  0.0588 -0.1234
  882YOPE   C1B12063   8.351  13.375   6.608  0.0983 -0.2067  0.0592
  882YOPE   C2B12064   8.323  13.475   7.059 -0.0432 -0.1669  0.0780
  882YOPE   D3B12065   8.092  13.436   7.388 -0.1442  0.2421 -0.0561
  882YOPE   C4B12066   7.870  13.389   7.695 -0.3750  0.0612 -0.1918
  883YOPE   NH312067  17.999  10.784   5.486 -0.1789 -0.2271 -0.3617
  883YOPE   PO412068  17.929  10.520   5.659  0.1658  0.1670 -0.0950
  883YOPE   GL112069  17.650  10.401   5.987 -0.0256 -0.0362  0.0509
  883YOPE   GL212070  17.748  10.692   6.165  0.2589  0.2192  0.0465
  883YOPE   C1A12071  17.598  10.243   6.393  0.2470 -0.3707  0.1254
  883YOPE   D2A12072  17.675  10.266   6.843 -0.0881 -0.0482 -0.1202
  883YOPE   C3A12073  17.687  10.537   7.178 -0.1810  0.1181 -0.1323
  883YOPE   C4A12074  17.781  10.929   7.448  0.0171 -0.0887  0.1517
  883YOPE   C1B12075  17.255  10.591   6.273  0.2539 -0.1974 -0.0127
  883YOPE   C2B12076  16.957  10.884   6.575  0.2402  0.0667  0.1666
  883YOPE   D3B12077  16.493  10.888   6.634 -0.4694 -0.3647  0.0657
  883YOPE   C4B12078  16.176  11.005   6.967 -0.1049  0.1559 -0.2641
  884YOPE   NH312079  13.597   2.276   5.372 -0.0394  0.0485 -0.2980
  884YOPE   PO412080  13.882   2.048   5.451 -0.1704  0.1680  0.1067
  884YOPE   GL112081  14.031   1.857   5.774 -0.1291  0.2035  0.0531
  884YOPE   GL212082  14.127   2.125   5.866  0.2330  0.0802 -0.0240
  884YOPE   C1A12083  13.900   1.773   6.145 -0.4044  0.2444 -0.1296
  884YOPE   D2A12084  13.724   1.338   6.185 -0.3141 -0.3373 -0.0164
  884YOPE   C3A12085  13.563   1.154   6.642  0.0101 -0.0422 -0.1328
  884YOPE   C4A12086  13.205   0.920   6.764  0.0070  0.1986 -0.1693
  884YOPE   C1B12087  14.188   2.380   6.240  0.0081  0.1100 -0.0725
  884YOPE   C2B12088  14.131   2.699   6.540  0.0504 -0.0081  0.0504
  884YOPE   D3B12089  14.131   2.634   6.932 -0.2005  0.1173  0.0509
  884YOPE   C4B12090  14.129   2.364   7.226 -0.1458  0.5598  0.1023
  885YOPE   NH312091  18.300  10.213   5.750 -0.1008  0.0871  0.3238
  885YOPE   PO412092  18.363   9.841   5.709  0.2701 -0.2938  0.2168
  885YOPE   GL112093  18.095   9.706   6.021 -0.0187  0.0916 -0.2475
  885YOPE   GL212094  17.820   9.849   6.147  0.3392  0.0208 -0.0348
  885YOPE   C1A12095  18.311   9.788   6.445  0.2371  0.1175 -0.0997
  885YOPE   D2A12096  18.570   9.911   6.831  0.3726 -0.0985  0.0656
  885YOPE   C3A12097  18.817   9.770   7.138 -0.0436  0.0866 -0.0599
  885YOPE   C4A12098  18.932   9.962   7.560  0.1875 -0.0846  0.0905
  885YOPE   C1B12099  17.841   9.843   6.574  0.0868  0.1956 -0.2608
  885YOPE   C2B12100  18.063   9.907   6.892  0.3835 -0.1972  0.0032
  885YOPE   D3B12101  17.886  10.110   7.337 -0.0432 -0.0066  0.1236
  885YOPE   C4B12102  17.631  10.217   7.691  0.0547 -0.1175  0.1933
  886YOPE   NH312103  13.267   1.335   5.413  0.1435  0.0551 -0.0022
  886YOPE   PO412104  13.324   1.849   5.433  0.0548  0.2885  0.1078
  886YOPE   GL112105  13.134   1.832   5.854 -0.1409  0.1293  0.0873
  886YOPE   GL212106  12.866   1.943   6.079  0.3562  0.1274  0.0271
  886YOPE   C1A12107  13.379   1.879   6.212 -0.0943  0.1883  0.0705
  886YOPE   D2A12108  13.573   1.719   6.577 -0.1558  0.0878 -0.1232
  886YOPE   C3A12109  13.592   1.545   7.042 -0.2837  0.3986 -0.0569
  886YOPE   C4A12110  13.502   1.105   7.154  0.2764 -0.1093  0.4173
  886YOPE   C1B12111  12.758   1.896   6.497 -0.0449  0.1777 -0.1922
  886YOPE   C2B12112  12.772   1.920   7.015  0.0198  0.0899  0.0445
  886YOPE   D3B12113  12.645   1.751   7.337 -0.2562 -0.2512 -0.4269
  886YOPE   C4B12114  12.398   1.572   7.686 -0.1359  0.1995  0.0541
  887YOPE   NH312115   3.198  16.355   5.722 -0.0417 -0.1744  0.1385
  887YOPE   PO412116   3.299  15.879   5.691 -0.3315 -0.2905 -0.0729
  887YOPE   GL112117   3.337  15.966   6.037  0.2367 -0.0105 -0.0144
  887YOPE   GL212118   3.525  16.187   6.027  0.0143 -0.1263 -0.2005
  887YOPE   C1A12119   3.172  16.035   6.481  0.0925  0.1015  0.2266
  887YOPE   D2A12120   2.932  16.034   6.818  0.1191  0.3319  0.0384
  887YOPE   C3A12121   3.019  15.732   7.288  0.2769 -0.2874 -0.1407
  887YOPE   C4A12122   3.281  15.573   7.574  0.1690  0.0352  0.2266
  887YOPE   C1B12123   3.701  16.238   6.512  0.1559 -0.1613  0.1962
  887YOPE   C2B12124   3.420  16.189   6.894  0.4496 -0.1089 -0.0542
  887YOPE   D3B12125   3.185  16.313   7.272  0.1967 -0.0037  0.1213
  887YOPE   C4B12126   3.065  16.512   7.596  0.0081  0.0608  0.0245
  888YOPE   NH312127  12.004   6.804   5.918 -0.2579  0.0242  0.0102
  888YOPE   PO412128  11.805   7.137   5.796 -0.0854  0.0766 -0.0179
  888YOPE   GL112129  12.137   7.367   6.029 -0.2401  0.0668 -0.3210
  888YOPE   GL212130  12.347   7.083   6.140  0.0339  0.0318 -0.0566
  888YOPE   C1A12131  12.468   7.469   6.474  0.0963  0.1035  0.3449
  888YOPE   D2A12132  12.512   7.670   6.865 -0.0122 -0.1217 -0.0058
  888YOPE   C3A12133  12.230   7.999   6.928 -0.1489 -0.1060  0.1370
  888YOPE   C4A12134  11.852   8.136   6.612  0.0426 -0.1839 -0.0785
  888YOPE   C1B12135  12.417   6.881   6.587  0.2392  0.1540 -0.1079
  888YOPE   C2B12136  12.495   6.625   6.853  0.1121 -0.1494 -0.0419
  888YOPE   D3B12137  12.525   6.519   7.254 -0.1960 -0.0177 -0.2419
  888YOPE   C4B12138  12.602   6.805   7.695  0.1101  0.0485 -0.0356
  889YOPE   NH312139  15.695   1.900   5.472 -0.3908  0.2764 -0.0725
  889YOPE   PO412140  15.286   2.101   5.540  0.0782  0.2568  0.0168
  889YOPE   GL112141  15.298   2.121   5.979 -0.1984  0.2355  0.2145
  889YOPE   GL212142  15.609   1.882   6.138 -0.0061  0.4121  0.0224
  889YOPE   C1A12143  14.984   1.960   6.366 -0.0132 -0.1230  0.2534
  889YOPE   D2A12144  14.723   1.741   6.625 -0.0271  0.0759 -0.0656
  889YOPE   C3A12145  14.400   1.800   6.899  0.0181 -0.2727 -0.1166
  889YOPE   C4A12146  14.157   1.729   7.149  0.0785  0.1078 -0.1292
  889YOPE   C1B12147  15.441   1.942   6.529 -0.1384  0.1266 -0.1300
  889YOPE   C2B12148  15.306   1.834   6.962  0.0716  0.2154  0.0858
  889YOPE   D3B12149  15.573   1.862   7.374  0.0835  0.0940  0.0642
  889YOPE   C4B12150  15.959   1.754   7.648 -0.0174  0.1662  0.3039
  890YOPE   NH312151  13.467   0.221   5.320  0.1492  0.2574  0.2273
  890YOPE   PO412152  13.450   0.047   5.658 -0.2338 -0.1188 -0.1271
  890YOPE   GL112153  13.474   0.407   5.879  0.3166  0.0932  0.0883
  890YOPE   GL212154  13.776   0.452   5.821  0.1137  0.0166  0.0102
  890YOPE   C1A12155  13.203   0.651   6.193 -0.1233  0.1739 -0.0949
  890YOPE   D2A12156  12.865   0.806   6.388  0.1048 -0.0725 -0.0392
  890YOPE   C3A12157  12.614   0.625   6.389 -0.4233  0.3326  0.2134
  890YOPE   C4A12158  12.524   0.296   6.689  0.0673 -0.0439 -0.2903
  890YOPE   C1B12159  13.750   0.422   6.268  0.3135  0.0809  0.1345
  890YOPE   C2B12160  13.688   0.184   6.673  0.0518  0.1414 -0.3253
  890YOPE   D3B12161  13.852  -0.034   7.033  0.3357 -0.0908  0.1194
  890YOPE   C4B12162  13.682  -0.182   7.428  0.1078  0.0346 -0.1339
  891YOPE   NH312163   6.022   2.134   5.247 -0.4943  0.1946 -0.0891
  891YOPE   PO412164   6.269   2.072   5.515  0.0139 -0.1845  0.0229
  891YOPE   GL112165   6.530   1.975   5.906  0.3644  0.0224 -0.3658
  891YOPE   GL212166   6.814   2.202   5.951  0.0182 -0.0910  0.0209
  891YOPE   C1A12167   6.310   1.943   6.378  0.0557 -0.6700  0.0383
  891YOPE   D2A12168   6.404   1.903   6.753  0.4595 -0.1926  0.0975
  891YOPE   C3A12169   6.618   1.986   7.046  0.0550 -0.0670  0.0600
  891YOPE   C4A12170   6.727   1.795   7.379  0.4549  0.3501 -0.1811
  891YOPE   C1B12171   6.827   2.192   6.448 -0.1610  0.0385 -0.0697
  891YOPE   C2B12172   6.882   2.358   6.845 -0.0053  0.1030 -0.3758
  891YOPE   D3B12173   6.741   2.445   7.316  0.3303 -0.0275  0.3380
  891YOPE   C4B12174   6.428   2.488   7.667  0.0324 -0.1148 -0.1456
  892YOPE   NH312175  12.081   2.221   5.577  0.0025 -0.1443  0.3979
  892YOPE   PO412176  11.767   2.483   5.752  0.0806  0.0371 -0.2094
  892YOPE   GL112177  11.747   2.790   5.967 -0.0010  0.0400  0.1657
  892YOPE   GL212178  11.975   2.840   6.209 -0.2706  0.2117 -0.2200
  892YOPE   C1A12179  11.487   3.083   6.331  0.0290 -0.0647 -0.0131
  892YOPE   D2A12180  11.391   3.016   6.686  0.3522 -0.1988  0.2547
  892YOPE   C3A12181  11.234   3.360   6.954  0.1119  0.0337 -0.2485
  892YOPE   C4A12182  11.216   3.341   7.506 -0.0884 -0.1192  0.2121
  892YOPE   C1B12183  12.077   2.812   6.487  0.0459  0.0344  0.0249
  892YOPE   C2B12184  12.114   2.562   6.869 -0.0406  0.0498 -0.0033
  892YOPE   D3B12185  12.408   2.440   7.134 -0.1196 -0.3238 -0.0607
  892YOPE   C4B12186  12.512   2.324   7.551  0.0394 -0.0804 -0.2617
  893YOPE   NH312187   0.122  11.409   5.674 -0.0628 -0.2882  0.0673
  893YOPE   PO412188  -0.210  11.693   5.704 -0.1019  0.1039 -0.1620
  893YOPE   GL112189  -0.134  11.698   6.090 -0.0425  0.3452 -0.0609
  893YOPE   GL212190  -0.209  11.280   6.207  0.0464 -0.1623 -0.3782
  893YOPE   C1A12191   0.068  12.009   6.375 -0.1199 -0.0625  0.2104
  893YOPE   D2A12192   0.271  12.102   6.746 -0.1274 -0.0618  0.1029
  893YOPE   C3A12193   0.352  11.852   7.089  0.0351  0.2723 -0.3028
  893YOPE   C4A12194   0.689  11.513   7.227 -0.1617 -0.0749  0.1664
  893YOPE   C1B12195  -0.316  11.257   6.593 -0.0796 -0.5514 -0.0507
  893YOPE   C2B12196  -0.147  11.297   7.033  0.0983 -0.0232  0.0836
  893YOPE   D3B12197  -0.040  11.613   7.232  0.0562  0.0159 -0.0410
  893YOPE   C4B12198   0.220  11.675   7.537 -0.0906 -0.2518 -0.2562
  894YOPE   NH312199  15.169   2.589   5.551  0.0154 -0.0023  0.0217
  894YOPE   PO412200  14.678   2.831   5.569 -0.2506 -0.0324  0.1306
  894YOPE   GL112201  14.872   2.791   5.973 -0.5186 -0.0179  0.1580
  894YOPE   GL212202  15.260   2.602   6.034  0.0858 -0.4021  0.2896
  894YOPE   C1A12203  14.734   2.461   6.317  0.0844  0.1328 -0.1615
  894YOPE   D2A12204  14.503   2.283   6.630 -0.2126 -0.0111  0.0120
  894YOPE   C3A12205  14.628   2.512   6.934 -0.3862 -0.1019 -0.2160
  894YOPE   C4A12206  14.496   2.788   7.298 -0.2588  0.0334 -0.1093
  894YOPE   C1B12207  15.214   2.445   6.382  0.3737  0.1182 -0.2631
  894YOPE   C2B12208  15.088   2.252   6.816  0.0414 -0.1215  0.0197
  894YOPE   D3B12209  14.797   2.035   7.067 -0.0186  0.2338 -0.2365
  894YOPE   C4B12210  14.549   1.902   7.394 -0.0711  0.0462 -0.1903
  895YOPE   NH312211  12.362   0.991   5.538 -0.1094 -0.0574 -0.1390
  895YOPE   PO412212  12.003   1.198   5.612 -0.0715 -0.1652  0.2954
  895YOPE   GL112213  12.240   1.270   5.938  0.1477  0.4960 -0.2107
  895YOPE   GL212214  11.984   1.324   6.076 -0.0077  0.0071  0.2390
  895YOPE   C1A12215  12.416   1.199   6.362  0.0150 -0.2606  0.2715
  895YOPE   D2A12216  12.573   1.051   6.771  0.0950  0.2301  0.1180
  895YOPE   C3A12217  12.600   0.726   6.931  0.1637 -0.0120  0.2123
  895YOPE   C4A12218  12.624   0.351   7.230 -0.1338  0.0561  0.1132
  895YOPE   C1B12219  11.676   1.480   6.301 -0.4606  0.0348  0.0388
  895YOPE   C2B12220  11.455   1.451   6.729 -0.2089  0.1389 -0.0339
  895YOPE   D3B12221  11.325   1.367   7.115 -0.4952  0.0212 -0.2576
  895YOPE   C4B12222  11.068   1.139   7.353  0.3354  0.0722  0.0377
  896YOPE   NH312223  16.382  12.417   5.684 -0.1601  0.0450 -0.0075
  896YOPE   PO412224  16.053  12.151   5.535 -0.1486  0.0047  0.4808
  896YOPE   GL112225  16.150  12.169   6.029 -0.0416 -0.0509 -0.2735
  896YOPE   GL212226  16.444  11.868   6.165  0.1398  0.0134 -0.2179
  896YOPE   C1A12227  15.913  11.900   6.392 -0.1355  0.1121 -0.1001
  896YOPE   D2A12228  15.644  11.946   6.769 -0.3455  0.2695 -0.1003
  896YOPE   C3A12229  15.685  12.307   7.062  0.4779  0.0019 -0.0186
  896YOPE   C4A12230  15.417  12.421   7.346  0.0710  0.1296 -0.3382
  896YOPE   C1B12231  16.856  11.881   6.389  0.1627 -0.0998  0.2690
  896YOPE   C2B12232  17.140  11.823   6.648  0.3475 -0.0058 -0.2341
  896YOPE   D3B12233  17.388  11.647   7.003 -0.0501 -0.3298 -0.0872
  896YOPE   C4B12234  17.768  11.829   7.189  0.3440 -0.1561  0.0481
  897YOPE   NH312235   8.307  12.735   5.684 -0.2518 -0.1279 -0.1114
  897YOPE   PO412236   8.249  13.047   6.005  0.4572  0.2192  0.0636
  897YOPE   GL112237   8.083  13.295   6.179 -0.0578  0.0229 -0.0982
  897YOPE   GL212238   7.912  13.067   6.434  0.1516  0.1736  0.0217
  897YOPE   C1A12239   7.859  13.510   6.621 -0.0845 -0.0501  0.0522
  897YOPE   D2A12240   7.851  13.870   6.933  0.3052  0.2205 -0.1261
  897YOPE   C3A12241   8.158  13.916   7.291 -0.1908  0.0911 -0.2069
  897YOPE   C4A12242   8.480  13.747   7.437  0.0284 -0.2076  0.1476
  897YOPE   C1B12243   7.918  13.109   6.929  0.0350 -0.2741  0.0513
  897YOPE   C2B12244   7.970  12.964   7.336  0.0742 -0.0001 -0.0885
  897YOPE   D3B12245   7.802  12.918   7.698 -0.1036  0.0945  0.1017
  897YOPE   C4B12246   7.657  12.602   7.984 -0.1108 -0.1746  0.3638
  898YOPE   NH312247  13.146  10.539   5.509  0.0761  0.0385 -0.0985
  898YOPE   PO412248  13.179  10.757   5.203 -0.2520  0.4639  0.1405
  898YOPE   GL112249  12.823  10.986   5.516  0.1302 -0.4596 -0.0599
  898YOPE   GL212250  12.762  10.821   5.809 -0.0393 -0.0000  0.5228
  898YOPE   C1A12251  12.939  11.300   5.811 -0.0482  0.4739 -0.0185
  898YOPE   D2A12252  12.932  11.419   6.271  0.0058  0.1195  0.0769
  898YOPE   C3A12253  12.703  11.392   6.616 -0.1115 -0.2192 -0.1401
  898YOPE   C4A12254  12.878  11.292   7.036 -0.2170 -0.0754  0.0183
  898YOPE   C1B12255  12.852  10.943   6.194  0.1476  0.4031 -0.1947
  898YOPE   C2B12256  12.945  10.984   6.646 -0.0353  0.4093  0.0652
  898YOPE   D3B12257  13.208  10.922   6.868 -0.1094  0.2286  0.2203
  898YOPE   C4B12258  13.330  10.698   7.213 -0.0175 -0.3050 -0.1139
  899YOPE   NH312259   3.569   7.257   5.763  0.0055  0.2749 -0.1801
  899YOPE   PO412260   3.303   7.570   5.528  0.1211 -0.1744 -0.3567
  899YOPE   GL112261   3.146   7.459   6.011  0.2991 -0.3882  0.0058
  899YOPE   GL212262   2.906   7.595   6.155  0.0221 -0.2307  0.3569
  899YOPE   C1A12263   3.204   7.530   6.515 -0.1478  0.0940 -0.3899
  899YOPE   D2A12264   3.096   7.458   6.875  0.0625  0.0572  0.1460
  899YOPE   C3A12265   2.867   7.699   7.106  0.2059  0.1836  0.0931
  899YOPE   C4A12266   2.589   8.015   6.992  0.2550 -0.0584  0.1196
  899YOPE   C1B12267   2.835   7.848   6.527 -0.2437 -0.0251 -0.1882
  899YOPE   C2B12268   3.107   8.130   6.768 -0.1952 -0.2223 -0.0644
  899YOPE   D3B12269   3.155   8.263   7.232 -0.0631 -0.2004  0.0314
  899YOPE   C4B12270   2.998   8.391   7.640  0.1213 -0.3085 -0.2387
  900YOPE   NH312271  14.544   8.688   5.757 -0.1907 -0.1571  0.0146
  900YOPE   PO412272  15.066   8.651   5.852 -0.1436  0.3558 -0.1117
  900YOPE   GL112273  15.047   8.528   6.235  0.1903  0.1332 -0.1226
  900YOPE   GL212274  14.918   8.817   6.300 -0.1666 -0.1205  0.0818
  900YOPE   C1A12275  15.110   8.613   6.835  0.0208 -0.0394  0.0866
  900YOPE   D2A12276  14.889   8.587   7.283  0.3641  0.0359  0.4386
  900YOPE   C3A12277  15.222   8.348   7.360  0.1041  0.3440 -0.0703
  900YOPE   C4A12278  15.458   8.059   7.623  0.0261 -0.0521 -0.2544
  900YOPE   C1B12279  14.968   9.172   6.474 -0.1052 -0.3481  0.0910
  900YOPE   C2B12280  14.980   9.484   6.795  0.2255  0.5534  0.1584
  900YOPE   D3B12281  15.241   9.771   7.044 -0.2009  0.0349  0.1489
  900YOPE   C4B12282  15.162  10.097   7.200  0.0071  0.0167 -0.1614
  901YOPE   NH312283  17.878   2.033   5.335 -0.1384  0.3679  0.0665
  901YOPE   PO412284  17.478   2.209   5.246 -0.2854  0.1609 -0.0071
  901YOPE   GL112285  17.460   2.012   5.629 -0.2625 -0.1363 -0.4322
  901YOPE   GL212286  17.323   2.185   5.934 -0.2773 -0.0055  0.0255
  901YOPE   C1A12287  17.652   1.907   6.109 -0.0946  0.0143 -0.0106
  901YOPE   D2A12288  17.545   2.035   6.526 -0.2414 -0.0747  0.2877
  901YOPE   C3A12289  17.672   1.950   6.989 -0.1255 -0.0796  0.1011
  901YOPE   C4A12290  17.938   1.730   7.340 -0.0584  0.0109 -0.0908
  901YOPE   C1B12291  17.031   2.084   6.208  0.1927 -0.1573  0.1564
  901YOPE   C2B12292  17.019   2.031   6.599  0.0186  0.0327  0.0098
  901YOPE   D3B12293  16.813   1.643   6.818  0.1683 -0.0137  0.2807
  901YOPE   C4B12294  16.660   1.183   6.732 -0.0069 -0.1881 -0.0794
  902YOPE   NH312295   0.602   7.180   5.773 -0.1978 -0.1356  0.2860
  902YOPE   PO412296   0.311   7.525   5.728  0.0581  0.0695 -0.3052
  902YOPE   GL112297   0.758   7.622   5.899 -0.1255  0.1977 -0.0914
  902YOPE   GL212298   0.833   7.469   6.120 -0.0887 -0.1120 -0.0001
  902YOPE   C1A12299   0.893   7.874   6.390 -0.0164  0.0475  0.2381
  902YOPE   D2A12300   1.040   8.117   6.752  0.0679  0.1762  0.0494
  902YOPE   C3A12301   0.996   8.532   6.609 -0.2209  0.0353  0.1512
  902YOPE   C4A12302   1.367   8.873   6.587 -0.1059 -0.4516 -0.0008
  902YOPE   C1B12303   0.923   7.408   6.578  0.0495  0.1606 -0.1791
  902YOPE   C2B12304   0.957   7.734   7.011 -0.1041 -0.1720  0.1481
  902YOPE   D3B12305   0.990   8.054   7.282 -0.0314 -0.0061  0.0595
  902YOPE   C4B12306   1.307   8.318   7.597 -0.1119  0.0694 -0.1042
  903YOPE   NH312307   0.843   9.650   5.813 -0.0729 -0.0431  0.1497
  903YOPE   PO412308   1.184   9.873   5.764  0.0742  0.2089  0.3044
  903YOPE   GL112309   1.343   9.843   6.193 -0.1682 -0.0285  0.1905
  903YOPE   GL212310   1.081   9.842   6.304 -0.7152 -0.0166 -0.1933
  903YOPE   C1A12311   1.586   9.758   6.544 -0.0732 -0.2187  0.0979
  903YOPE   D2A12312   1.557   9.791   7.059  0.1070  0.0909  0.0384
  903YOPE   C3A12313   1.226   9.970   7.239  0.0942  0.0482  0.2512
  903YOPE   C4A12314   0.859   9.763   7.299 -0.0948 -0.3605  0.0694
  903YOPE   C1B12315   1.321  10.232   6.498  0.0409  0.0668 -0.1306
  903YOPE   C2B12316   1.378  10.336   6.897  0.1441 -0.1134  0.3863
  903YOPE   D3B12317   1.443  10.430   7.392 -0.1160 -0.0092  0.0517
  903YOPE   C4B12318   1.358  10.600   7.781  0.2180 -0.1066 -0.0737
  904YOPE   NH312319  16.217   9.958   5.463 -0.1061  0.0239 -0.0461
  904YOPE   PO412320  16.075   9.554   5.614  0.1919 -0.0136 -0.0059
  904YOPE   GL112321  15.971   9.442   6.048 -0.1750  0.4182  0.0473
  904YOPE   GL212322  15.854   9.235   6.122 -0.2909  0.2776  0.1593
  904YOPE   C1A12323  16.086   9.460   6.476  0.2983 -0.0052  0.3816
  904YOPE   D2A12324  16.107   9.351   6.793 -0.0962 -0.3005 -0.0027
  904YOPE   C3A12325  16.231   9.692   7.102  0.0845  0.0637  0.2421
  904YOPE   C4A12326  16.138   9.979   7.428 -0.2059 -0.1443  0.0572
  904YOPE   C1B12327  16.049   8.907   6.405 -0.0491 -0.0644  0.1233
  904YOPE   C2B12328  15.895   8.615   6.660  0.0469 -0.0815 -0.1130
  904YOPE   D3B12329  15.955   8.586   7.168 -0.0759  0.0810 -0.4549
  904YOPE   C4B12330  16.157   8.793   7.494  0.0551  0.0459 -0.4581
  905YOPE   NH312331   4.084   6.542   5.777  0.0276  0.1077 -0.4108
  905YOPE   PO412332   3.819   6.852   5.935 -0.1364 -0.0109 -0.2435
  905YOPE   GL112333   3.987   6.665   6.286  0.0521 -0.2023  0.1124
  905YOPE   GL212334   3.916   6.326   6.309 -0.4446 -0.1640  0.0958
  905YOPE   C1A12335   4.201   6.561   6.627 -0.2073 -0.0549  0.0722
  905YOPE   D2A12336   4.109   6.418   7.036  0.0812 -0.0265  0.1986
  905YOPE   C3A12337   4.053   6.684   7.381  0.0273 -0.2190  0.0525
  905YOPE   C4A12338   3.924   7.055   7.398 -0.1207  0.0153 -0.1568
  905YOPE   C1B12339   3.753   6.245   6.727 -0.0399 -0.0279  0.0241
  905YOPE   C2B12340   3.638   5.983   7.085 -0.1187 -0.1052  0.1496
  905YOPE   D3B12341   3.376   5.787   7.405 -0.0257  0.1427  0.3844
  905YOPE   C4B12342   3.633   5.770   7.757  0.1597 -0.2275  0.1064
  906YOPE   NH312343  18.688  15.146   5.354  0.0375 -0.0803 -0.0396
  906YOPE   PO412344  18.817  14.762   5.336 -0.0483  0.0764  0.1113
  906YOPE   GL112345  18.854  14.673   5.811  0.2017  0.1180 -0.0086
  906YOPE   GL212346  18.797  14.439   6.054  0.0207  0.1283 -0.0960
  906YOPE   C1A12347  18.643  14.915   6.175  0.1472 -0.1361  0.1944
  906YOPE   D2A12348  18.315  14.922   6.509 -0.0450  0.1568  0.1144
  906YOPE   C3A12349  18.033  15.191   6.531 -0.2835  0.0176 -0.2579
  906YOPE   C4A12350  17.570  15.188   6.469 -0.3294 -0.1437 -0.1795
  906YOPE   C1B12351  18.802  14.214   6.358 -0.1354  0.2741  0.0590
  906YOPE   C2B12352  18.836  14.101   6.820 -0.0552  0.2700  0.0575
  906YOPE   D3B12353  18.680  14.122   7.290  0.1554  0.1678  0.0481
  906YOPE   C4B12354  18.773  14.130   7.762  0.3608 -0.1757 -0.0324
  907YOPE   NH312355   1.231   1.545   5.511 -0.0869  0.2287  0.2290
  907YOPE   PO412356   0.947   1.798   5.231  0.0359 -0.0081  0.5805
  907YOPE   GL112357   0.612   1.936   5.473  0.2313  0.1684 -0.1148
  907YOPE   GL212358   0.302   1.684   5.564 -0.0999 -0.2371 -0.3273
  907YOPE   C1A12359   0.703   2.308   5.846 -0.0264 -0.1119 -0.1494
  907YOPE   D2A12360   0.773   2.657   6.170 -0.1175 -0.1323  0.1341
  907YOPE   C3A12361   0.840   3.096   6.193  0.0448  0.0965 -0.0977
  907YOPE   C4A12362   0.642   3.368   6.508  0.0233  0.1250 -0.0319
  907YOPE   C1B12363   0.226   1.936   5.900 -0.2646 -0.0020  0.0209
  907YOPE   C2B12364   0.305   2.133   6.257 -0.0716 -0.1632 -0.1487
  907YOPE   D3B12365   0.036   2.082   6.646  0.1165  0.1754  0.0390
  907YOPE   C4B12366  -0.021   2.103   7.094 -0.1194 -0.1522  0.1465
  908YOPE   NH312367  18.185   8.761   6.032  0.0981 -0.2430 -0.3979
  908YOPE   PO412368  18.320   9.244   6.046  0.0158  0.4419 -0.0422
  908YOPE   GL112369  18.145   9.240   6.486  0.6018  0.3742  0.0653
  908YOPE   GL212370  18.210   9.031   6.631 -0.0082  0.4008  0.2207
  908YOPE   C1A12371  17.955   9.389   6.823  0.1173 -0.2652 -0.0876
  908YOPE   D2A12372  17.831   9.570   7.138  0.3564 -0.3954 -0.0980
  908YOPE   C3A12373  17.493   9.681   7.247  0.3129  0.1029 -0.2695
  908YOPE   C4A12374  17.234   9.752   7.683 -0.0032 -0.1564  0.2619
  908YOPE   C1B12375  18.175   9.080   7.208 -0.0539  0.0430  0.2686
  908YOPE   C2B12376  17.927   8.936   7.583  0.2766  0.1020  0.0893
  908YOPE   D3B12377  17.872   8.425   7.818 -0.3073 -0.1531 -0.0789
  908YOPE   C4B12378  17.618   8.134   7.806 -0.1542 -0.1220  0.1030
  909YOPE   NH312379   4.785   1.241   5.268 -0.1136  0.4267 -0.3227
  909YOPE   PO412380   4.352   1.403   5.287  0.0682  0.0028  0.1492
  909YOPE   GL112381   4.165   1.485   5.730  0.0986 -0.3372  0.2123
  909YOPE   GL212382   3.934   1.200   5.844 -0.0393 -0.1254  0.0931
  909YOPE   C1A12383   4.106   1.884   5.981  0.4910 -0.1776  0.1258
  909YOPE   D2A12384   4.365   2.233   6.014  0.2592  0.2328 -0.0064
  909YOPE   C3A12385   4.240   2.410   6.352 -0.0631  0.0838  0.0544
  909YOPE   C4A12386   4.151   2.306   6.834  0.1548 -0.2760 -0.1804
  909YOPE   C1B12387   4.010   1.066   6.181  0.0366 -0.0243  0.1053
  909YOPE   C2B12388   4.018   1.151   6.492 -0.2095 -0.2592 -0.1963
  909YOPE   D3B12389   3.858   1.306   6.862 -0.2725  0.0376 -0.2194
  909YOPE   C4B12390   4.056   1.460   7.162  0.4291  0.2327 -0.2616
  910YOPE   NH312391  11.308  17.910   5.795 -0.0685 -0.0602  0.2635
  910YOPE   PO412392  10.933  18.085   5.690  0.0021  0.2805 -0.1247
  910YOPE   GL112393  11.139  18.325   6.119 -0.0225 -0.2238  0.1281
  910YOPE   GL212394  11.406  18.174   6.256  0.1219 -0.0586 -0.2460
  910YOPE   C1A12395  10.895  18.363   6.416  0.0539 -0.0544  0.4541
  910YOPE   D2A12396  10.524  18.439   6.568  0.0314 -0.1742 -0.1415
  910YOPE   C3A12397  10.467  18.449   6.964  0.1145  0.2870 -0.0540
  910YOPE   C4A12398  10.379  18.468   7.418  0.0076  0.3130  0.0772
  910YOPE   C1B12399  11.425  18.272   6.678  0.0554  0.2237  0.2101
  910YOPE   C2B12400  11.747  18.111   7.000  0.3264 -0.3025  0.1126
  910YOPE   D3B12401  11.789  17.964   7.445 -0.3013  0.0017 -0.0710
  910YOPE   C4B12402  11.539  17.690   7.763 -0.1461 -0.0598  0.0328
  911YOPE   NH312403  12.542   4.901   5.411  0.2162 -0.0854 -0.0499
  911YOPE   PO412404  12.663   5.355   5.310 -0.3095 -0.1300 -0.2078
  911YOPE   GL112405  12.764   5.528   5.734 -0.1513 -0.4060  0.1498
  911YOPE   GL212406  12.919   5.364   5.986 -0.1919  0.0954 -0.2361
  911YOPE   C1A12407  12.759   5.811   6.079  0.1257 -0.1828  0.0194
  911YOPE   D2A12408  12.836   6.006   6.500  0.0835  0.1363  0.1773
  911YOPE   C3A12409  12.626   5.833   6.773  0.2144  0.0747 -0.0551
  911YOPE   C4A12410  12.398   5.509   6.766 -0.1262 -0.1429  0.0375
  911YOPE   C1B12411  12.940   5.518   6.404  0.1764 -0.5698  0.0386
  911YOPE   C2B12412  13.044   5.538   6.862  0.0857 -0.0056  0.1958
  911YOPE   D3B12413  13.123   5.729   7.254  0.3466  0.1347  0.2814
  911YOPE   C4B12414  13.020   6.083   7.608  0.2503  0.2937  0.0995
  912YOPE   NH312415  13.086  12.727   5.831  0.1391 -0.0827 -0.1073
  912YOPE   PO412416  13.285  13.098   5.842  0.0382 -0.1127 -0.0489
  912YOPE   GL112417  13.073  13.211   6.157  0.0686  0.0476 -0.0583
  912YOPE   GL212418  12.933  13.553   6.206  0.1238 -0.1849 -0.0253
  912YOPE   C1A12419  12.987  13.143   6.644  0.2245 -0.0758  0.1411
  912YOPE   D2A12420  12.992  13.139   7.162  0.1229  0.0040  0.0908
  912YOPE   C3A12421  13.237  13.327   7.430 -0.2054  0.0512 -0.0146
  912YOPE   C4A12422  13.578  13.379   7.775  0.1757 -0.0391 -0.3224
  912YOPE   C1B12423  13.228  13.728   6.551 -0.0185  0.1369  0.0598
  912YOPE   C2B12424  13.328  13.875   6.895  0.0283 -0.0784 -0.0455
  912YOPE   D3B12425  13.581  14.030   7.210  0.1056  0.4094 -0.1615
  912YOPE   C4B12426  13.856  14.384   7.471 -0.0430 -0.1811  0.1953
  913YOPE   NH312427   3.937   3.320   5.203  0.2413  0.0115 -0.0762
  913YOPE   PO412428   4.007   2.967   5.415  0.0258 -0.0645  0.0499
  913YOPE   GL112429   3.947   2.953   5.862 -0.2105 -0.1199 -0.0661
  913YOPE   GL212430   3.647   3.075   5.874 -0.1027  0.0005  0.0255
  913YOPE   C1A12431   3.897   2.829   6.238 -0.0768 -0.0050 -0.2399
  913YOPE   D2A12432   3.742   2.523   6.553 -0.1693  0.0873 -0.0992
  913YOPE   C3A12433   3.330   2.579   6.677 -0.1643 -0.1451  0.1101
  913YOPE   C4A12434   3.049   2.870   6.791  0.0180 -0.3980  0.0619
  913YOPE   C1B12435   3.332   3.428   5.821  0.0627  0.0320  0.3571
  913YOPE   C2B12436   3.097   3.678   6.050 -0.0716 -0.1546  0.0907
  913YOPE   D3B12437   3.141   4.036   6.379 -0.3126 -0.1218 -0.0841
  913YOPE   C4B12438   3.252   4.222   6.735  0.1229 -0.2541  0.0304
  914YOPE   NH312439  13.183   8.221   5.495  0.2929 -0.3027 -0.1945
  914YOPE   PO412440  13.538   8.332   5.772 -0.2434 -0.2218  0.0080
  914YOPE   GL112441  13.775   8.449   6.256 -0.0012 -0.1202  0.1265
  914YOPE   GL212442  13.997   8.737   6.337 -0.1341  0.2024 -0.0855
  914YOPE   C1A12443  13.525   8.593   6.602  0.2318  0.1248 -0.1618
  914YOPE   D2A12444  13.585   8.557   7.016  0.2758  0.0305 -0.2332
  914YOPE   C3A12445  13.407   8.379   7.389  0.0872  0.0223  0.1277
  914YOPE   C4A12446  13.604   8.457   7.788  0.1125  0.2194  0.1080
  914YOPE   C1B12447  14.037   8.398   6.676 -0.4818 -0.0833  0.0462
  914YOPE   C2B12448  13.899   8.190   7.017 -0.0147  0.1123 -0.0856
  914YOPE   D3B12449  13.805   8.042   7.436  0.2257 -0.2168 -0.3341
  914YOPE   C4B12450  13.792   8.007   7.881  0.1468  0.0062  0.0678
  915YOPE   NH312451  11.316   2.935   5.725  0.0010  0.1138 -0.1065
  915YOPE   PO412452  10.877   3.032   5.555 -0.0802  0.0694 -0.0395
  915YOPE   GL112453  10.842   3.376   5.805 -0.1220  0.0854 -0.0161
  915YOPE   GL212454  11.087   3.323   6.025  0.1966  0.1131 -0.1780
  915YOPE   C1A12455  10.639   3.446   6.175  0.2918 -0.3419 -0.1040
  915YOPE   D2A12456  10.538   3.792   6.482  0.0991 -0.3866  0.1683
  915YOPE   C3A12457  10.430   3.759   6.865  0.3064  0.1139 -0.3884
  915YOPE   C4A12458  10.098   3.459   7.026 -0.0946 -0.5072 -0.0007
  915YOPE   C1B12459  11.072   3.290   6.435 -0.0083 -0.0963  0.3009
  915YOPE   C2B12460  10.734   3.243   6.811 -0.1141  0.1283 -0.3272
  915YOPE   D3B12461  10.672   3.444   7.234  0.0261 -0.1734 -0.0040
  915YOPE   C4B12462  10.680   3.406   7.695 -0.1696 -0.1250 -0.0558
  916YOPE   NH312463  10.930   2.055   5.778 -0.1251  0.0215 -0.1123
  916YOPE   PO412464  11.202   1.929   5.829 -0.0036  0.0406  0.1224
  916YOPE   GL112465  11.532   1.947   6.022  0.0283  0.1182 -0.1772
  916YOPE   GL212466  11.714   2.012   5.859 -0.0910 -0.3333 -0.0781
  916YOPE   C1A12467  11.619   1.933   6.474  0.0634 -0.0888 -0.0935
  916YOPE   D2A12468  11.462   1.990   6.885  0.1815 -0.3379 -0.0158
  916YOPE   C3A12469  11.759   2.231   7.174  0.0147 -0.0925  0.3386
  916YOPE   C4A12470  11.992   2.311   7.510 -0.1661  0.2004  0.1855
  916YOPE   C1B12471  12.014   1.902   6.173 -0.1272 -0.0901  0.2522
  916YOPE   C2B12472  12.205   1.682   6.467  0.2372  0.1772 -0.3161
  916YOPE   D3B12473  12.543   1.553   6.805  0.0362 -0.0378 -0.0461
  916YOPE   C4B12474  12.355   1.336   7.196 -0.0280  0.2013  0.1973
  917YOPE   NH312475   2.678   7.169   6.000  0.3033  0.0543 -0.1409
  917YOPE   PO412476   2.537   6.794   5.840  0.1301 -0.1551 -0.0044
  917YOPE   GL112477   2.264   6.887   6.141 -0.2194  0.2076 -0.1673
  917YOPE   GL212478   2.302   6.490   6.225  0.4048 -0.0164 -0.4158
  917YOPE   C1A12479   2.433   7.003   6.610  0.2696 -0.0308  0.3149
  917YOPE   D2A12480   2.465   6.975   7.111 -0.1047 -0.2501 -0.2853
  917YOPE   C3A12481   2.217   7.128   7.428  0.1201  0.0916 -0.1316
  917YOPE   C4A12482   2.069   7.041   7.880 -0.3183 -0.1392 -0.2336
  917YOPE   C1B12483   2.291   6.151   6.559 -0.1330  0.0291 -0.0648
  917YOPE   C2B12484   2.139   6.201   7.023 -0.0389  0.1298 -0.1648
  917YOPE   D3B12485   2.102   6.125   7.526  0.2801 -0.1293 -0.0169
  917YOPE   C4B12486   2.479   6.164   7.864 -0.0423  0.1123 -0.0546
  918YOPE   NH312487  16.609  14.766   5.682  0.0486  0.3589 -0.0152
  918YOPE   PO412488  16.205  14.924   5.839 -0.0486 -0.3990 -0.1532
  918YOPE   GL112489  16.461  15.015   6.139 -0.0625  0.0055  0.1571
  918YOPE   GL212490  16.518  15.241   6.360 -0.4185  0.2845 -0.2651
  918YOPE   C1A12491  16.565  14.753   6.439  0.1763 -0.0413 -0.0850
  918YOPE   D2A12492  16.678  14.886   6.900 -0.0129  0.1640  0.0898
  918YOPE   C3A12493  16.397  15.063   7.175 -0.1739  0.2384  0.3029
  918YOPE   C4A12494  16.239  15.074   7.534  0.0195  0.0254  0.0860
  918YOPE   C1B12495  16.729  15.389   6.715 -0.2879 -0.0674  0.5200
  918YOPE   C2B12496  17.141  15.564   6.912  0.0685 -0.2279 -0.1646
  918YOPE   D3B12497  17.373  15.372   7.200  0.2340  0.1119  0.5491
  918YOPE   C4B12498  17.736  15.199   6.991 -0.1092 -0.2349  0.0608
  919YOPE   NH312499  13.006  18.411   5.597  0.2583 -0.0628  0.2756
  919YOPE   PO412500  12.810  17.976   5.667 -0.0459 -0.1964  0.3611
  919YOPE   GL112501  13.000  18.062   6.041  0.2418  0.1459  0.1546
  919YOPE   GL212502  13.388  18.244   5.928 -0.3868 -0.0089  0.1347
  919YOPE   C1A12503  13.190  18.388   6.310 -0.0380 -0.3144 -0.0593
  919YOPE   D2A12504  13.470  18.475   6.594 -0.1145 -0.1299 -0.0235
  919YOPE   C3A12505  13.893  18.464   6.377  0.2335 -0.0489  0.1005
  919YOPE   C4A12506  14.295  18.569   6.329 -0.0078  0.0123 -0.1105
  919YOPE   C1B12507  13.595  18.010   6.167 -0.0921 -0.0827 -0.1460
  919YOPE   C2B12508  13.387  17.961   6.564 -0.2185 -0.2853  0.1045
  919YOPE   D3B12509  13.219  17.631   6.777 -0.1628 -0.1628  0.0734
  919YOPE   C4B12510  13.265  17.448   7.250 -0.1179  0.0747  0.1331
  920YOPE   NH312511   9.814  18.485   5.654  0.2961 -0.0828 -0.0450
  920YOPE   PO412512   9.342  18.555   5.585  0.1165 -0.2232  0.0259
  920YOPE   GL112513   9.483  18.509   6.003  0.2439  0.0227 -0.1816
  920YOPE   GL212514   9.202  18.381   6.089 -0.1082 -0.0461  0.1748
  920YOPE   C1A12515   9.622  18.246   6.337  0.0042 -0.1867 -0.1188
  920YOPE   D2A12516   9.796  18.150   6.633 -0.1898  0.0277  0.1361
  920YOPE   C3A12517   9.997  18.384   6.831  0.0736  0.0119 -0.0015
  920YOPE   C4A12518   9.945  18.504   7.188 -0.0019 -0.0059 -0.0674
  920YOPE   C1B12519   9.133  18.317   6.403  0.0145  0.2601  0.2401
  920YOPE   C2B12520   9.046  18.219   6.742 -0.0942  0.0008 -0.0703
  920YOPE   D3B12521   9.125  18.246   7.189  0.1719 -0.3178  0.1843
  920YOPE   C4B12522   9.478  18.344   7.245 -0.1265  0.0082 -0.3136
  921YOPE   NH312523   1.404  14.414   6.062  0.1843  0.2261 -0.2396
  921YOPE   PO412524   1.786  14.630   6.188 -0.3551 -0.1552 -0.1459
  921YOPE   GL112525   1.976  14.778   6.474 -0.0107 -0.1126 -0.2395
  921YOPE   GL212526   1.797  15.046   6.468  0.1633  0.1316 -0.0360
  921YOPE   C1A12527   2.239  14.750   6.857 -0.0708 -0.4721  0.0285
  921YOPE   D2A12528   2.688  14.564   6.977 -0.0275 -0.0760 -0.0588
  921YOPE   C3A12529   2.923  14.622   7.414  0.1365 -0.1440  0.1850
  921YOPE   C4A12530   3.294  14.914   7.514  0.0621 -0.1593  0.2102
  921YOPE   C1B12531   1.833  15.027   6.927 -0.1120  0.3218  0.1514
  921YOPE   C2B12532   1.635  15.079   7.315  0.4341  0.0227  0.0208
  921YOPE   D3B12533   1.487  14.984   7.740  0.1073  0.1627  0.0338
  921YOPE   C4B12534   1.571  14.884   8.129 -0.0983  0.2944  0.1133
  922YOPE   NH312535   6.597   5.971   5.963 -0.0075  0.1072  0.4157
  922YOPE   PO412536   6.827   5.668   5.772  0.2666 -0.1179  0.2098
  922YOPE   GL112537   6.846   5.209   5.829  0.1281 -0.2047 -0.2066
  922YOPE   GL212538   6.476   5.106   5.782  0.0965 -0.0346 -0.2362
  922YOPE   C1A12539   6.947   4.944   6.197  0.0503 -0.0114 -0.1436
  922YOPE   D2A12540   6.851   5.204   6.515  0.2545  0.0427  0.0338
  922YOPE   C3A12541   6.850   5.142   6.984 -0.1366 -0.0804  0.0147
  922YOPE   C4A12542   6.948   5.189   7.410  0.2867 -0.0129  0.2055
  922YOPE   C1B12543   6.425   5.083   6.266 -0.1201  0.0411 -0.1524
  922YOPE   C2B12544   6.269   4.916   6.673 -0.0525 -0.1124 -0.2704
  922YOPE   D3B12545   6.482   4.826   7.104  0.3488  0.0674 -0.1255
  922YOPE   C4B12546   6.584   4.729   7.510  0.0140 -0.2275 -0.1936
  923YOPE   NH312547  11.327   8.711   5.811 -0.0933  0.0987 -0.0787
  923YOPE   PO412548  10.957   8.962   5.852  0.0618 -0.3298 -0.1106
  923YOPE   GL112549  10.763   9.081   6.157  0.1502  0.1003 -0.3562
  923YOPE   GL212550  10.475   8.910   6.211 -0.1241 -0.0653  0.1379
  923YOPE   C1A12551  10.767   8.835   6.596 -0.2951 -0.2242 -0.2655
  923YOPE   D2A12552  10.783   8.952   6.965 -0.2033  0.0757 -0.0440
  923YOPE   C3A12553  11.167   8.994   7.212 -0.1300 -0.0352 -0.0431
  923YOPE   C4A12554  11.395   9.049   7.507  0.0827 -0.2043  0.0733
  923YOPE   C1B12555  10.200   8.917   6.615 -0.1837  0.1983 -0.1731
  923YOPE   C2B12556  10.276   9.058   6.972  0.3146  0.0423 -0.0696
  923YOPE   D3B12557  10.031   9.330   7.290  0.0769 -0.1823  0.0149
  923YOPE   C4B12558   9.707   9.428   7.497  0.1154 -0.0496 -0.0775
  924YOPE   NH312559  11.498   5.423   5.807 -0.1888  0.2307 -0.1807
  924YOPE   PO412560  11.818   5.164   5.682  0.0027  0.2728 -0.0098
  924YOPE   GL112561  11.610   5.052   6.092 -0.2553  0.0208  0.2552
  924YOPE   GL212562  11.655   5.282   6.283  0.0953  0.7613  0.0288
  924YOPE   C1A12563  11.458   4.819   6.401 -0.2315  0.0193  0.0957
  924YOPE   D2A12564  11.556   4.519   6.645  0.1013  0.0677  0.1677
  924YOPE   C3A12565  11.766   4.637   6.943 -0.0202  0.0869 -0.1694
  924YOPE   C4A12566  11.740   4.655   7.533  0.0246  0.1413  0.0962
  924YOPE   C1B12567  11.754   5.348   6.701  0.1557 -0.1413  0.0823
  924YOPE   C2B12568  11.936   5.517   7.061  0.0761  0.0718 -0.1836
  924YOPE   D3B12569  12.223   5.815   7.145 -0.0360  0.1807 -0.1360
  924YOPE   C4B12570  12.272   6.199   6.949  0.2136  0.2305  0.1841
  925YOPE   NH312571   9.202   1.603   5.110 -0.0171  0.0517 -0.1551
  925YOPE   PO412572   9.093   1.431   5.487 -0.0086  0.1482 -0.0139
  925YOPE   GL112573   9.246   1.429   5.849  0.0696  0.0251 -0.0105
  925YOPE   GL212574   9.202   1.267   6.050 -0.0373 -0.3096  0.4252
  925YOPE   C1A12575   9.449   1.619   6.297  0.2265 -0.1742  0.1046
  925YOPE   D2A12576   9.361   1.621   6.736 -0.0087 -0.3423 -0.0096
  925YOPE   C3A12577   9.251   1.317   7.083  0.1472 -0.2704 -0.0310
  925YOPE   C4A12578   9.061   1.160   7.435  0.2479 -0.1851  0.1397
  925YOPE   C1B12579   9.011   1.540   6.336  0.0108 -0.3611  0.2924
  925YOPE   C2B12580   9.081   1.947   6.581  0.0956  0.1448  0.0966
  925YOPE   D3B12581   9.138   2.124   6.912 -0.1398 -0.0233 -0.1877
  925YOPE   C4B12582   9.258   2.039   7.311  0.0043  0.1138 -0.2936
  926YOPE   NH312583   6.110   7.490   5.930 -0.3735 -0.2419  0.3513
  926YOPE   PO412584   6.641   7.552   5.924  0.3982 -0.0012  0.0163
  926YOPE   GL112585   6.909   7.869   6.158  0.1219 -0.0698  0.1344
  926YOPE   GL212586   7.206   7.729   6.240  0.2223 -0.1902  0.1281
  926YOPE   C1A12587   7.082   8.144   6.507 -0.0351 -0.1208  0.1407
  926YOPE   D2A12588   7.047   8.514   6.744 -0.1037 -0.0874  0.1456
  926YOPE   C3A12589   7.188   8.629   7.196  0.1228  0.1039 -0.0342
  926YOPE   C4A12590   7.484   8.916   7.391 -0.1946 -0.0142 -0.3442
  926YOPE   C1B12591   7.022   7.628   6.631 -0.0755  0.1961 -0.0049
  926YOPE   C2B12592   7.049   7.583   7.043  0.1276  0.1813 -0.0073
  926YOPE   D3B12593   7.088   7.426   7.442 -0.0157  0.4322  0.2259
  926YOPE   C4B12594   7.083   7.358   7.849  0.0939 -0.1037 -0.2835
  927YOPE   NH312595  12.511  17.289   5.230 -0.0262  0.0687  0.0153
  927YOPE   PO412596  12.444  16.960   5.294  0.1184  0.0318 -0.1986
  927YOPE   GL112597  12.543  16.851   5.667 -0.0182  0.0149 -0.0969
  927YOPE   GL212598  12.748  17.129   5.812 -0.0327 -0.3047  0.1528
  927YOPE   C1A12599  12.724  16.662   6.100  0.0877 -0.1414  0.1044
  927YOPE   D2A12600  12.384  16.447   6.421 -0.0013 -0.0040 -0.1413
  927YOPE   C3A12601  12.383  16.668   6.870 -0.2064  0.3580 -0.1526
  927YOPE   C4A12602  12.669  16.896   7.142 -0.1356 -0.0345  0.1078
  927YOPE   C1B12603  12.904  17.245   6.230 -0.0125 -0.0497 -0.0033
  927YOPE   C2B12604  12.765  17.359   6.544 -0.0679 -0.1267  0.1643
  927YOPE   D3B12605  12.852  17.307   6.921  0.2770 -0.1145  0.1743
  927YOPE   C4B12606  12.668  17.520   7.320 -0.6325 -0.1276 -0.1502
  928YOPE   NH312607   9.138  15.123   5.625  0.1530 -0.0819 -0.1626
  928YOPE   PO412608   9.126  14.772   5.785 -0.2079 -0.0480 -0.5518
  928YOPE   GL112609   9.030  14.855   6.137 -0.0051 -0.1948 -0.1906
  928YOPE   GL212610   9.251  14.736   6.319  0.1836 -0.2637 -0.0744
  928YOPE   C1A12611   8.885  15.166   6.499  0.0585 -0.0683  0.0801
  928YOPE   D2A12612   8.748  15.498   6.754  0.2078 -0.2801  0.0164
  928YOPE   C3A12613   8.834  15.578   7.152 -0.3350  0.0175  0.0286
  928YOPE   C4A12614   8.707  15.713   7.558 -0.2869 -0.1299  0.1058
  928YOPE   C1B12615   9.289  14.907   6.674  0.2758  0.2193 -0.3758
  928YOPE   C2B12616   9.181  15.166   7.002 -0.0519 -0.4101  0.1173
  928YOPE   D3B12617   8.957  15.248   7.437  0.1377  0.0032 -0.0526
  928YOPE   C4B12618   8.580  15.208   7.718  0.1765 -0.3199 -0.4239
  929YOPE   NH312619  17.460  14.414   5.708 -0.0071 -0.1248 -0.0040
  929YOPE   PO412620  17.905  14.375   5.805 -0.5229  0.0654 -0.1011
  929YOPE   GL112621  17.893  14.376   6.195  0.3199 -0.2354 -0.0727
  929YOPE   GL212622  17.540  14.307   6.264 -0.1048  0.2045 -0.0082
  929YOPE   C1A12623  17.867  14.617   6.541  0.3916  0.2185 -0.1453
  929YOPE   D2A12624  18.059  14.863   6.930 -0.0221  0.2335  0.0277
  929YOPE   C3A12625  17.999  14.749   7.301 -0.1536 -0.2665  0.0796
  929YOPE   C4A12626  17.979  14.656   7.733 -0.1186 -0.0482 -0.2993
  929YOPE   C1B12627  17.337  14.193   6.698  0.4977 -0.1780  0.2417
  929YOPE   C2B12628  17.498  14.183   7.140  0.2616  0.0666 -0.0782
  929YOPE   D3B12629  17.826  14.273   7.475 -0.3749  0.0534 -0.0611
  929YOPE   C4B12630  18.297  14.390   7.392 -0.1235 -0.0997  0.4643
  930YOPE   NH312631  11.783   0.082   5.585  0.0511  0.0104  0.2566
  930YOPE   PO412632  12.149  -0.067   5.720 -0.0575 -0.0528  0.4824
  930YOPE   GL112633  12.211  -0.380   6.231 -0.1002 -0.2072  0.3385
  930YOPE   GL212634  12.436  -0.657   6.297 -0.1696 -0.1176 -0.2180
  930YOPE   C1A12635  11.987  -0.717   6.545  0.1211 -0.0875  0.0329
  930YOPE   D2A12636  11.486  -0.905   6.623 -0.0292 -0.0225 -0.0386
  930YOPE   C3A12637  11.501  -1.034   7.047  0.0739 -0.1372 -0.0669
  930YOPE   C4A12638  11.177  -1.066   7.374 -0.0706  0.5190  0.0860
  930YOPE   C1B12639  12.466  -0.473   6.778 -0.0757  0.2232  0.2031
  930YOPE   C2B12640  12.353  -0.206   7.195  0.2161  0.0791 -0.1940
  930YOPE   D3B12641  12.421   0.006   7.646 -0.1547  0.0393  0.3085
  930YOPE   C4B12642  12.661   0.334   7.756 -0.1271  0.0044 -0.4063
  931YOPE   NH312643   2.439   4.479   5.533  0.3031  0.0441 -0.1635
  931YOPE   PO412644   2.180   4.645   5.255 -0.2728  0.3599 -0.0002
  931YOPE   GL112645   1.908   4.320   5.550  0.1578 -0.2147 -0.0387
  931YOPE   GL212646   2.068   4.256   5.734  0.2757  0.2028  0.0985
  931YOPE   C1A12647   1.706   3.910   5.766  0.1565 -0.1720 -0.1004
  931YOPE   D2A12648   1.556   3.810   6.141  0.0482  0.1141 -0.2164
  931YOPE   C3A12649   1.550   3.697   6.524 -0.0849 -0.2218 -0.2820
  931YOPE   C4A12650   1.644   3.723   7.029 -0.1045 -0.0436  0.0166
  931YOPE   C1B12651   1.969   4.475   6.057 -0.0855  0.1938 -0.4454
  931YOPE   C2B12652   1.767   4.289   6.397  0.0915  0.1248  0.1345
  931YOPE   D3B12653   1.674   4.249   6.802 -0.0249  0.0501  0.0077
  931YOPE   C4B12654   1.981   4.114   7.072 -0.1724  0.0860  0.1328
  932YOPE   NH312655   1.445   0.691   5.298 -0.1297  0.0860 -0.1015
  932YOPE   PO412656   1.326   1.110   5.306 -0.0891  0.0336 -0.0335
  932YOPE   GL112657   1.438   1.102   5.747  0.3166  0.0622 -0.2849
  932YOPE   GL212658   1.183   1.235   5.888  0.1600 -0.0528  0.3638
  932YOPE   C1A12659   1.544   0.838   6.034 -0.0113 -0.0538  0.1060
  932YOPE   D2A12660   1.363   0.511   6.236  0.1061  0.0140  0.1945
  932YOPE   C3A12661   1.221   0.424   6.779 -0.1740  0.0005 -0.1737
  932YOPE   C4A12662   1.146   0.429   7.221  0.2308  0.3741 -0.1647
  932YOPE   C1B12663   1.130   0.969   6.323 -0.0003 -0.3312  0.3587
  932YOPE   C2B12664   1.071   0.988   6.766 -0.1632 -0.0347 -0.0987
  932YOPE   D3B12665   0.869   1.123   7.136  0.0872  0.4651  0.0199
  932YOPE   C4B12666   0.977   1.230   7.520  0.3014 -0.0129 -0.1083
  933YOPE   NH312667   3.753  13.210   6.015  0.0250  0.0088  0.1865
  933YOPE   PO412668   4.134  13.582   6.032  0.0042 -0.1780 -0.2707
  933YOPE   GL112669   4.138  13.401   6.525  0.0406 -0.1469  0.0844
  933YOPE   GL212670   4.268  13.167   6.651 -0.0629 -0.0682 -0.1699
  933YOPE   C1A12671   3.825  13.449   6.854  0.1144  0.1394  0.3093
  933YOPE   D2A12672   3.792  13.510   7.237 -0.0632  0.2773 -0.0203
  933YOPE   C3A12673   3.783  13.379   7.684 -0.3879  0.0292 -0.3380
  933YOPE   C4A12674   3.743  13.476   8.076 -0.2503 -0.5134  0.1773
  933YOPE   C1B12675   4.139  13.092   7.133 -0.0834  0.2333  0.0123
  933YOPE   C2B12676   4.096  12.971   7.586  0.1256 -0.0460 -0.0934
  933YOPE   D3B12677   3.818  12.915   7.881  0.0840 -0.1707 -0.1428
  933YOPE   C4B12678   3.567  13.069   8.255 -0.2265 -0.0152 -0.2835
  934YOPE   NH312679   6.163  17.502   5.783  0.2771 -0.0486 -0.0393
  934YOPE   PO412680   6.489  17.426   5.795  0.1386  0.1999 -0.0600
  934YOPE   GL112681   6.590  17.637   6.178  0.0861  0.1398 -0.1171
  934YOPE   GL212682   6.420  17.364   6.295 -0.1310  0.3938 -0.1485
  934YOPE   C1A12683   6.703  17.523   6.675  0.0603  0.0384  0.1959
  934YOPE   D2A12684   6.618  17.194   7.010  0.0147  0.0522 -0.1054
  934YOPE   C3A12685   6.540  17.321   7.400  0.3286 -0.1477 -0.0219
  934YOPE   C4A12686   6.291  17.482   7.688 -0.3814  0.1283  0.2819
  934YOPE   C1B12687   6.186  17.486   6.739 -0.1446  0.0221 -0.2354
  934YOPE   C2B12688   6.376  17.708   7.039  0.2480 -0.0717  0.0344
  934YOPE   D3B12689   6.685  18.039   7.007  0.0309  0.0622 -0.0591
  934YOPE   C4B12690   7.067  18.102   7.298  0.0747  0.0351 -0.3276
  935YOPE   NH312691   6.568  10.333   5.911  0.0957 -0.1223  0.0767
  935YOPE   PO412692   6.588  10.658   6.097 -0.1862 -0.0394  0.6374
  935YOPE   GL112693   6.524  10.405   6.457 -0.2126 -0.1081 -0.1060
  935YOPE   GL212694   6.515  10.599   6.694 -0.2838  0.0775 -0.1811
  935YOPE   C1A12695   6.733  10.078   6.705 -0.1562  0.0747  0.1064
  935YOPE   D2A12696   6.986  10.128   7.023 -0.0747 -0.2169 -0.1431
  935YOPE   C3A12697   6.777  10.156   7.268  0.3344  0.0135 -0.2390
  935YOPE   C4A12698   6.539  10.126   7.629  0.2037 -0.2624 -0.0993
  935YOPE   C1B12699   6.672  10.626   7.081  0.0400  0.0726  0.1544
  935YOPE   C2B12700   6.640  10.595   7.487  0.0925  0.1199  0.1273
  935YOPE   D3B12701   6.528  10.650   7.821  0.0547 -0.3337 -0.3344
  935YOPE   C4B12702   6.673  10.840   8.203 -0.1051  0.2438  0.0330
  936YOPE   NH312703   3.871  14.906   6.075  0.1910 -0.0833 -0.2125
  936YOPE   PO412704   3.906  14.477   5.934  0.0384 -0.1408  0.1352
  936YOPE   GL112705   3.786  14.458   6.336 -0.1451  0.0957  0.0429
  936YOPE   GL212706   3.617  14.168   6.168 -0.1823  0.2288  0.0819
  936YOPE   C1A12707   3.393  14.596   6.473  0.1414 -0.1669 -0.1396
  936YOPE   D2A12708   2.955  14.698   6.542 -0.0243 -0.1972 -0.1445
  936YOPE   C3A12709   2.813  15.130   6.682 -0.1207 -0.0426 -0.1610
  936YOPE   C4A12710   2.628  15.558   6.852  0.0452  0.2600 -0.2581
  936YOPE   C1B12711   3.465  14.101   6.580 -0.2444  0.3647  0.3710
  936YOPE   C2B12712   3.577  14.299   6.907  0.5150  0.2582 -0.0440
  936YOPE   D3B12713   3.729  14.206   7.318 -0.2304  0.2096 -0.0610
  936YOPE   C4B12714   3.606  14.399   7.722  0.3270 -0.0536 -0.1982
  937YOPE   NH312715   9.572   4.388   5.733  0.0500 -0.1328  0.2491
  937YOPE   PO412716   9.750   4.770   5.803 -0.2369  0.0416  0.3587
  937YOPE   GL112717   9.712   4.997   6.132  0.1565 -0.2224 -0.0699
  937YOPE   GL212718   9.891   5.262   6.109  0.0111 -0.4372  0.0149
  937YOPE   C1A12719   9.757   5.150   6.603 -0.0059 -0.0169  0.0544
  937YOPE   D2A12720   9.875   5.200   6.978  0.4539  0.2079 -0.0641
  937YOPE   C3A12721   9.950   4.962   7.264  0.3660  0.2964 -0.0669
  937YOPE   C4A12722   9.972   4.524   7.172 -0.1360 -0.0422  0.1314
  937YOPE   C1B12723  10.157   5.434   6.444 -0.1822 -0.2214 -0.2372
  937YOPE   C2B12724  10.258   5.432   6.876 -0.2772 -0.1103  0.1544
  937YOPE   D3B12725  10.393   5.245   7.238 -0.2458  0.1298  0.3034
  937YOPE   C4B12726  10.348   5.021   7.655 -0.0144 -0.0055  0.2495
  938YOPE   NH312727   3.758   9.301   5.964 -0.1707 -0.2533  0.0985
  938YOPE   PO412728   4.060   9.058   6.291  0.1141  0.3808  0.1621
  938YOPE   GL112729   4.168   8.883   6.693 -0.3013 -0.2220  0.1219
  938YOPE   GL212730   4.393   9.074   6.936 -0.2472 -0.0647 -0.1125
  938YOPE   C1A12731   4.073   8.738   7.106  0.2058  0.1377  0.2524
  938YOPE   D2A12732   4.045   8.506   7.529  0.0929  0.0503  0.0396
  938YOPE   C3A12733   4.336   8.237   7.720 -0.2208 -0.2062  0.1319
  938YOPE   C4A12734   4.209   7.934   7.882  0.2017  0.2846 -0.2791
  938YOPE   C1B12735   4.504   9.130   7.427  0.0520 -0.0079  0.1571
  938YOPE   C2B12736   4.585   9.204   7.885 -0.0545  0.4161  0.3134
  938YOPE   D3B12737   4.742   9.561   8.104 -0.1196  0.1424  0.6110
  938YOPE   C4B12738   4.907   9.801   8.384  0.2644 -0.0149  0.5568
  939YOPE   NH312739   4.875  10.434   6.434 -0.1986 -0.1838  0.2043
  939YOPE   PO412740   4.592  10.055   6.542  0.0282 -0.1593  0.3002
  939YOPE   GL112741   4.867  10.167   6.863  0.2990  0.1344  0.1702
  939YOPE   GL212742   4.563  10.438   6.970  0.3305 -0.0972 -0.0541
  939YOPE   C1A12743   4.871  10.263   7.353  0.1927  0.0331  0.0184
  939YOPE   D2A12744   4.887  10.079   7.744  0.0246  0.0017 -0.1775
  939YOPE   C3A12745   4.571  10.059   8.139  0.0363  0.0123  0.0727
  939YOPE   C4A12746   4.413  10.480   8.484  0.1041  0.1285  0.3279
  939YOPE   C1B12747   4.527  10.656   7.377  0.0676 -0.1260  0.0019
  939YOPE   C2B12748   4.308  10.429   7.647 -0.3021 -0.3082 -0.2014
  939YOPE   D3B12749   4.114  10.246   7.992 -0.0945  0.3826  0.0127
  939YOPE   C4B12750   3.812   9.903   8.015  0.1877 -0.0142  0.0518
  940YOPE   NH312751  14.991   4.009   5.135 -0.0050  0.3148  0.2250
  940YOPE   PO412752  14.639   4.241   5.370  0.0589 -0.1203 -0.1135
  940YOPE   GL112753  14.809   4.375   5.792  0.1490  0.1991 -0.0217
  940YOPE   GL212754  15.076   4.559   5.929 -0.0243 -0.0551  0.0594
  940YOPE   C1A12755  15.029   4.083   6.127  0.2492  0.1617 -0.1144
  940YOPE   D2A12756  15.227   3.754   6.366 -0.0024  0.1188  0.3198
  940YOPE   C3A12757  15.297   3.711   6.808 -0.1388 -0.1118  0.2398
  940YOPE   C4A12758  15.503   3.622   7.274  0.0331 -0.0885 -0.4317
  940YOPE   C1B12759  15.120   4.475   6.439  0.2274  0.3462  0.3238
  940YOPE   C2B12760  15.301   4.710   6.640  0.2878  0.0204 -0.1352
  940YOPE   D3B12761  15.532   4.848   6.862 -0.2214 -0.1085  0.1232
  940YOPE   C4B12762  15.663   4.938   7.114  0.0743 -0.0678 -0.0169
  941YOPE   NH312763  17.912   9.604   5.599  0.2408  0.1963  0.0429
  941YOPE   PO412764  17.414   9.627   5.671  0.0918  0.0232 -0.1674
  941YOPE   GL112765  17.442   9.430   6.054 -0.0971  0.2142 -0.1714
  941YOPE   GL212766  17.789   9.346   6.185 -0.4794 -0.2493  0.0235
  941YOPE   C1A12767  17.417   9.727   6.397 -0.1732 -0.0171  0.3202
  941YOPE   D2A12768  17.360   9.826   6.805 -0.1762  0.3364  0.1602
  941YOPE   C3A12769  17.312  10.148   7.169  0.4251  0.1756  0.1485
  941YOPE   C4A12770  17.123  10.291   7.416  0.0580  0.1570  0.0318
  941YOPE   C1B12771  17.555   9.298   6.527 -0.0398  0.0258  0.0570
  941YOPE   C2B12772  17.294   9.385   6.834 -0.0500  0.1813 -0.0367
  941YOPE   D3B12773  17.156   9.322   7.264  0.0867  0.3215  0.0701
  941YOPE   C4B12774  17.052   9.250   7.743  0.0758  0.1274  0.1163
  942POPC   NC312775  10.681  17.252   5.470 -0.0387  0.0890 -0.0799
  942POPC   PO412776  10.725  17.601   5.668  0.0987 -0.1408 -0.1563
  942POPC   GL112777  10.884  17.662   5.977  0.1030  0.1832 -0.3082
  942POPC   GL212778  10.810  17.305   6.045  0.1494 -0.2361  0.1947
  942POPC   C1A12779  10.930  17.893   6.337 -0.0396 -0.0004 -0.0142
  942POPC   D2A12780  10.907  17.912   6.644 -0.0348  0.0693 -0.1752
  942POPC   C3A12781  10.682  17.997   6.828  0.2432 -0.0444  0.2986
  942POPC   C4A12782  10.700  17.827   7.222  0.1299  0.0006 -0.0453
  942POPC   C1B12783  10.961  17.378   6.480 -0.1564 -0.1833 -0.3141
  942POPC   C2B12784  11.036  17.468   6.888  0.3184 -0.0811 -0.2337
  942POPC   C3B12785  10.836  17.283   7.155 -0.1372 -0.2459 -0.3688
  942POPC   C4B12786  10.449  16.952   7.057  0.1961 -0.0431  0.1658
  943POPC   NC312787  10.425   2.339   5.038 -0.0685  0.0965  0.1861
  943POPC   PO412788  10.348   2.360   5.461  0.0217  0.2702  0.2304
  943POPC   GL112789  10.553   2.312   5.977  0.0612  0.0008 -0.3060
  943POPC   GL212790  10.768   2.325   6.148  0.0103  0.0326  0.0278
  943POPC   C1A12791  10.390   2.526   6.493 -0.1286  0.0285  0.0490
  943POPC   D2A12792  10.032   2.435   6.751  0.0478 -0.2318 -0.0131
  943POPC   C3A12793  10.139   2.358   7.097 -0.2069  0.0686  0.2131
  943POPC   C4A12794  10.114   2.606   7.382 -0.0824 -0.0252 -0.0536
  943POPC   C1B12795  10.917   2.370   6.518 -0.0674 -0.0350 -0.2146
  943POPC   C2B12796  11.048   2.353   6.999 -0.0654 -0.2727 -0.1096
  943POPC   C3B12797  10.965   2.434   7.396  0.1436  0.1172 -0.0106
  943POPC   C4B12798  10.591   2.516   7.579  0.0305  0.0752  0.1349
  944POPC   NC312799   2.018   9.699   5.661 -0.2836 -0.1723 -0.3917
  944POPC   PO412800   2.491   9.709   5.764 -0.1025 -0.3914  0.0459
  944POPC   GL112801   2.667   9.793   6.148 -0.1349  0.0173 -0.1570
  944POPC   GL212802   2.467  10.018   6.310 -0.0600  0.0474 -0.0714
  944POPC   C1A12803   2.847   9.714   6.614  0.1737  0.0981 -0.0190
  944POPC   D2A12804   2.935   9.545   6.970  0.1367  0.0833 -0.0812
  944POPC   C3A12805   2.779   9.153   7.180 -0.1845 -0.2200  0.1010
  944POPC   C4A12806   2.722   9.164   7.567 -0.2652  0.3123 -0.6295
  944POPC   C1B12807   2.200  10.032   6.545  0.0807  0.0009 -0.1963
  944POPC   C2B12808   1.967   9.992   6.852 -0.0019 -0.1931 -0.0620
  944POPC   C3B12809   2.014   9.920   7.313  0.2153  0.3513 -0.1870
  944POPC   C4B12810   1.677   9.904   7.586  0.0674  0.1213 -0.2028
  945POPC   NC312811   5.883   3.050   5.391 -0.1252 -0.1830  0.1040
  945POPC   PO412812   5.877   2.610   5.425 -0.1893  0.3313  0.0820
  945POPC   GL112813   5.745   2.820   5.828 -0.2548 -0.3439  0.1575
  945POPC   GL212814   5.397   2.997   5.861 -0.1486 -0.3076 -0.0187
  945POPC   C1A12815   5.724   3.099   6.250  0.0265 -0.3177 -0.0291
  945POPC   D2A12816   5.403   3.259   6.513  0.1029 -0.0491 -0.2084
  945POPC   C3A12817   5.434   3.003   6.935 -0.2123 -0.3288  0.6049
  945POPC   C4A12818   5.227   3.132   7.409 -0.1169 -0.0397  0.2559
  945POPC   C1B12819   5.176   2.941   6.084 -0.1195 -0.3474  0.0943
  945POPC   C2B12820   4.946   3.089   6.448  0.1089  0.1059  0.0651
  945POPC   C3B12821   5.005   3.270   6.916 -0.0479 -0.1142 -0.2103
  945POPC   C4B12822   4.842   3.480   7.213  0.4410 -0.2956 -0.2210
  946POPC   NC312823  13.021   5.115   5.595  0.1554 -0.1305 -0.2723
  946POPC   PO412824  12.800   4.844   5.798 -0.0151 -0.1782  0.0677
  946POPC   GL112825  12.728   4.611   6.193  0.3091  0.0681 -0.0974
  946POPC   GL212826  12.504   4.474   5.993 -0.1487 -0.0526 -0.0723
  946POPC   C1A12827  12.608   4.536   6.616  0.0814  0.0644  0.0462
  946POPC   D2A12828  12.796   4.475   6.942 -0.1884  0.1317 -0.2013
  946POPC   C3A12829  12.823   4.700   7.251  0.0074  0.1534 -0.0884
  946POPC   C4A12830  12.725   4.694   7.637 -0.3160  0.2035 -0.1636
  946POPC   C1B12831  12.538   4.119   6.320 -0.3989  0.0684  0.0945
  946POPC   C2B12832  12.570   4.078   6.751  0.0509 -0.0663 -0.1636
  946POPC   C3B12833  12.859   3.955   7.089 -0.1525  0.0693 -0.1332
  946POPC   C4B12834  12.853   3.735   7.416 -0.0283 -0.0941  0.1769
  947POPC   NC312835  14.261  13.787   5.064  0.1101  0.0710  0.3489
  947POPC   PO412836  14.347  13.520   5.378 -0.2449 -0.0468 -0.1144
  947POPC   GL112837  14.439  13.259   5.772  0.1650  0.0099  0.2281
  947POPC   GL212838  14.532  12.912   5.826 -0.0623  0.1882  0.0770
  947POPC   C1A12839  14.281  13.309   6.145 -0.3650  0.0370 -0.0304
  947POPC   D2A12840  14.097  13.293   6.598 -0.1510 -0.1045  0.1330
  947POPC   C3A12841  14.223  13.286   7.110 -0.2204  0.0652  0.1743
  947POPC   C4A12842  14.060  13.343   7.543  0.3772  0.0765 -0.0871
  947POPC   C1B12843  14.626  12.957   6.174 -0.1428 -0.0467  0.0693
  947POPC   C2B12844  14.396  12.934   6.586 -0.2020 -0.0642 -0.0167
  947POPC   C3B12845  14.238  12.757   6.953 -0.2528  0.0576  0.0858
  947POPC   C4B12846  14.156  12.674   7.324  0.0288 -0.0847  0.0753
  948POPC   NC312847  17.843   6.260   5.246  0.0685  0.1930  0.1938
  948POPC   PO412848  17.883   5.825   5.480  0.0672  0.1433  0.1641
  948POPC   GL112849  17.900   5.640   5.927  0.0696 -0.0036 -0.0510
  948POPC   GL212850  17.745   5.847   6.094  0.3072  0.2129  0.1254
  948POPC   C1A12851  17.796   5.448   6.397  0.2734 -0.0408  0.0062
  948POPC   D2A12852  17.990   5.121   6.755  0.0429  0.2164 -0.5432
  948POPC   C3A12853  17.841   4.798   6.909 -0.2387 -0.1198  0.1760
  948POPC   C4A12854  18.001   4.433   7.139 -0.0785  0.1069 -0.0378
  948POPC   C1B12855  18.204   5.857   6.243  0.1918  0.2865 -0.0895
  948POPC   C2B12856  18.284   5.830   6.722  0.1022  0.1730 -0.1454
  948POPC   C3B12857  18.537   5.762   7.128 -0.2066 -0.2651  0.1677
  948POPC   C4B12858  18.594   6.110   7.524  0.2485 -0.0322 -0.0257
  949POPC   NC312859   4.268   4.917   5.317  0.1068  0.0063 -0.2517
  949POPC   PO412860   4.148   5.324   5.498 -0.1578  0.1595  0.4751
  949POPC   GL112861   4.283   5.092   5.870  0.1000 -0.3238  0.0352
  949POPC   GL212862   4.201   4.818   5.768  0.1854 -0.0383  0.2683
  949POPC   C1A12863   4.683   4.792   6.022 -0.4633  0.1215 -0.2976
  949POPC   D2A12864   5.003   4.422   6.030  0.2875  0.3256 -0.1367
  949POPC   C3A12865   4.935   4.156   6.343  0.0704 -0.0062  0.1533
  949POPC   C4A12866   4.829   3.987   6.630  0.0302 -0.0644 -0.1742
  949POPC   C1B12867   4.222   4.754   6.286  0.2049 -0.6587  0.3401
  949POPC   C2B12868   4.410   4.895   6.649  0.0082  0.1966  0.1556
  949POPC   C3B12869   4.537   5.012   7.017  0.3070 -0.2167 -0.2496
  949POPC   C4B12870   4.533   4.805   7.355  0.0830  0.0269  0.1620
  950POPC   NC312871   2.915   8.900   5.812 -0.0956  0.0253  0.2213
  950POPC   PO412872   3.372   8.882   5.904 -0.4888 -0.1237  0.2156
  950POPC   GL112873   3.476   8.943   6.389 -0.3210 -0.0348  0.4050
  950POPC   GL212874   3.634   9.172   6.543  0.1578 -0.0105 -0.1569
  950POPC   C1A12875   3.214   8.696   6.735 -0.0458 -0.1464 -0.0377
  950POPC   D2A12876   3.056   8.759   7.066 -0.0613 -0.5165  0.2411
  950POPC   C3A12877   3.178   8.774   7.389 -0.0235  0.2388 -0.0480
  950POPC   C4A12878   3.133   8.826   7.761 -0.3019  0.0624 -0.0742
  950POPC   C1B12879   3.809   9.167   6.942 -0.3287 -0.1189 -0.0896
  950POPC   C2B12880   4.091   9.303   7.210 -0.4294 -0.0101 -0.0699
  950POPC   C3B12881   4.355   9.625   7.141 -0.2505  0.1826 -0.1162
  950POPC   C4B12882   4.434  10.045   7.375  0.0954 -0.1701  0.0118
  951POPC   NC312883  16.732   6.059   5.519  0.1194  0.1927  0.0867
  951POPC   PO412884  16.445   6.248   5.734  0.0028 -0.4273  0.1701
  951POPC   GL112885  16.574   5.946   5.968  0.1347 -0.2021  0.0835
  951POPC   GL212886  16.724   6.018   6.142 -0.2061  0.3029 -0.2434
  951POPC   C1A12887  16.686   5.579   6.350 -0.3718 -0.0736 -0.3121
  951POPC   D2A12888  16.692   5.646   6.806  0.0712 -0.2247 -0.3327
  951POPC   C3A12889  16.390   5.983   7.000 -0.1498  0.1703  0.0420
  951POPC   C4A12890  16.083   6.219   6.881  0.2842 -0.3754  0.0070
  951POPC   C1B12891  16.807   6.040   6.568 -0.2424 -0.1065  0.0233
  951POPC   C2B12892  16.947   6.151   7.017  0.2778  0.5556 -0.1628
  951POPC   C3B12893  16.945   6.317   7.463  0.1924 -0.0863  0.0330
  951POPC   C4B12894  16.663   6.640   7.670 -0.3026  0.1387 -0.2876
  952POPC   NC312895   0.277   8.347   5.457  0.1128 -0.3575 -0.0082
  952POPC   PO412896   0.427   8.077   5.696  0.0415  0.1140 -0.3059
  952POPC   GL112897   0.403   7.792   6.166  0.2049 -0.2244  0.1210
  952POPC   GL212898   0.022   7.717   6.162 -0.2609 -0.1577 -0.2146
  952POPC   C1A12899   0.434   7.590   6.526  0.0127  0.1590  0.1378
  952POPC   D2A12900   0.271   7.426   6.861 -0.0533  0.0444 -0.3242
  952POPC   C3A12901   0.120   7.007   6.828 -0.0366 -0.0152  0.1585
  952POPC   C4A12902  -0.292   6.689   6.905 -0.1157  0.1871  0.1017
  952POPC   C1B12903  -0.104   7.539   6.498  0.1007 -0.0972 -0.2480
  952POPC   C2B12904  -0.352   7.495   6.856 -0.0703  0.0296  0.1929
  952POPC   C3B12905  -0.704   7.632   7.151 -0.7346 -0.1396 -0.2244
  952POPC   C4B12906  -0.995   7.693   7.529 -0.1844 -0.0901  0.0092
  953POPC   NC312907   8.931   2.444   5.576  0.3867 -0.0413 -0.0848
  953POPC   PO412908   9.153   2.809   5.629  0.2929 -0.0537 -0.1632
  953POPC   GL112909   9.184   2.762   6.012  0.0907 -0.1748  0.3137
  953POPC   GL212910   9.003   2.522   6.036  0.0531  0.0302 -0.0047
  953POPC   C1A12911   9.190   2.841   6.400 -0.1151 -0.1406 -0.0473
  953POPC   D2A12912   9.275   2.991   6.732  0.0686  0.0040 -0.0887
  953POPC   C3A12913   9.040   2.782   7.142  0.0170 -0.0686 -0.0270
  953POPC   C4A12914   9.037   2.504   7.512 -0.4510 -0.2869  0.3238
  953POPC   C1B12915   8.797   2.408   6.381  0.2433 -0.0834  0.2336
  953POPC   C2B12916   8.776   2.544   6.822 -0.1314 -0.0906 -0.0461
  953POPC   C3B12917   8.584   2.708   7.121 -0.0284 -0.2067 -0.1611
  953POPC   C4B12918   8.586   2.985   7.538 -0.1936  0.2499  0.1142
  954POPC   NC312919   1.623   6.426   5.431 -0.0886  0.2791  0.0624
  954POPC   PO412920   1.380   6.137   5.334 -0.0502  0.1258 -0.0679
  954POPC   GL112921   1.243   6.087   5.870 -0.2858 -0.1807 -0.1156
  954POPC   GL212922   1.158   6.495   5.812  0.1262  0.0906 -0.0848
  954POPC   C1A12923   1.079   5.848   6.171 -0.0451 -0.4124  0.0604
  954POPC   D2A12924   0.956   6.000   6.522 -0.2478 -0.1070 -0.0960
  954POPC   C3A12925   1.101   5.949   6.913 -0.0756 -0.1733 -0.2359
  954POPC   C4A12926   1.217   5.781   7.343  0.3109  0.2270  0.1527
  954POPC   C1B12927   1.165   6.487   6.239  0.0591 -0.1451  0.4087
  954POPC   C2B12928   1.370   6.314   6.462  0.0812 -0.0197 -0.0177
  954POPC   C3B12929   1.708   6.070   6.705  0.0176  0.3293  0.1766
  954POPC   C4B12930   1.711   6.025   7.198  0.1339 -0.1357 -0.2335
  955POPC   NC312931   5.075  12.112   6.136 -0.0974  0.1165  0.1170
  955POPC   PO412932   4.667  12.181   6.259 -0.2140  0.1088 -0.2704
  955POPC   GL112933   4.944  12.162   6.606  0.0604  0.2439 -0.4130
  955POPC   GL212934   4.953  12.504   6.459 -0.2905 -0.2250  0.1061
  955POPC   C1A12935   5.308  12.381   6.812 -0.2301 -0.0605  0.2286
  955POPC   D2A12936   5.576  12.730   6.734  0.0066  0.0676 -0.1521
  955POPC   C3A12937   5.705  12.968   7.124 -0.0444  0.0455 -0.2734
  955POPC   C4A12938   5.562  13.060   7.527 -0.1951 -0.2154  0.3382
  955POPC   C1B12939   4.837  12.570   6.876  0.1215  0.1009  0.1421
  955POPC   C2B12940   4.738  12.892   7.085 -0.2332 -0.2662  0.1764
  955POPC   C3B12941   4.620  12.794   7.436 -0.2914 -0.3583  0.0704
  955POPC   C4B12942   4.539  12.680   7.840 -0.2177 -0.2509 -0.1540
  956POPC   NC312943   8.390  10.604   5.705  0.0118 -0.0499  0.3533
  956POPC   PO412944   8.848  10.504   5.775  0.2962 -0.0645  0.0001
  956POPC   GL112945   9.012  10.568   6.070  0.3309 -0.1117 -0.3940
  956POPC   GL212946   9.417  10.573   6.069  0.0131 -0.4294  0.0785
  956POPC   C1A12947   9.144  10.445   6.562  0.1350  0.0288  0.0615
  956POPC   D2A12948   9.350  10.250   6.936  0.2383 -0.2836  0.1895
  956POPC   C3A12949   9.248  10.460   7.332  0.2729 -0.0063  0.1765
  956POPC   C4A12950   8.988  10.789   7.517 -0.3247 -0.1380 -0.1200
  956POPC   C1B12951   9.566  10.264   6.263 -0.0183  0.1610  0.0815
  956POPC   C2B12952   9.897   9.965   6.265 -0.2263 -0.0128  0.1768
  956POPC   C3B12953  10.202   9.622   6.315  0.2158  0.1414 -0.0699
  956POPC   C4B12954  10.509   9.285   6.594  0.1066 -0.0918  0.0731
  957POPC   NC312955  10.248   0.634   5.372  0.2430  0.0099 -0.2321
  957POPC   PO412956   9.997   0.293   5.388  0.2484  0.1276  0.3700
  957POPC   GL112957  10.053   0.234   5.818 -0.3719 -0.1631  0.2006
  957POPC   GL212958   9.753   0.258   5.951  0.3461  0.0584  0.2258
  957POPC   C1A12959  10.447   0.110   6.062 -0.2079 -0.1560  0.2411
  957POPC   D2A12960  10.819   0.279   6.411  0.2033  0.0752 -0.0083
  957POPC   C3A12961  10.791   0.177   6.840 -0.0793 -0.2901 -0.1164
  957POPC   C4A12962  10.670   0.162   7.168  0.0678 -0.1407  0.1745
  957POPC   C1B12963   9.670   0.584   6.192  0.0098 -0.0754  0.0804
  957POPC   C2B12964   9.715   0.706   6.713  0.2107  0.0103  0.2109
  957POPC   C3B12965   9.466   0.867   7.020  0.0760 -0.0688 -0.2568
  957POPC   C4B12966   9.249   0.640   7.334 -0.3692  0.0119  0.1170
  958POPC   NC312967  16.038   1.252   5.501  0.0846  0.2000 -0.0930
  958POPC   PO412968  16.124   1.671   5.517  0.0337 -0.1574  0.0446
  958POPC   GL112969  16.152   1.890   5.789  0.0625  0.0907  0.1662
  958POPC   GL212970  16.411   1.970   5.952 -0.2030  0.1352  0.0031
  958POPC   C1A12971  16.019   2.015   6.311 -0.2316 -0.2830 -0.2943
  958POPC   D2A12972  16.018   1.892   6.710 -0.1742 -0.2127  0.0522
  958POPC   C3A12973  15.821   1.710   6.921  0.1415  0.1849  0.0003
  958POPC   C4A12974  15.538   1.340   6.931  0.0990  0.1140  0.0802
  958POPC   C1B12975  16.485   2.036   6.424 -0.0678 -0.3219  0.1187
  958POPC   C2B12976  16.440   2.080   6.835  0.2395  0.2570  0.1023
  958POPC   C3B12977  16.179   2.032   7.221  0.4890  0.0286  0.2174
  958POPC   C4B12978  16.371   2.091   7.598  0.0049 -0.0121 -0.1491
  959POPC   NC312979  15.371   0.023   4.935  0.0599 -0.0569 -0.0984
  959POPC   PO412980  15.475   0.237   5.340  0.1776  0.0083 -0.0178
  959POPC   GL112981  15.254   0.168   5.781  0.3253  0.0408  0.2494
  959POPC   GL212982  15.025  -0.054   5.824 -0.4236  0.1871  0.1801
  959POPC   C1A12983  15.201   0.556   5.998  0.3252 -0.0748  0.4243
  959POPC   D2A12984  15.333   0.578   6.467 -0.0676  0.0853  0.0473
  959POPC   C3A12985  15.509   1.035   6.407  0.0730  0.0619 -0.0104
  959POPC   C4A12986  15.641   1.509   6.467  0.2004  0.4658 -0.1082
  959POPC   C1B12987  14.854  -0.023   6.211 -0.0337  0.3655  0.1024
  959POPC   C2B12988  14.692  -0.034   6.657  0.0542  0.2765  0.2859
  959POPC   C3B12989  14.417  -0.129   6.929  0.0181 -0.2396 -0.0547
  959POPC   C4B12990  14.178  -0.121   7.392 -0.0249 -0.0867  0.2224
  960POPC   NC312991   4.289   9.986   6.145  0.3167 -0.1897  0.0298
  960POPC   PO412992   4.234  10.390   6.259 -0.1998 -0.4327 -0.2313
  960POPC   GL112993   4.126  10.541   6.552  0.0280 -0.1460 -0.0342
  960POPC   GL212994   4.415  10.773   6.625 -0.1733  0.1462  0.2634
  960POPC   C1A12995   4.026  10.473   6.978 -0.3016 -0.0866 -0.1688
  960POPC   D2A12996   3.952  10.622   7.348 -0.3959 -0.1237 -0.1067
  960POPC   C3A12997   3.728  10.302   7.577  0.2653 -0.0069 -0.0845
  960POPC   C4A12998   3.374  10.369   7.832  0.0474  0.3749 -0.2424
  960POPC   C1B12999   4.588  11.108   6.993 -0.0227 -0.0533  0.1204
  960POPC   C2B13000   4.322  11.548   7.167  0.2904  0.1015 -0.1467
  960POPC   C3B13001   4.037  11.475   7.568 -0.2376  0.1817 -0.1545
  960POPC   C4B13002   3.917  11.763   7.918  0.1089  0.0276  0.2410
  961POPC   NC313003   9.821   1.066   5.408 -0.3692 -0.1060  0.1166
  961POPC   PO413004   9.612   1.438   5.455  0.1560 -0.1416 -0.1590
  961POPC   GL113005   9.720   1.676   5.845 -0.2899 -0.1248 -0.0483
  961POPC   GL213006   9.691   1.974   5.947 -0.0586  0.0792  0.1252
  961POPC   C1A13007   9.954   1.588   6.321  0.2108  0.1231  0.0016
  961POPC   D2A13008   9.979   1.676   6.750 -0.2204  0.4333 -0.1395
  961POPC   C3A13009  10.199   1.581   7.005  0.2464  0.0002  0.0829
  961POPC   C4A13010  10.349   1.113   7.115 -0.0786 -0.1071  0.0746
  961POPC   C1B13011   9.703   2.018   6.486 -0.0981 -0.4681  0.0806
  961POPC   C2B13012   9.698   2.092   6.974 -0.1432  0.1377 -0.0166
  961POPC   C3B13013   9.618   1.707   7.093 -0.1331  0.1789 -0.0788
  961POPC   C4B13014   9.368   1.493   7.569  0.0445  0.3972 -0.0465
  962POPC   NC313015   4.680   1.783   5.099 -0.0336  0.1105  0.2327
  962POPC   PO413016   4.762   1.694   5.529 -0.1076  0.2387 -0.2966
  962POPC   GL113017   4.597   1.833   5.898 -0.0958 -0.2109  0.3753
  962POPC   GL213018   4.818   2.106   5.853 -0.1272 -0.2748 -0.3219
  962POPC   C1A13019   4.477   1.583   6.207 -0.0132 -0.1728  0.0651
  962POPC   D2A13020   4.180   1.582   6.448 -0.1786  0.1105  0.1954
  962POPC   C3A13021   4.321   1.500   6.772 -0.1664  0.1273 -0.0119
  962POPC   C4A13022   4.565   1.403   7.072  0.1201 -0.1738 -0.0260
  962POPC   C1B13023   4.755   2.262   6.342 -0.0089 -0.0366 -0.0324
  962POPC   C2B13024   4.658   1.997   6.622  0.0023 -0.1984 -0.0909
  962POPC   C3B13025   4.377   1.872   7.037 -0.0783 -0.0918 -0.0893
  962POPC   C4B13026   4.326   1.686   7.479  0.0187  0.1260 -0.1934
  963POPC   NC313027   1.473   5.728   5.596 -0.0767  0.0876  0.1330
  963POPC   PO413028   1.465   5.179   5.490  0.0275 -0.1223 -0.0643
  963POPC   GL113029   1.196   4.941   5.709  0.1050  0.1442 -0.5395
  963POPC   GL213030   1.142   4.587   5.699  0.0128  0.2810  0.4474
  963POPC   C1A13031   0.869   4.937   6.084  0.3137 -0.0367  0.0827
  963POPC   D2A13032   0.790   5.199   6.486  0.1053  0.3605  0.1883
  963POPC   C3A13033   0.708   5.115   6.928 -0.0457 -0.0534 -0.1529
  963POPC   C4A13034   0.731   4.810   7.113 -0.1017 -0.3061 -0.0986
  963POPC   C1B13035   1.335   4.283   6.025 -0.0625  0.0634  0.0799
  963POPC   C2B13036   1.271   4.177   6.452 -0.0975 -0.0684 -0.2139
  963POPC   C3B13037   1.231   3.989   6.781 -0.4681  0.0545 -0.0209
  963POPC   C4B13038   1.278   4.004   7.229  0.2579  0.2491  0.2328
  964POPC   NC313039  10.462   4.585   5.699 -0.0735 -0.1946  0.2884
  964POPC   PO413040  10.109   4.365   5.648 -0.1263 -0.1169 -0.1131
  964POPC   GL113041  10.082   4.473   6.089  0.2242  0.1593 -0.0360
  964POPC   GL213042   9.846   4.450   6.191  0.1215 -0.2075 -0.1131
  964POPC   C1A13043  10.247   4.369   6.506 -0.4497  0.1301 -0.1793
  964POPC   D2A13044  10.023   4.020   6.680 -0.1829 -0.0033 -0.0386
  964POPC   C3A13045  10.021   4.063   7.136 -0.2443  0.2140 -0.0865
  964POPC   C4A13046  10.103   4.180   7.539 -0.0452  0.0460 -0.3605
  964POPC   C1B13047   9.671   4.623   6.618 -0.1889 -0.1102  0.2750
  964POPC   C2B13048   9.620   4.748   6.938 -0.3737 -0.1375  0.1675
  964POPC   C3B13049   9.486   4.786   7.413  0.2050  0.1405 -0.0767
  964POPC   C4B13050   9.370   4.810   7.724 -0.2630  0.0854  0.0728
  965POPC   NC313051   3.575  11.460   5.651  0.3940  0.1010 -0.0925
  965POPC   PO413052   3.567  12.029   5.670  0.0248  0.2387 -0.0544
  965POPC   GL113053   3.751  11.864   6.088  0.1182 -0.0872  0.0959
  965POPC   GL213054   3.804  11.531   6.153 -0.0215 -0.1386  0.0171
  965POPC   C1A13055   3.638  11.990   6.480  0.1771  0.3759  0.2388
  965POPC   D2A13056   3.386  11.839   6.720 -0.0460  0.5404  0.1129
  965POPC   C3A13057   3.228  12.067   7.068 -0.2406  0.0075  0.0302
  965POPC   C4A13058   2.955  12.447   6.980 -0.0993  0.0755 -0.1241
  965POPC   C1B13059   3.909  11.578   6.621  0.0472  0.2858  0.3774
  965POPC   C2B13060   4.405  11.746   6.717  0.1282 -0.0238 -0.2632
  965POPC   C3B13061   4.624  12.105   7.044  0.0660  0.1097 -0.5758
  965POPC   C4B13062   5.034  12.333   7.223  0.0495  0.2634  0.0029
  966POPC   NC313063  11.728  10.804   5.599  0.1165  0.0670 -0.1686
  966POPC   PO413064  11.906  11.161   5.652  0.2462 -0.0956 -0.0902
  966POPC   GL113065  11.932  11.083   6.101 -0.1751 -0.2041  0.1849
  966POPC   GL213066  12.070  11.438   6.191  0.1949  0.0586 -0.1274
  966POPC   C1A13067  11.704  10.992   6.542  0.3244 -0.0210  0.1331
  966POPC   D2A13068  11.576  10.937   6.962  0.1600 -0.0773 -0.0135
  966POPC   C3A13069  11.722  10.884   7.398 -0.0391  0.0698  0.3187
  966POPC   C4A13070  11.793  10.597   7.840 -0.0381  0.1695  0.0933
  966POPC   C1B13071  11.940  11.583   6.588  0.0701  0.1415 -0.0267
  966POPC   C2B13072  11.739  11.401   6.849  0.0272  0.1663 -0.2263
  966POPC   C3B13073  11.722  11.365   7.232  0.1593  0.0838  0.1222
  966POPC   C4B13074  12.125  11.226   7.349 -0.1168  0.0516  0.0933
  967POPC   NC313075  14.629   6.644   5.398  0.0517 -0.0778 -0.2012
  967POPC   PO413076  15.008   6.621   5.480  0.3689  0.0276  0.2467
  967POPC   GL113077  15.042   6.537   5.926  0.0243  0.0174  0.1482
  967POPC   GL213078  14.931   6.207   5.951 -0.1223 -0.0048 -0.1793
  967POPC   C1A13079  15.244   6.533   6.250 -0.0595  0.3739 -0.0672
  967POPC   D2A13080  15.567   6.758   6.495 -0.0816 -0.1644 -0.3632
  967POPC   C3A13081  15.672   6.502   6.908  0.0224  0.0857  0.0662
  967POPC   C4A13082  15.652   5.990   7.036  0.0226  0.1749  0.0160
  967POPC   C1B13083  14.665   6.573   6.187  0.0571  0.0840 -0.0556
  967POPC   C2B13084  14.509   6.683   6.520 -0.1560 -0.1173 -0.0880
  967POPC   C3B13085  14.483   6.555   6.912  0.2360  0.1637  0.1340
  967POPC   C4B13086  14.380   6.137   7.132  0.0190  0.1293  0.2280
  968POPC   NC313087  16.842  11.083   5.075  0.0260  0.3377  0.0092
  968POPC   PO413088  17.095  10.902   5.365  0.2382  0.2729 -0.1201
  968POPC   GL113089  17.178  10.840   5.799 -0.2285 -0.1224 -0.0041
  968POPC   GL213090  17.590  10.947   5.784 -0.1926  0.0381 -0.1578
  968POPC   C1A13091  16.928  11.088   6.104 -0.3444 -0.2307  0.6386
  968POPC   D2A13092  17.072  11.467   6.245  0.1684  0.0629 -0.1728
  968POPC   C3A13093  17.514  11.594   6.474 -0.2204 -0.3806  0.2736
  968POPC   C4A13094  17.621  11.944   6.624 -0.1236 -0.0545 -0.0248
  968POPC   C1B13095  17.415  11.060   6.215  0.2390 -0.0486 -0.1327
  968POPC   C2B13096  17.251  11.291   6.690  0.0015 -0.0773  0.1082
  968POPC   C3B13097  17.155  11.171   7.120  0.2145  0.0201  0.4213
  968POPC   C4B13098  17.255  10.801   7.479 -0.0256  0.1409  0.2584
  969POPC   NC313099  16.423  18.167   5.574  0.1008 -0.0691 -0.1936
  969POPC   PO413100  16.174  18.511   5.541 -0.1861  0.0026  0.2286
  969POPC   GL113101  16.187  18.578   5.989  0.0945 -0.2889  0.0097
  969POPC   GL213102  16.538  18.386   6.016 -0.1536 -0.0604 -0.1432
  969POPC   C1A13103  15.946  18.528   6.336  0.1887 -0.0395 -0.3467
  969POPC   D2A13104  15.646  18.295   6.548  0.0665 -0.0690 -0.1957
  969POPC   C3A13105  15.514  18.508   7.014  0.2366 -0.1293 -0.2486
  969POPC   C4A13106  15.547  18.606   7.466 -0.0534 -0.1319  0.1124
  969POPC   C1B13107  16.407  18.428   6.429  0.0266 -0.2734  0.1102
  969POPC   C2B13108  16.360  18.429   6.853  0.0719  0.0994 -0.1167
  969POPC   C3B13109  16.343  18.295   7.306  0.1834 -0.0117  0.1208
  969POPC   C4B13110  16.116  18.472   7.715  0.3125 -0.2534  0.2742
  970POPC   NC313111  10.904   6.816   5.364 -0.0841  0.0698  0.1911
  970POPC   PO413112  11.194   6.416   5.613  0.0654  0.0241  0.1177
  970POPC   GL113113  11.449   6.480   5.957 -0.2907 -0.1400  0.1572
  970POPC   GL213114  11.518   6.772   6.087  0.0663  0.1735 -0.1870
  970POPC   C1A13115  11.472   6.413   6.395 -0.1360 -0.0250 -0.2908
  970POPC   D2A13116  11.494   6.535   6.851 -0.2983  0.0602  0.2413
  970POPC   C3A13117  11.446   6.972   6.975  0.1397 -0.1133  0.1182
  970POPC   C4A13118  11.769   7.205   7.247  0.2659 -0.2672  0.0088
  970POPC   C1B13119  11.383   6.883   6.455  0.4186 -0.0475  0.0578
  970POPC   C2B13120  11.434   7.261   6.550 -0.3250  0.1988  0.1789
  970POPC   C3B13121  11.128   7.539   6.508 -0.2133  0.2888 -0.2677
  970POPC   C4B13122  10.820   7.570   6.223  0.0756 -0.4898 -0.0314
  971POPC   NC313123   8.317   5.359   5.431  0.2718 -0.1699  0.0469
  971POPC   PO413124   8.372   5.809   5.697 -0.0419  0.1041  0.2826
  971POPC   GL113125   8.221   6.040   6.069  0.1959  0.1060 -0.2148
  971POPC   GL213126   7.845   6.071   6.099  0.2826 -0.0278  0.1247
  971POPC   C1A13127   8.221   6.168   6.499  0.2930 -0.0850  0.0042
  971POPC   D2A13128   8.297   6.296   6.940  0.0818 -0.0096  0.2676
  971POPC   C3A13129   8.426   6.098   7.209  0.1040  0.2409 -0.0754
  971POPC   C4A13130   8.694   5.874   7.411 -0.1541 -0.3179  0.2317
  971POPC   C1B13131   7.860   5.712   6.331  0.1425  0.2514 -0.2190
  971POPC   C2B13132   7.937   5.344   6.430  0.0165  0.0534 -0.1271
  971POPC   C3B13133   8.255   4.994   6.380 -0.1751 -0.2639  0.1023
  971POPC   C4B13134   8.601   5.009   6.453 -0.1533  0.3030  0.2083
  972POPC   NC313135   8.886   7.494   5.084 -0.0929  0.1316  0.0382
  972POPC   PO413136   8.868   7.496   5.601  0.1814 -0.0236 -0.3414
  972POPC   GL113137   8.885   7.421   6.090 -0.1158  0.1358  0.1171
  972POPC   GL213138   8.724   7.382   6.280  0.1710 -0.1402 -0.2575
  972POPC   C1A13139   9.001   6.974   6.297  0.1698 -0.2971 -0.0451
  972POPC   D2A13140   9.133   6.757   6.666  0.2383 -0.0991  0.3390
  972POPC   C3A13141   8.947   6.836   6.946 -0.2292  0.0254  0.2048
  972POPC   C4A13142   8.801   6.909   7.409  0.3406  0.1300  0.0679
  972POPC   C1B13143   8.552   7.188   6.560  0.1148  0.0245  0.1973
  972POPC   C2B13144   8.553   7.155   7.058 -0.0739 -0.1689 -0.0032
  972POPC   C3B13145   8.504   7.382   7.490  0.2231 -0.1151 -0.3817
  972POPC   C4B13146   8.175   7.442   7.790 -0.2187  0.5018  0.0346
  973POPC   NC313147  15.921   7.837   5.292 -0.0716 -0.1538 -0.0158
  973POPC   PO413148  16.427   7.789   5.333 -0.3738 -0.0646 -0.3715
  973POPC   GL113149  16.714   7.796   5.721  0.0650 -0.0848  0.2193
  973POPC   GL213150  16.966   7.746   5.961  0.1905 -0.0932 -0.0627
  973POPC   C1A13151  16.539   7.856   6.209  0.0026  0.1426  0.0453
  973POPC   D2A13152  16.347   7.897   6.613  0.1615 -0.1630 -0.0471
  973POPC   C3A13153  16.605   7.680   6.902 -0.3447 -0.1049  0.0749
  973POPC   C4A13154  16.946   7.631   6.770  0.1713 -0.0503 -0.2149
  973POPC   C1B13155  17.047   7.892   6.384  0.0760  0.0899 -0.0169
  973POPC   C2B13156  17.281   8.198   6.623  0.0733  0.2656 -0.0008
  973POPC   C3B13157  17.614   8.273   6.774 -0.0631 -0.1313  0.0858
  973POPC   C4B13158  17.703   8.529   7.238  0.2506 -0.0855 -0.0454
  974POPC   NC313159   4.771   6.660   5.429 -0.2789 -0.0050  0.1314
  974POPC   PO413160   4.487   6.371   5.576 -0.3723 -0.2369 -0.0600
  974POPC   GL113161   4.676   6.312   5.994 -0.1488 -0.0164 -0.1578
  974POPC   GL213162   4.959   6.405   6.067  0.1521 -0.0754 -0.0011
  974POPC   C1A13163   4.783   5.940   6.264  0.0330  0.0755 -0.0193
  974POPC   D2A13164   4.743   5.569   6.430 -0.0377 -0.1828  0.0618
  974POPC   C3A13165   4.657   5.185   6.351 -0.2166 -0.1157 -0.0550
  974POPC   C4A13166   4.955   4.972   6.451  0.0620 -0.0199  0.2253
  974POPC   C1B13167   4.855   6.385   6.446  0.0230 -0.0659  0.2063
  974POPC   C2B13168   4.747   6.498   6.760  0.0854  0.0382 -0.0791
  974POPC   C3B13169   4.595   6.491   7.119  0.3313 -0.2071  0.2244
  974POPC   C4B13170   4.680   6.612   7.631  0.2375  0.1208  0.3591
  975POPC   NC313171   8.455   2.179   5.157  0.0540 -0.3241  0.2296
  975POPC   PO413172   8.478   2.521   5.552 -0.0384 -0.5426 -0.1185
  975POPC   GL113173   8.458   2.317   6.028  0.1626  0.1451 -0.0741
  975POPC   GL213174   8.787   2.086   5.920 -0.2103 -0.3226  0.1960
  975POPC   C1A13175   8.688   1.955   6.340  0.0714  0.1308 -0.0862
  975POPC   D2A13176   8.641   1.568   6.699 -0.4702 -0.3476  0.0699
  975POPC   C3A13177   8.422   1.469   7.100 -0.5416  0.1559  0.0702
  975POPC   C4A13178   8.560   1.275   7.530 -0.2923 -0.0149  0.1164
  975POPC   C1B13179   9.176   2.008   6.074  0.0568 -0.1807  0.1606
  975POPC   C2B13180   9.329   2.303   6.357 -0.1704 -0.0087  0.0039
  975POPC   C3B13181   9.483   2.529   6.714  0.1043  0.0368  0.1585
  975POPC   C4B13182   9.536   2.552   7.195 -0.0321 -0.0879 -0.0451
  976POPC   NC313183  15.528   0.847   4.912  0.2977  0.1624 -0.2701
  976POPC   PO413184  15.527   1.059   5.384 -0.1289  0.1407  0.0725
  976POPC   GL113185  15.669   1.125   5.797 -0.2172  0.2532  0.3048
  976POPC   GL213186  15.774   1.481   5.852 -0.0432  0.2225  0.2977
  976POPC   C1A13187  15.961   1.238   6.203 -0.3686  0.0672 -0.3922
  976POPC   D2A13188  16.362   1.511   6.445  0.2137  0.2523 -0.1072
  976POPC   C3A13189  16.803   1.559   6.223 -0.2338  0.1297  0.0966
  976POPC   C4A13190  17.272   1.600   6.272 -0.0633  0.3460 -0.1164
  976POPC   C1B13191  15.308   1.428   6.104 -0.0694 -0.0765  0.3056
  976POPC   C2B13192  15.130   1.455   6.543  0.0841  0.0333  0.3731
  976POPC   C3B13193  14.932   1.397   6.982  0.1706  0.0614 -0.2576
  976POPC   C4B13194  15.030   1.579   7.312 -0.0515 -0.0495  0.2042
  977POPC   NC313195   0.112  14.287   5.516  0.3815  0.3866  0.1464
  977POPC   PO413196   0.455  14.166   5.746  0.0248 -0.0187  0.0937
  977POPC   GL113197   0.601  14.182   6.174 -0.1809 -0.0526  0.2209
  977POPC   GL213198   0.907  14.344   6.301 -0.1666  0.2431 -0.1000
  977POPC   C1A13199   0.575  14.125   6.544 -0.1179  0.2702 -0.4408
  977POPC   D2A13200   0.754  14.040   6.876 -0.0258 -0.0443 -0.1416
  977POPC   C3A13201   1.045  14.094   7.205 -0.2909  0.0671 -0.1035
  977POPC   C4A13202   1.446  14.234   7.094  0.1658  0.0827  0.0004
  977POPC   C1B13203   1.098  14.390   6.647 -0.0846 -0.0256 -0.0067
  977POPC   C2B13204   1.099  14.715   7.007 -0.0566  0.0493 -0.3693
  977POPC   C3B13205   1.292  14.639   7.369  0.1447 -0.0457 -0.0833
  977POPC   C4B13206   1.583  14.496   7.660 -0.2382 -0.1152 -0.2596
  978POPC   NC313207   7.347  17.902   5.120  0.2714 -0.0012 -0.0352
  978POPC   PO413208   7.036  17.648   5.347 -0.1184  0.3777 -0.0966
  978POPC   GL113209   7.010  17.622   5.832 -0.0846 -0.2040  0.0548
  978POPC   GL213210   7.311  17.509   5.851  0.5504 -0.0090 -0.1286
  978POPC   C1A13211   7.076  17.844   6.204 -0.0818  0.2128 -0.1417
  978POPC   D2A13212   7.028  17.876   6.606  0.2673 -0.0024  0.1146
  978POPC   C3A13213   7.475  18.193   6.776 -0.1104  0.0191 -0.0738
  978POPC   C4A13214   7.854  18.395   6.794 -0.0695 -0.2255  0.0961
  978POPC   C1B13215   7.530  17.946   6.104 -0.0130  0.0499  0.1233
  978POPC   C2B13216   7.816  17.942   6.445 -0.1036  0.1233 -0.1496
  978POPC   C3B13217   8.029  17.978   6.854  0.1275  0.1024 -0.1887
  978POPC   C4B13218   7.826  18.202   7.218  0.2094  0.0707  0.0347
  979POPC   NC313219  11.265  18.178   5.260  0.2536 -0.2508  0.0142
  979POPC   PO413220  11.498  18.372   5.594  0.1975  0.0582 -0.4728
  979POPC   GL113221  11.528  18.568   5.955 -0.1648  0.4005 -0.4288
  979POPC   GL213222  11.319  18.814   6.133  0.1646 -0.0070  0.4397
  979POPC   C1A13223  11.763  18.499   6.408 -0.3378 -0.0396  0.0357
  979POPC   D2A13224  11.758  18.598   6.855  0.0647  0.1092 -0.0688
  979POPC   C3A13225  11.420  18.786   7.096  0.0831 -0.1172 -0.0226
  979POPC   C4A13226  11.088  18.965   7.337  0.0168  0.1799  0.0055
  979POPC   C1B13227  11.217  18.729   6.573  0.1536  0.1783  0.3034
  979POPC   C2B13228  11.078  18.486   6.957 -0.3308 -0.0242  0.3631
  979POPC   C3B13229  10.911  18.415   7.274  0.0251  0.1041 -0.3031
  979POPC   C4B13230  10.865  18.160   7.592  0.1775 -0.0835 -0.0011
  980POPC   NC313231  15.184   8.163   5.172  0.0023  0.1735  0.0586
  980POPC   PO413232  15.596   8.265   5.318 -0.3497 -0.0346  0.0561
  980POPC   GL113233  15.739   8.052   5.803  0.1013 -0.2833  0.3425
  980POPC   GL213234  15.559   7.890   5.941  0.0715 -0.2391  0.0997
  980POPC   C1A13235  16.034   8.059   6.130  0.0288  0.0275 -0.1840
  980POPC   D2A13236  15.981   8.208   6.531  0.0984  0.0355 -0.4076
  980POPC   C3A13237  16.054   8.166   6.969 -0.1672  0.0363  0.0964
  980POPC   C4A13238  15.761   7.996   7.220 -0.2230  0.1335 -0.2034
  980POPC   C1B13239  15.564   8.116   6.239  0.1862  0.0455  0.0242
  980POPC   C2B13240  15.499   8.189   6.626 -0.1770 -0.1081 -0.1196
  980POPC   C3B13241  15.548   8.405   7.005  0.0807 -0.0785 -0.2001
  980POPC   C4B13242  15.356   8.809   7.222 -0.2838  0.0093 -0.1943
  981POPC   NC313243  17.359  13.440   5.449 -0.1468 -0.0661  0.1881
  981POPC   PO413244  17.810  13.521   5.708 -0.1023 -0.2163  0.0318
  981POPC   GL113245  17.995  13.873   6.071  0.3124 -0.0153  0.2593
  981POPC   GL213246  18.081  13.624   6.310  0.4379  0.0055 -0.3786
  981POPC   C1A13247  17.920  14.043   6.533  0.3358 -0.1175  0.1703
  981POPC   D2A13248  17.753  13.867   6.926  0.1659  0.2162  0.1277
  981POPC   C3A13249  17.906  13.736   7.393 -0.0296  0.3616 -0.1415
  981POPC   C4A13250  18.297  13.877   7.467 -0.0491  0.1141 -0.1033
  981POPC   C1B13251  17.554  13.612   6.543 -0.0921  0.2404 -0.0142
  981POPC   C2B13252  17.189  13.374   6.605 -0.0158  0.1699  0.3929
  981POPC   C3B13253  16.946  13.298   6.948  0.1076 -0.1921  0.2454
  981POPC   C4B13254  16.951  13.507   7.352  0.0367 -0.1365  0.2509
  982YOPC   NC313255  16.967   1.520   5.229 -0.2014  0.3294 -0.1754
  982YOPC   PO413256  16.892   1.280   5.536  0.2231  0.0716  0.3359
  982YOPC   GL113257  16.940   1.097   5.937 -0.2014  0.0367 -0.1563
  982YOPC   GL213258  17.264   1.116   5.998 -0.2882  0.3672 -0.0861
  982YOPC   C1A13259  16.571   1.061   6.286 -0.2303 -0.0060  0.0714
  982YOPC   D2A13260  16.306   0.907   6.543  0.0499  0.1938 -0.0037
  982YOPC   C3A13261  16.338   0.465   6.782  0.1293 -0.1531 -0.2572
  982YOPC   C4A13262  16.204   0.370   7.213 -0.1137 -0.1219 -0.3690
  982YOPC   C1B13263  17.112   1.134   6.452  0.1874 -0.1208  0.0559
  982YOPC   C2B13264  17.146   1.174   6.821  0.1842 -0.3459  0.1804
  982YOPC   D3B13265  17.188   1.052   7.198 -0.1142  0.2187  0.3616
  982YOPC   C4B13266  17.294   0.806   7.489  0.1885 -0.1493  0.1093
  983YOPC   NC313267  11.297  15.429   5.936 -0.1353 -0.0113 -0.3682
  983YOPC   PO413268  11.050  15.725   5.625 -0.0942  0.1070  0.2939
  983YOPC   GL113269  10.872  15.668   6.068 -0.2546 -0.1980  0.0581
  983YOPC   GL213270  10.602  15.666   6.121 -0.3505  0.1796 -0.3066
  983YOPC   C1A13271  10.864  15.647   6.495 -0.0488 -0.3613 -0.0400
  983YOPC   D2A13272  11.015  15.637   6.895  0.3855  0.0976 -0.1039
  983YOPC   C3A13273  11.352  15.811   7.071  0.3311 -0.3951 -0.0316
  983YOPC   C4A13274  11.605  16.188   7.113 -0.0449 -0.0059 -0.1971
  983YOPC   C1B13275  10.209  15.799   6.231 -0.1664 -0.3369 -0.1683
  983YOPC   C2B13276  10.054  16.169   6.587 -0.3238 -0.3219  0.1000
  983YOPC   D3B13277  10.364  16.344   6.859 -0.0010  0.0591  0.2304
  983YOPC   C4B13278  10.592  16.469   7.140 -0.1323  0.1232 -0.0607
  984YOPC   NC313279   8.925   0.889   5.386  0.3353  0.0269 -0.1484
  984YOPC   PO413280   8.450   0.725   5.384 -0.0462 -0.1210  0.2259
  984YOPC   GL113281   8.865   0.529   5.752  0.1370 -0.2969 -0.0858
  984YOPC   GL213282   8.966   0.196   5.811  0.1351  0.3872 -0.1982
  984YOPC   C1A13283   9.167   0.700   6.027 -0.3456 -0.3018 -0.0964
  984YOPC   D2A13284   9.240   0.652   6.437  0.4220 -0.0907 -0.1356
  984YOPC   C3A13285   8.841   0.708   6.681  0.0639  0.1980 -0.2214
  984YOPC   C4A13286   8.884   0.971   7.026  0.2735  0.1807 -0.1642
  984YOPC   C1B13287   8.925   0.264   6.295  0.3131  0.2563  0.1169
  984YOPC   C2B13288   8.965   0.142   6.709  0.0237 -0.5200 -0.1483
  984YOPC   D3B13289   9.307   0.370   6.871  0.0483 -0.0858 -0.1735
  984YOPC   C4B13290   9.612   0.223   7.127 -0.2206 -0.0336 -0.0289
  985YOPC   NC313291  10.724  13.721   5.963  0.0168  0.0806  0.0672
  985YOPC   PO413292  10.459  13.893   6.199  0.1741 -0.1606 -0.1144
  985YOPC   GL113293  10.327  13.928   6.654 -0.0202 -0.3124  0.4114
  985YOPC   GL213294  10.010  14.198   6.594 -0.1065  0.2459  0.0733
  985YOPC   C1A13295  10.390  14.169   6.999  0.1902  0.2036 -0.0601
  985YOPC   D2A13296  10.213  14.276   7.511  0.0507  0.2253  0.0477
  985YOPC   C3A13297  10.332  14.127   7.992 -0.1505  0.1726 -0.2804
  985YOPC   C4A13298  10.554  13.720   8.077  0.0145 -0.1257  0.1137
  985YOPC   C1B13299   9.962  13.970   7.107 -0.0043  0.0258  0.1783
  985YOPC   C2B13300   9.801  13.951   7.613 -0.1847  0.4688 -0.0195
  985YOPC   D3B13301   9.873  14.423   7.784  0.4049 -0.0429 -0.0100
  985YOPC   C4B13302   9.623  14.661   8.100  0.2052  0.0194 -0.1421
  986YOPC   NC313303   9.392  14.356   5.858 -0.3866  0.3707 -0.0884
  986YOPC   PO413304   9.230  13.875   5.835 -0.1586 -0.1231  0.0440
  986YOPC   GL113305   9.098  13.731   6.214 -0.0716 -0.1622 -0.2650
  986YOPC   GL213306   9.112  14.104   6.303  0.0663 -0.0186  0.4102
  986YOPC   C1A13307   9.258  13.465   6.420 -0.1930  0.1501 -0.1129
  986YOPC   D2A13308   9.406  13.277   6.779 -0.0322 -0.0455 -0.2659
  986YOPC   C3A13309   9.437  13.270   7.234  0.4032 -0.1743  0.1864
  986YOPC   C4A13310   9.608  13.390   7.519  0.0821 -0.0712  0.1222
  986YOPC   C1B13311   9.034  14.078   6.673  0.1682 -0.2299  0.1042
  986YOPC   C2B13312   9.218  13.804   6.855  0.1422  0.1804  0.1456
  986YOPC   D3B13313   9.429  13.814   7.211 -0.1405  0.0675  0.4551
  986YOPC   C4B13314   9.337  13.826   7.678 -0.2224  0.0153  0.2473
  987YOPC   NC313315  16.400   7.236   5.259 -0.0037 -0.1743  0.2616
  987YOPC   PO413316  16.778   6.999   5.497  0.1207  0.1160 -0.1723
  987YOPC   GL113317  16.774   7.016   6.059 -0.2742 -0.1527 -0.2494
  987YOPC   GL213318  16.470   7.142   6.231  0.0576  0.1442  0.0864
  987YOPC   C1A13319  17.140   6.924   6.338  0.1687  0.0820 -0.3636
  987YOPC   D2A13320  17.568   6.681   6.635  0.1818  0.0101 -0.0667
  987YOPC   C3A13321  17.955   6.777   6.548 -0.0676 -0.0191 -0.1809
  987YOPC   C4A13322  18.340   6.992   6.474 -0.0801  0.0764  0.0780
  987YOPC   C1B13323  16.298   7.395   6.622  0.2582  0.0115  0.2200
  987YOPC   C2B13324  16.070   7.654   6.975  0.0198  0.1224 -0.0979
  987YOPC   D3B13325  16.267   7.901   7.331  0.0975  0.2294 -0.2547
  987YOPC   C4B13326  16.048   8.265   7.529 -0.3203 -0.2934  0.0528
  988YOPC   NC313327   1.724   4.858   5.214  0.3737  0.2007 -0.1065
  988YOPC   PO413328   1.410   4.510   5.265 -0.2352  0.0270  0.0992
  988YOPC   GL113329   1.606   4.680   5.653 -0.1782 -0.0105  0.2521
  988YOPC   GL213330   1.916   4.775   5.654 -0.1975  0.2446  0.0778
  988YOPC   C1A13331   1.621   4.957   6.065 -0.1310 -0.0706 -0.0668
  988YOPC   D2A13332   1.345   5.236   6.317 -0.3368 -0.1635 -0.2339
  988YOPC   C3A13333   1.140   4.950   6.734 -0.1527  0.4099  0.0648
  988YOPC   C4A13334   1.329   4.615   6.981 -0.1051 -0.0501 -0.0449
  988YOPC   C1B13335   2.157   4.987   5.971 -0.2085  0.0375  0.0519
  988YOPC   C2B13336   2.149   5.320   6.252 -0.1200 -0.0080  0.4704
  988YOPC   D3B13337   1.873   5.198   6.566  0.0493  0.3542  0.0757
  988YOPC   C4B13338   1.607   5.059   6.921  0.1059 -0.0083  0.0636
  989YOPC   NC313339  11.935  14.806   5.342  0.0753 -0.2882  0.0804
  989YOPC   PO413340  11.667  15.129   5.620 -0.3074  0.1832  0.0156
  989YOPC   GL113341  11.848  15.206   6.090  0.2596  0.2119  0.2835
  989YOPC   GL213342  12.098  15.487   6.128  0.3000 -0.2127 -0.1084
  989YOPC   C1A13343  11.890  15.097   6.569  0.1865 -0.1978  0.1061
  989YOPC   D2A13344  11.956  15.297   6.956 -0.2318 -0.1925  0.1499
  989YOPC   C3A13345  12.191  15.218   7.315  0.1031 -0.1046 -0.1605
  989YOPC   C4A13346  12.035  15.329   7.831  0.0473  0.3039 -0.2114
  989YOPC   C1B13347  12.042  15.590   6.533 -0.0962  0.0117 -0.1651
  989YOPC   C2B13348  11.707  15.761   6.770 -0.4828 -0.1491 -0.3018
  989YOPC   D3B13349  11.334  15.926   6.516  0.2355  0.0997 -0.1575
  989YOPC   C4B13350  11.047  16.168   6.507  0.0573  0.0068  0.3786
  990YOPC   NC313351   7.122  18.668   5.388  0.0412 -0.2022  0.1614
  990YOPC   PO413352   7.410  18.412   5.235 -0.0724 -0.0289  0.1896
  990YOPC   GL113353   7.573  18.586   5.592  0.4203 -0.2295  0.0526
  990YOPC   GL213354   7.575  18.968   5.608  0.6780  0.1485  0.1756
  990YOPC   C1A13355   7.480  18.763   6.018  0.2521 -0.0981  0.0328
  990YOPC   D2A13356   7.304  19.080   6.266  0.0556 -0.3522 -0.0932
  990YOPC   C3A13357   7.471  19.218   6.681 -0.0947 -0.0455 -0.3499
  990YOPC   C4A13358   7.472  19.198   7.104  0.2859  0.1880  0.1316
  990YOPC   C1B13359   7.849  19.045   5.842  0.0150  0.2747  0.1316
  990YOPC   C2B13360   8.128  19.354   6.065 -0.2689 -0.2503 -0.0383
  990YOPC   D3B13361   8.528  19.295   6.241  0.0381 -0.2071  0.2141
  990YOPC   C4B13362   8.520  19.029   6.640 -0.3135  0.0928  0.1740
  991YOPC   NC313363  12.549   9.400   5.361  0.1960 -0.2603  0.0187
  991YOPC   PO413364  12.870   9.088   5.594 -0.0002  0.3449 -0.0635
  991YOPC   GL113365  12.879   8.994   6.100 -0.1213  0.2009 -0.3107
  991YOPC   GL213366  13.122   8.920   6.365  0.1499  0.0513 -0.0346
  991YOPC   C1A13367  12.580   9.170   6.458  0.0067  0.2121  0.1325
  991YOPC   D2A13368  12.739   9.129   6.917  0.0026 -0.3107 -0.1380
  991YOPC   C3A13369  12.625   9.456   7.211 -0.2670  0.0239  0.3198
  991YOPC   C4A13370  12.529   9.755   7.406 -0.0245 -0.2851 -0.2135
  991YOPC   C1B13371  13.108   8.794   6.737  0.0679 -0.2773  0.1270
  991YOPC   C2B13372  13.168   8.886   7.095  0.1369  0.1332  0.0300
  991YOPC   D3B13373  12.930   8.957   7.431 -0.3561  0.1029  0.2768
  991YOPC   C4B13374  12.425   9.054   7.441 -0.2361 -0.2719 -0.0297
  992YOPC   NC313375   5.085  13.389   6.286 -0.1199 -0.2299  0.2033
  992YOPC   PO413376   4.995  13.663   5.976 -0.2203  0.5210 -0.0408
  992YOPC   GL113377   4.814  13.870   6.359  0.3944  0.1526 -0.0985
  992YOPC   GL213378   4.742  14.171   6.263 -0.2082  0.1217 -0.1799
  992YOPC   C1A13379   4.516  13.867   6.612 -0.0995  0.0453 -0.0826
  992YOPC   D2A13380   4.322  13.685   6.984  0.1023  0.3060 -0.4368
  992YOPC   C3A13381   4.274  13.964   7.289 -0.0333 -0.2282  0.0913
  992YOPC   C4A13382   4.154  14.250   7.531 -0.0914 -0.1983  0.0279
  992YOPC   C1B13383   5.057  14.344   6.569  0.0573 -0.1404 -0.0558
  992YOPC   C2B13384   5.465  14.476   6.703 -0.2386  0.1486 -0.0272
  992YOPC   D3B13385   5.472  14.263   7.045 -0.0900  0.2730 -0.2715
  992YOPC   C4B13386   5.516  13.783   7.306 -0.0684 -0.1555  0.1218
  993YOPC   NC313387  14.300   9.307   5.322  0.2948  0.1477 -0.3030
  993YOPC   PO413388  14.375   9.184   5.753  0.0518 -0.0047  0.1681
  993YOPC   GL113389  14.322   9.484   6.104  0.2020  0.0207  0.0005
  993YOPC   GL213390  14.671   9.473   6.150  0.1595  0.0141  0.0216
  993YOPC   C1A13391  14.077   9.535   6.413  0.1660 -0.0148  0.0508
  993YOPC   D2A13392  14.024   9.495   6.768 -0.3027 -0.2893 -0.3099
  993YOPC   C3A13393  14.119   9.111   6.985 -0.0655  0.2245 -0.0142
  993YOPC   C4A13394  14.177   9.149   7.362 -0.0990  0.1246  0.2136
  993YOPC   C1B13395  14.528   9.534   6.587 -0.1015 -0.3921 -0.1313
  993YOPC   C2B13396  14.421   9.611   7.096 -0.0327  0.3889  0.0609
  993YOPC   D3B13397  14.765   9.625   7.287  0.1539  0.1161 -0.0720
  993YOPC   C4B13398  15.144   9.759   7.557 -0.1025  0.5281  0.0123
  994YOPC   NC313399   6.367   1.551   5.662  0.4520 -0.1299  0.1005
  994YOPC   PO413400   6.008   1.661   5.632 -0.1281  0.0023  0.0852
  994YOPC   GL113401   5.934   1.735   6.006 -0.1678 -0.0366 -0.0917
  994YOPC   GL213402   5.770   2.029   6.099  0.1613  0.1837 -0.2797
  994YOPC   C1A13403   5.879   1.636   6.446  0.1516  0.0412 -0.0472
  994YOPC   D2A13404   5.945   1.794   6.873 -0.0503  0.2181 -0.0009
  994YOPC   C3A13405   6.038   2.159   7.052 -0.0035  0.1816 -0.0584
  994YOPC   C4A13406   6.205   2.205   7.384  0.0972  0.2495  0.1900
  994YOPC   C1B13407   5.793   2.210   6.607  0.0375 -0.0555  0.0440
  994YOPC   C2B13408   5.603   2.546   6.901 -0.2995 -0.0691  0.0004
  994YOPC   D3B13409   5.745   2.547   7.309 -0.2170 -0.0765 -0.1260
  994YOPC   C4B13410   5.505   2.770   7.574  0.1852  0.0437  0.2034
  995YOPC   NC313411  14.649  18.039   5.251  0.0069 -0.1297  0.1185
  995YOPC   PO413412  14.770  18.284   5.502  0.0511 -0.0040  0.2760
  995YOPC   GL113413  14.791  18.165   5.960 -0.1164  0.0023  0.1007
  995YOPC   GL213414  15.060  17.813   6.038 -0.3153 -0.1050 -0.1570
  995YOPC   C1A13415  14.995  18.266   6.346  0.1177 -0.2220  0.0552
  995YOPC   D2A13416  15.130  18.306   6.709  0.0999 -0.0838  0.0402
  995YOPC   C3A13417  14.929  18.474   7.084 -0.1462 -0.0156  0.1405
  995YOPC   C4A13418  14.682  18.903   7.132  0.0210 -0.0553  0.1789
  995YOPC   C1B13419  14.947  17.856   6.557 -0.0133  0.1554  0.0122
  995YOPC   C2B13420  14.962  17.860   7.010  0.0109  0.0977 -0.1315
  995YOPC   D3B13421  14.693  17.687   7.184  0.2477 -0.2149  0.1189
  995YOPC   C4B13422  14.775  17.410   7.608 -0.4436 -0.0944 -0.0966
  996YOPC   NC313423   2.825   4.101   5.481  0.0379 -0.1393  0.0621
  996YOPC   PO413424   2.385   3.990   5.416 -0.1149 -0.1426  0.0449
  996YOPC   GL113425   2.210   3.788   5.787  0.2973 -0.0707  0.3977
  996YOPC   GL213426   2.097   3.579   5.545  0.2644  0.3684  0.5314
  996YOPC   C1A13427   2.080   3.801   6.235  0.1591 -0.1558 -0.2417
  996YOPC   D2A13428   2.003   3.885   6.621  0.0357  0.0235  0.2004
  996YOPC   C3A13429   2.299   3.676   6.886  0.2744 -0.1175 -0.1362
  996YOPC   C4A13430   2.654   3.483   6.763  0.0304 -0.0111 -0.0503
  996YOPC   C1B13431   1.735   3.380   5.771  0.0655  0.2455 -0.1759
  996YOPC   C2B13432   1.621   3.337   6.196  0.0835 -0.1912 -0.1553
  996YOPC   D3B13433   1.286   3.312   6.561 -0.1417  0.0962 -0.1491
  996YOPC   C4B13434   1.125   3.572   6.903  0.3139  0.0279  0.0097
  997YOPC   NC313435   7.206   2.651   5.193  0.1237 -0.2978 -0.2503
  997YOPC   PO413436   7.624   2.609   5.439 -0.0045 -0.2264  0.1553
  997YOPC   GL113437   7.887   2.842   5.735  0.1451  0.1852  0.2262
  997YOPC   GL213438   8.097   2.703   5.896 -0.0733  0.1613 -0.0307
  997YOPC   C1A13439   7.692   2.928   6.169 -0.0674 -0.1372  0.1346
  997YOPC   D2A13440   7.652   2.850   6.607 -0.1687  0.1725  0.0158
  997YOPC   C3A13441   7.852   2.710   6.939 -0.0863  0.1073  0.1036
  997YOPC   C4A13442   7.746   2.563   7.348 -0.0922 -0.0275  0.2005
  997YOPC   C1B13443   7.929   2.437   6.145  0.0768 -0.0092 -0.0361
  997YOPC   C2B13444   7.792   2.082   6.447  0.2088  0.1400  0.2279
  997YOPC   D3B13445   7.828   2.226   6.792 -0.0601 -0.1048  0.1019
  997YOPC   C4B13446   8.176   2.329   7.170  0.1658  0.1782  0.2471
  998YOPC   NC313447   5.685   9.387   6.045 -0.1024  0.3133 -0.1491
  998YOPC   PO413448   5.443   9.789   6.237  0.1265 -0.2739 -0.0588
  998YOPC   GL113449   5.566   9.976   6.581  0.1076  0.1664  0.0498
  998YOPC   GL213450   5.775   9.706   6.812  0.3590 -0.3762  0.2717
  998YOPC   C1A13451   5.342  10.018   6.988 -0.0020  0.0788  0.1281
  998YOPC   D2A13452   5.332   9.923   7.515 -0.1644  0.1496 -0.0496
  998YOPC   C3A13453   5.184   9.399   7.669  0.1900  0.2058  0.0003
  998YOPC   C4A13454   5.061   9.178   7.994 -0.0185  0.1116  0.1117
  998YOPC   C1B13455   6.149   9.837   6.909  0.0001 -0.0631  0.1003
  998YOPC   C2B13456   6.339  10.185   6.963  0.1769  0.0305  0.1617
  998YOPC   D3B13457   6.120  10.331   7.388 -0.1643 -0.1883 -0.0659
  998YOPC   C4B13458   6.024  10.334   7.877 -0.0942  0.2743  0.2200
  999YOPC   NC313459  13.391  14.853   5.344  0.0437  0.0691  0.3046
  999YOPC   PO413460  13.331  14.437   5.616  0.1491 -0.0313 -0.2816
  999YOPC   GL113461  13.373  14.381   6.092 -0.2175 -0.1246  0.2224
  999YOPC   GL213462  13.355  14.168   6.170 -0.1428 -0.0348  0.1553
  999YOPC   C1A13463  13.259  14.479   6.493 -0.3782 -0.1398  0.1163
  999YOPC   D2A13464  13.192  14.530   6.845 -0.2184 -0.1886  0.1202
  999YOPC   C3A13465  13.183  14.458   7.307  0.0234 -0.0762 -0.0922
  999YOPC   C4A13466  13.007  14.421   7.723 -0.2240 -0.1006  0.1176
  999YOPC   C1B13467  13.579  14.033   6.561 -0.2466 -0.3294  0.2740
  999YOPC   C2B13468  13.783  13.708   6.809  0.1059 -0.2555 -0.0699
  999YOPC   D3B13469  14.097  13.804   7.138 -0.2938 -0.2264  0.0844
  999YOPC   C4B13470  14.219  14.026   7.552  0.0166 -0.0818  0.0901
 1000YOPC   NC313471  10.747   6.256   5.712  0.0680 -0.1216  0.0707
 1000YOPC   PO413472  10.335   6.111   5.822 -0.0631  0.2944 -0.0631
 1000YOPC   GL113473  10.507   6.011   6.230  0.2418  0.1243 -0.0292
 1000YOPC   GL213474  10.608   6.437   6.268  0.0339  0.1100 -0.0704
 1000YOPC   C1A13475  10.520   5.835   6.585 -0.1287  0.3293  0.1343
 1000YOPC   D2A13476  10.475   5.889   7.040  0.2351  0.0953 -0.1133
 1000YOPC   C3A13477  10.408   6.051   7.375 -0.0132 -0.2979 -0.3362
 1000YOPC   C4A13478  10.129   6.103   7.735  0.1096 -0.0568  0.1039
 1000YOPC   C1B13479  10.506   6.385   6.639  0.1303  0.1729  0.2946
 1000YOPC   C2B13480  10.565   6.411   7.010  0.0295 -0.0025 -0.2639
 1000YOPC   D3B13481  10.712   6.633   7.393  0.1784  0.1617 -0.1573
 1000YOPC   C4B13482  10.891   6.994   7.384  0.0880 -0.2277 -0.2104
 1001YOPC   NC313483  12.761  15.602   5.349 -0.1032  0.1691 -0.1157
 1001YOPC   PO413484  12.369  15.572   5.571  0.0565  0.0334  0.1733
 1001YOPC   GL113485  12.712  15.606   5.912 -0.2386 -0.1713  0.2474
 1001YOPC   GL213486  12.571  15.831   6.164 -0.1835  0.1953  0.3242
 1001YOPC   C1A13487  12.929  15.410   6.265  0.4084 -0.1725  0.1963
 1001YOPC   D2A13488  13.034  15.579   6.728 -0.1857  0.0701 -0.2773
 1001YOPC   C3A13489  12.898  15.839   6.943 -0.3779  0.5550 -0.3861
 1001YOPC   C4A13490  12.615  16.154   6.970  0.4735  0.1931  0.1697
 1001YOPC   C1B13491  12.399  15.885   6.624  0.1473 -0.2077  0.0900
 1001YOPC   C2B13492  12.378  15.711   7.009  0.3197  0.3512  0.0038
 1001YOPC   D3B13493  12.475  15.915   7.402 -0.1200  0.2502 -0.2063
 1001YOPC   C4B13494  12.470  15.625   7.714 -0.0522  0.1895 -0.1190
 1002YOPC   NC313495   4.761   8.237   5.880 -0.1142 -0.0599 -0.3697
 1002YOPC   PO413496   4.746   7.877   5.891  0.1617  0.1166  0.3610
 1002YOPC   GL113497   4.673   7.616   6.168  0.0235 -0.1550 -0.0127
 1002YOPC   GL213498   4.737   7.274   6.212 -0.1191 -0.1093 -0.0519
 1002YOPC   C1A13499   4.587   7.630   6.604  0.1157 -0.3453 -0.0259
 1002YOPC   D2A13500   4.652   7.461   7.028 -0.0616 -0.0063 -0.0595
 1002YOPC   C3A13501   4.778   7.591   7.296 -0.0272  0.1450 -0.2313
 1002YOPC   C4A13502   4.649   7.743   7.807  0.1532 -0.1828  0.3490
 1002YOPC   C1B13503   4.560   7.137   6.618 -0.3691  0.1360 -0.1304
 1002YOPC   C2B13504   4.375   6.870   6.998  0.0768  0.1595 -0.2216
 1002YOPC   D3B13505   3.965   6.940   6.934  0.0620 -0.2649 -0.1099
 1002YOPC   C4B13506   3.639   6.808   7.110  0.3308  0.0201  0.0441
 1003YOPC   NC313507  13.317   6.538   5.415  0.1192  0.0854 -0.1901
 1003YOPC   PO413508  13.521   6.194   5.737  0.1373  0.5501 -0.1797
 1003YOPC   GL113509  13.641   5.806   5.970 -0.2304 -0.4320  0.1084
 1003YOPC   GL213510  13.434   5.511   6.038 -0.2448  0.0290 -0.2292
 1003YOPC   C1A13511  13.854   5.771   6.370 -0.3373 -0.1113  0.0198
 1003YOPC   D2A13512  14.062   5.479   6.443  0.2661  0.2383 -0.0695
 1003YOPC   C3A13513  13.859   5.123   6.679 -0.3174  0.0991  0.0576
 1003YOPC   C4A13514  13.549   4.762   6.572 -0.3779 -0.0536 -0.3499
 1003YOPC   C1B13515  13.488   5.362   6.468  0.1887 -0.1390 -0.0580
 1003YOPC   C2B13516  13.357   5.159   6.868  0.0048  0.0509  0.3456
 1003YOPC   D3B13517  13.232   5.211   7.325 -0.2099  0.1382 -0.1160
 1003YOPC   C4B13518  12.850   5.166   7.493 -0.0137 -0.1205 -0.1766
 1004YOPC   NC313519  15.362  12.906   5.439  0.1543  0.1027  0.0074
 1004YOPC   PO413520  15.544  13.023   5.802  0.0622 -0.0666  0.2416
 1004YOPC   GL113521  15.536  12.713   6.222  0.0637  0.2543  0.0319
 1004YOPC   GL213522  15.878  12.588   6.190  0.1012  0.0915 -0.1753
 1004YOPC   C1A13523  15.547  12.595   6.641 -0.0693 -0.1400 -0.0177
 1004YOPC   D2A13524  15.256  12.649   6.926  0.0511  0.2625  0.0163
 1004YOPC   C3A13525  15.271  12.879   7.208 -0.2937  0.4476 -0.1179
 1004YOPC   C4A13526  15.584  13.185   7.226 -0.0775 -0.3393  0.1178
 1004YOPC   C1B13527  15.987  12.385   6.534  0.1144  0.1573 -0.0914
 1004YOPC   C2B13528  16.211  12.106   6.890  0.0573 -0.1633  0.2177
 1004YOPC   D3B13529  16.225  12.387   7.172 -0.2926 -0.0419  0.4397
 1004YOPC   C4B13530  15.993  12.231   7.547  0.3090 -0.2833  0.0942
 1005YOPC   NC313531   2.359   0.783   4.420 -0.0222  0.2928  0.2495
 1005YOPC   PO413532   2.296   0.774   4.816  0.0586 -0.0642 -0.2590
 1005YOPC   GL113533   2.160   0.850   5.211 -0.1390  0.1363 -0.1159
 1005YOPC   GL213534   1.906   0.933   5.450  0.1089  0.0654  0.0067
 1005YOPC   C1A13535   2.351   0.947   5.684  0.2019 -0.2868 -0.2365
 1005YOPC   D2A13536   2.619   0.798   6.010  0.3842  0.2107  0.1163
 1005YOPC   C3A13537   2.632   0.400   5.805 -0.0379  0.2900  0.1601
 1005YOPC   C4A13538   2.659   0.146   5.480 -0.1149  0.1949  0.0319
 1005YOPC   C1B13539   1.901   1.132   5.841 -0.1458  0.0378  0.1589
 1005YOPC   C2B13540   2.108   1.029   6.169 -0.2672  0.1039 -0.3965
 1005YOPC   D3B13541   2.106   0.981   6.681 -0.1277 -0.0488 -0.0823
 1005YOPC   C4B13542   2.414   0.907   7.112  0.1864 -0.0800 -0.0050
 1006YOPC   NC313543  14.780  16.090   5.494 -0.1143 -0.1577 -0.0206
 1006YOPC   PO413544  14.621  16.449   5.758  0.3571  0.2109  0.1637
 1006YOPC   GL113545  14.559  16.290   6.203  0.0314  0.0165  0.0377
 1006YOPC   GL213546  14.363  16.007   6.245  0.0878  0.2111 -0.4754
 1006YOPC   C1A13547  14.481  16.512   6.578  0.0119 -0.0328  0.1487
 1006YOPC   D2A13548  14.424  16.588   7.048 -0.0722 -0.3209 -0.2557
 1006YOPC   C3A13549  14.309  16.405   7.323 -0.1567 -0.0297 -0.1564
 1006YOPC   C4A13550  14.095  16.296   7.692 -0.1548  0.3479 -0.1576
 1006YOPC   C1B13551  14.272  16.072   6.716  0.0212  0.0011  0.2472
 1006YOPC   C2B13552  14.042  15.838   6.993 -0.2377 -0.1086 -0.0211
 1006YOPC   D3B13553  14.180  15.737   7.419  0.0674 -0.2243 -0.1726
 1006YOPC   C4B13554  14.501  15.796   7.615  0.1927 -0.1610 -0.0200
 1007YOPC   NC313555   1.062  17.274   5.472 -0.0958 -0.0901  0.1567
 1007YOPC   PO413556   1.450  17.000   5.487 -0.0670  0.0495 -0.1009
 1007YOPC   GL113557   1.474  17.032   5.864 -0.1294  0.1430 -0.0858
 1007YOPC   GL213558   1.787  16.828   6.005  0.2089 -0.0011 -0.1848
 1007YOPC   C1A13559   1.471  17.130   6.225  0.1480 -0.1624  0.1022
 1007YOPC   D2A13560   1.450  17.339   6.569  0.4846  0.1083 -0.1416
 1007YOPC   C3A13561   1.157  17.597   6.525 -0.3145 -0.0451 -0.3164
 1007YOPC   C4A13562   0.715  17.934   6.589 -0.1446  0.1784 -0.0949
 1007YOPC   C1B13563   1.616  16.680   6.390  0.1602 -0.0222  0.1721
 1007YOPC   C2B13564   1.630  16.804   6.851  0.0254  0.0635  0.1471
 1007YOPC   D3B13565   1.596  17.161   7.092 -0.0967  0.0810  0.0669
 1007YOPC   C4B13566   1.183  17.236   7.143  0.1689  0.0457 -0.0900
 1008YOPC   NC313567   3.217   5.590   5.507  0.0675  0.1808 -0.3246
 1008YOPC   PO413568   2.782   5.540   5.549 -0.2133 -0.2989  0.2284
 1008YOPC   GL113569   2.827   5.834   5.888  0.1476  0.0929  0.0907
 1008YOPC   GL213570   2.545   5.924   6.062 -0.1245  0.1537 -0.1083
 1008YOPC   C1A13571   3.112   5.743   6.177  0.1287  0.1749  0.2170
 1008YOPC   D2A13572   3.204   5.758   6.565  0.0387 -0.2059 -0.0458
 1008YOPC   C3A13573   3.055   5.698   7.020 -0.0103  0.0225  0.1012
 1008YOPC   C4A13574   3.041   5.393   7.300 -0.0921  0.0761 -0.2105
 1008YOPC   C1B13575   2.163   5.827   6.224 -0.1587 -0.2615 -0.2980
 1008YOPC   C2B13576   2.038   5.650   6.720 -0.0731 -0.0474 -0.0087
 1008YOPC   D3B13577   2.229   5.714   7.084  0.1505  0.3587 -0.0184
 1008YOPC   C4B13578   2.471   5.712   7.485  0.2274 -0.1145  0.0210
 1009YOPC   NC313579   7.278   9.238   5.832  0.4073  0.1277 -0.1936
 1009YOPC   PO413580   6.951   9.516   5.840 -0.0120  0.0171 -0.2088
 1009YOPC   GL113581   7.224   9.490   6.243 -0.4445 -0.0377  0.0629
 1009YOPC   GL213582   6.962   9.615   6.404 -0.1064  0.0354 -0.1769
 1009YOPC   C1A13583   7.530   9.425   6.504 -0.0751 -0.1909 -0.2752
 1009YOPC   D2A13584   7.620   9.330   6.896 -0.2765  0.1289 -0.1867
 1009YOPC   C3A13585   7.621   8.842   6.937 -0.3001  0.0360  0.0176
 1009YOPC   C4A13586   7.612   8.323   6.873 -0.3885 -0.0976 -0.0292
 1009YOPC   C1B13587   7.061   9.706   6.709 -0.0274 -0.5601  0.1230
 1009YOPC   C2B13588   7.325   9.756   7.028  0.1932  0.0351 -0.1230
 1009YOPC   D3B13589   7.489   9.484   7.351 -0.1984  0.0556 -0.1655
 1009YOPC   C4B13590   7.281   9.375   7.795  0.0436  0.1785 -0.1291
 1010YOPC   NC313591  10.724   3.793   5.485  0.1840 -0.0524 -0.1982
 1010YOPC   PO413592  10.176   3.783   5.535  0.1614  0.0377  0.0453
 1010YOPC   GL113593  10.356   3.714   5.913 -0.1181  0.0115 -0.2953
 1010YOPC   GL213594  10.414   4.073   5.874  0.3028  0.0392  0.0346
 1010YOPC   C1A13595  10.149   3.508   6.262 -0.3528 -0.1030  0.1464
 1010YOPC   D2A13596   9.897   3.521   6.622  0.1663 -0.0814  0.2221
 1010YOPC   C3A13597   9.651   3.387   6.936  0.0141  0.2991  0.1607
 1010YOPC   C4A13598   9.474   3.156   7.223  0.2036 -0.0290  0.0187
 1010YOPC   C1B13599  10.649   4.264   6.268 -0.1349  0.0188 -0.1263
 1010YOPC   C2B13600  10.740   4.322   6.705 -0.0209 -0.2011 -0.0808
 1010YOPC   D3B13601  10.488   4.252   6.988  0.0538  0.3286  0.0366
 1010YOPC   C4B13602  10.537   4.018   7.345 -0.3107 -0.0239  0.0787
 1011YOPC   NC313603   5.646   1.367   5.268  0.0431 -0.1565  0.1928
 1011YOPC   PO413604   5.576   1.806   5.373 -0.3173  0.2881 -0.0596
 1011YOPC   GL113605   5.513   1.688   5.777 -0.1089 -0.2370  0.0028
 1011YOPC   GL213606   5.121   1.687   5.851  0.3289  0.1090 -0.2013
 1011YOPC   C1A13607   5.414   1.663   6.247 -0.5087  0.6267 -0.0023
 1011YOPC   D2A13608   5.392   1.827   6.763 -0.1296 -0.0867  0.5301
 1011YOPC   C3A13609   5.540   2.022   7.022 -0.0673  0.2383  0.1508
 1011YOPC   C4A13610   5.742   1.986   7.478  0.1126  0.0454 -0.0553
 1011YOPC   C1B13611   4.937   1.790   6.314 -0.2150  0.0687  0.4572
 1011YOPC   C2B13612   4.883   1.604   6.605  0.2855 -0.2166 -0.3804
 1011YOPC   D3B13613   4.875   1.746   6.967  0.0272  0.0365  0.1012
 1011YOPC   C4B13614   4.854   2.089   7.282 -0.1301  0.0085 -0.0807
 1012YOPC   NC313615  16.754  15.456   5.033  0.1203  0.3409 -0.0668
 1012YOPC   PO413616  16.794  15.210   5.531  0.0256 -0.3731  0.2086
 1012YOPC   GL113617  16.865  15.270   5.946 -0.1543 -0.0224  0.1160
 1012YOPC   GL213618  17.078  15.519   5.923 -0.1745 -0.1401 -0.1728
 1012YOPC   C1A13619  17.061  15.113   6.375 -0.2639 -0.0600  0.0830
 1012YOPC   D2A13620  17.169  15.071   6.791  0.1170 -0.1965  0.1241
 1012YOPC   C3A13621  16.984  14.979   7.312 -0.0849  0.0255  0.1390
 1012YOPC   C4A13622  16.795  14.933   7.675  0.0888 -0.0557 -0.0027
 1012YOPC   C1B13623  17.076  15.645   6.358  0.1250  0.3626 -0.0387
 1012YOPC   C2B13624  16.881  15.995   6.645 -0.1702 -0.1024 -0.0570
 1012YOPC   D3B13625  17.048  16.057   7.007 -0.1673  0.1698 -0.0476
 1012YOPC   C4B13626  16.985  16.192   7.341 -0.0038 -0.2977 -0.0650
 1013YOPC   NC313627   4.699   9.033   6.269  0.0640 -0.1584 -0.1444
 1013YOPC   PO413628   5.192   9.066   6.017 -0.0156  0.0075 -0.3886
 1013YOPC   GL113629   5.097   9.007   6.476 -0.1729  0.1038  0.1828
 1013YOPC   GL213630   4.946   9.098   6.730 -0.0717  0.2272 -0.0980
 1013YOPC   C1A13631   5.470   8.840   6.798  0.1807  0.1572 -0.0159
 1013YOPC   D2A13632   5.757   8.610   7.072  0.1209  0.0729  0.1283
 1013YOPC   C3A13633   5.335   8.488   7.410 -0.1281 -0.2196 -0.3341
 1013YOPC   C4A13634   5.287   8.374   7.779 -0.2285 -0.1324 -0.0515
 1013YOPC   C1B13635   5.034   9.260   7.096 -0.1236 -0.2003  0.3279
 1013YOPC   C2B13636   4.879   9.718   7.318  0.2027  0.2248 -0.0378
 1013YOPC   D3B13637   4.529   9.597   7.679  0.3821  0.4804 -0.3944
 1013YOPC   C4B13638   4.252   9.615   7.954  0.1063 -0.0634 -0.0960
 1014YOPC   NC313639   6.132   5.061   5.371  0.1883  0.1635 -0.2713
 1014YOPC   PO413640   6.131   4.567   5.408  0.2764 -0.1853 -0.1438
 1014YOPC   GL113641   6.137   4.609   5.801  0.2136  0.2106  0.2313
 1014YOPC   GL213642   6.526   4.535   5.747 -0.2022  0.3904 -0.3057
 1014YOPC   C1A13643   6.027   4.716   6.208 -0.2191 -0.0727 -0.1863
 1014YOPC   D2A13644   6.054   4.471   6.612  0.1790 -0.4106 -0.4529
 1014YOPC   C3A13645   6.453   4.391   6.736 -0.2474 -0.3230 -0.0754
 1014YOPC   C4A13646   6.750   4.763   6.680  0.0004 -0.0262  0.0660
 1014YOPC   C1B13647   6.618   4.591   6.143 -0.0851  0.0799 -0.1937
 1014YOPC   C2B13648   6.899   4.322   6.367 -0.2914 -0.2532  0.0472
 1014YOPC   D3B13649   7.022   4.226   6.721  0.0331 -0.1446  0.0230
 1014YOPC   C4B13650   7.115   3.825   6.859 -0.1879 -0.1461 -0.0792
 1015YOPC   NC313651   8.094   1.083   5.283  0.0750  0.3595  0.1607
 1015YOPC   PO413652   8.140   1.486   5.604 -0.1335 -0.0225  0.0849
 1015YOPC   GL113653   7.834   1.483   5.998  0.1109 -0.1369 -0.1460
 1015YOPC   GL213654   7.870   1.093   6.094 -0.1876 -0.5672 -0.2503
 1015YOPC   C1A13655   7.773   1.562   6.443  0.1870 -0.1010  0.3440
 1015YOPC   D2A13656   7.907   1.277   6.797  0.1204 -0.3018 -0.1078
 1015YOPC   C3A13657   7.793   0.852   6.964 -0.3066  0.1488 -0.3086
 1015YOPC   C4A13658   7.883   0.557   7.363 -0.0056  0.0971  0.4084
 1015YOPC   C1B13659   7.571   1.091   6.449  0.1477  0.2844 -0.4220
 1015YOPC   C2B13660   7.389   1.346   6.775  0.0345  0.0046  0.0290
 1015YOPC   D3B13661   7.599   1.524   7.116 -0.0381 -0.0490  0.1499
 1015YOPC   C4B13662   7.813   1.621   7.518  0.1461  0.3850 -0.2457
 1016YOPC   NC313663  10.239  17.692   5.455  0.2011  0.1495  0.2065
 1016YOPC   PO413664   9.950  18.030   5.440 -0.0335  0.0582  0.2271
 1016YOPC   GL113665  10.072  18.088   5.926  0.0427 -0.0731 -0.1738
 1016YOPC   GL213666  10.207  18.403   6.022  0.0916 -0.2471 -0.2874
 1016YOPC   C1A13667  10.218  18.018   6.320 -0.0621  0.2023 -0.0545
 1016YOPC   D2A13668  10.225  17.960   6.733 -0.2694  0.2580  0.0527
 1016YOPC   C3A13669  10.215  18.059   7.173 -0.1011 -0.0313  0.1383
 1016YOPC   C4A13670   9.924  18.048   7.436 -0.0841 -0.0451 -0.0636
 1016YOPC   C1B13671  10.029  18.511   6.392 -0.1960  0.1948  0.2188
 1016YOPC   C2B13672   9.830  18.888   6.533  0.1934 -0.1196 -0.0747
 1016YOPC   D3B13673   9.416  18.785   6.494 -0.0205  0.2126  0.0690
 1016YOPC   C4B13674   9.465  18.458   6.765 -0.2981 -0.1828 -0.1972
 1017YOPC   NC313675   6.043  18.387   5.553  0.0630 -0.0146 -0.1786
 1017YOPC   PO413676   5.796  18.052   5.754 -0.1119  0.1791 -0.2318
 1017YOPC   GL113677   6.022  18.138   6.070 -0.1063 -0.0094 -0.0037
 1017YOPC   GL213678   5.854  18.393   6.257 -0.0174  0.0741 -0.2014
 1017YOPC   C1A13679   6.452  18.163   6.196 -0.3055  0.0269 -0.1297
 1017YOPC   D2A13680   6.740  18.351   6.245 -0.1813 -0.1499 -0.2018
 1017YOPC   C3A13681   6.926  18.361   6.709  0.2371  0.0493  0.1113
 1017YOPC   C4A13682   7.133  18.564   7.100 -0.0171  0.1266 -0.2124
 1017YOPC   C1B13683   5.826  18.427   6.741  0.1040  0.0930  0.0599
 1017YOPC   C2B13684   5.674  18.475   7.169  0.0023 -0.1072  0.2284
 1017YOPC   D3B13685   5.820  18.282   7.481  0.3380  0.2259 -0.0253
 1017YOPC   C4B13686   5.951  18.191   7.930 -0.0574  0.0409  0.0415
 1018YOPC   NC313687  11.583   7.559   5.108 -0.0108  0.0628 -0.0503
 1018YOPC   PO413688  11.655   7.872   5.621 -0.0182 -0.7472  0.0562
 1018YOPC   GL113689  11.962   7.798   5.941  0.0238  0.2722 -0.2354
 1018YOPC   GL213690  11.740   7.609   6.161 -0.1303  0.2732 -0.2133
 1018YOPC   C1A13691  12.222   7.861   6.226 -0.1631 -0.1256  0.1491
 1018YOPC   D2A13692  12.397   8.132   6.482  0.0601 -0.0500  0.1495
 1018YOPC   C3A13693  12.725   8.091   6.722  0.0440 -0.1479 -0.1213
 1018YOPC   C4A13694  12.719   8.096   7.156 -0.0043  0.3284  0.0454
 1018YOPC   C1B13695  11.570   7.747   6.420 -0.3210  0.0913  0.1212
 1018YOPC   C2B13696  11.339   8.031   6.728  0.1051  0.0983 -0.1248
 1018YOPC   D3B13697  11.116   7.858   7.041 -0.0340  0.1868 -0.0094
 1018YOPC   C4B13698  10.971   7.863   7.456  0.0439  0.1295 -0.0270
 1019YOPC   NC313699   3.181   2.740   5.323  0.1168  0.0224 -0.2033
 1019YOPC   PO413700   2.959   3.133   5.370  0.1562  0.0378 -0.0846
 1019YOPC   GL113701   2.893   3.166   5.752  0.0861  0.1681 -0.0626
 1019YOPC   GL213702   3.130   2.916   5.887 -0.0122 -0.0800  0.1791
 1019YOPC   C1A13703   2.789   3.320   6.122 -0.0492 -0.3383 -0.0358
 1019YOPC   D2A13704   2.572   3.629   6.286  0.1278 -0.4496 -0.0692
 1019YOPC   C3A13705   2.740   3.936   6.691 -0.0935  0.2489  0.0011
 1019YOPC   C4A13706   3.074   3.776   6.850 -0.1524  0.2745  0.0901
 1019YOPC   C1B13707   3.277   3.022   6.313 -0.0502  0.4037  0.1505
 1019YOPC   C2B13708   3.652   3.021   6.695  0.0721  0.0384  0.0255
 1019YOPC   D3B13709   4.014   3.029   6.836 -0.0725 -0.2428 -0.1522
 1019YOPC   C4B13710   4.187   2.920   7.250 -0.1767 -0.1445 -0.2287
 1020YOPC   NC313711  16.260  13.287   5.445  0.4142 -0.0009  0.0405
 1020YOPC   PO413712  16.534  13.027   5.743  0.2812  0.2338 -0.2548
 1020YOPC   GL113713  16.397  13.342   5.983  0.0237 -0.0685  0.2746
 1020YOPC   GL213714  16.053  13.438   6.032 -0.0534 -0.1014 -0.1791
 1020YOPC   C1A13715  16.557  13.328   6.312 -0.1381  0.0161  0.2815
 1020YOPC   D2A13716  16.515  13.271   6.660 -0.1363  0.1188 -0.1284
 1020YOPC   C3A13717  16.441  13.085   7.022  0.0095  0.0134 -0.0529
 1020YOPC   C4A13718  16.317  12.856   7.426 -0.1098  0.3786 -0.0131
 1020YOPC   C1B13719  16.106  13.435   6.430  0.2618  0.2561  0.0887
 1020YOPC   C2B13720  16.075  13.419   6.896  0.0823  0.0482  0.1576
 1020YOPC   D3B13721  15.830  13.608   7.179  0.1483 -0.0712 -0.0391
 1020YOPC   C4B13722  16.138  13.912   7.522 -0.0475  0.2800  0.3950
 1021YOPC   NC313723  11.668  12.171   5.686  0.0245 -0.2263 -0.2345
 1021YOPC   PO413724  11.318  12.349   5.926  0.2948  0.2439  0.1022
 1021YOPC   GL113725  11.351  12.323   6.238  0.4454 -0.1674 -0.2340
 1021YOPC   GL213726  11.002  12.488   6.297 -0.1658  0.0830 -0.0676
 1021YOPC   C1A13727  11.603  12.414   6.492 -0.1127  0.1659 -0.0832
 1021YOPC   D2A13728  11.652  12.788   6.670  0.3122  0.0668  0.2224
 1021YOPC   C3A13729  11.594  13.013   7.022 -0.0796  0.0650 -0.4720
 1021YOPC   C4A13730  11.583  12.859   7.355  0.0004  0.3577  0.2483
 1021YOPC   C1B13731  11.163  12.435   6.723  0.1978  0.3235 -0.0645
 1021YOPC   C2B13732  11.420  12.418   7.006  0.0128 -0.1775 -0.1348
 1021YOPC   D3B13733  11.551  12.186   7.300  0.0182 -0.1104  0.4698
 1021YOPC   C4B13734  11.464  11.943   7.544 -0.1355 -0.1929 -0.1970
 1022YOPC   NC313735  15.220   5.935   5.639 -0.1169  0.0874  0.3432
 1022YOPC   PO413736  15.575   5.736   5.604  0.3925 -0.1318 -0.3817
 1022YOPC   GL113737  15.423   5.651   6.028  0.0954 -0.0269  0.1155
 1022YOPC   GL213738  15.303   5.962   6.182  0.3933  0.2323 -0.2290
 1022YOPC   C1A13739  15.647   5.698   6.452  0.0074  0.1198  0.1679
 1022YOPC   D2A13740  15.769   5.380   6.848  0.1319 -0.0012 -0.0519
 1022YOPC   C3A13741  15.769   5.519   7.234  0.2252  0.1231 -0.0577
 1022YOPC   C4A13742  15.825   5.322   7.575  0.3418 -0.0050  0.1711
 1022YOPC   C1B13743  15.125   5.733   6.547  0.1961  0.1366 -0.2130
 1022YOPC   C2B13744  15.244   5.685   6.984 -0.3801  0.1188  0.1280
 1022YOPC   D3B13745  15.225   5.534   7.450  0.2343 -0.1808  0.1204
 1022YOPC   C4B13746  15.430   5.547   7.853  0.1846  0.1235 -0.2106
 1023YOPC   NC313747   4.001  14.942   5.254 -0.0522 -0.3100 -0.2853
 1023YOPC   PO413748   4.149  15.314   5.311  0.1473  0.1550  0.0674
 1023YOPC   GL113749   4.068  15.404   5.752 -0.1497 -0.0060 -0.0266
 1023YOPC   GL213750   3.929  15.801   5.891  0.1987  0.2541  0.0559
 1023YOPC   C1A13751   4.148  15.459   6.218 -0.1231 -0.1993 -0.0733
 1023YOPC   D2A13752   3.742  15.201   6.433 -0.1668 -0.1258 -0.0495
 1023YOPC   C3A13753   3.846  15.116   6.937  0.1237  0.1927  0.0075
 1023YOPC   C4A13754   3.645  15.207   7.248  0.1807  0.2046 -0.1326
 1023YOPC   C1B13755   3.957  15.986   6.192 -0.0092  0.1711  0.0675
 1023YOPC   C2B13756   4.147  16.021   6.621 -0.2707 -0.0329  0.1432
 1023YOPC   D3B13757   4.515  16.226   6.663  0.0385 -0.0934  0.1334
 1023YOPC   C4B13758   4.920  16.263   6.281 -0.1702  0.4209  0.2287
 1024YOPC   NC313759   9.203   3.289   5.769 -0.1249 -0.4246  0.0066
 1024YOPC   PO413760   8.751   3.406   5.855 -0.0781 -0.0141  0.1159
 1024YOPC   GL113761   8.675   3.666   6.205 -0.1575  0.0956 -0.1979
 1024YOPC   GL213762   8.346   3.625   6.241 -0.5979  0.1267 -0.2099
 1024YOPC   C1A13763   8.787   3.730   6.703 -0.2286  0.3112 -0.3515
 1024YOPC   D2A13764   8.674   3.771   7.102 -0.2814 -0.0634 -0.0200
 1024YOPC   C3A13765   8.316   4.034   7.309 -0.0402 -0.0952 -0.0223
 1024YOPC   C4A13766   7.902   4.177   7.395  0.4103 -0.5034 -0.0162
 1024YOPC   C1B13767   8.364   3.437   6.660 -0.1845  0.4360 -0.3327
 1024YOPC   C2B13768   8.251   3.034   6.882  0.0278 -0.1331 -0.1146
 1024YOPC   D3B13769   8.080   2.990   7.309  0.1162 -0.0028 -0.0678
 1024YOPC   C4B13770   7.994   2.828   7.712 -0.0599 -0.4241  0.2781
 1025YOPC   NC313771   6.511   8.100   5.961  0.0520 -0.1491 -0.3968
 1025YOPC   PO413772   6.520   8.563   5.875  0.2167  0.3382 -0.0664
 1025YOPC   GL113773   6.554   8.519   6.259  0.1762 -0.3279  0.1153
 1025YOPC   GL213774   6.383   8.264   6.509 -0.1047  0.2314  0.0206
 1025YOPC   C1A13775   6.645   8.746   6.637  0.1041  0.2230  0.0873
 1025YOPC   D2A13776   6.705   8.774   7.051 -0.1915  0.0731 -0.2601
 1025YOPC   C3A13777   6.788   8.402   7.364 -0.0273  0.0583  0.2300
 1025YOPC   C4A13778   7.037   8.516   7.674  0.2598 -0.2752 -0.4010
 1025YOPC   C1B13779   6.648   8.210   6.797 -0.0844 -0.0343 -0.0773
 1025YOPC   C2B13780   7.088   8.151   7.030  0.0721 -0.3401  0.0669
 1025YOPC   D3B13781   7.002   7.901   7.424  0.1357  0.0356 -0.0426
 1025YOPC   C4B13782   6.841   7.846   7.884 -0.0362  0.1448  0.3685
 1026YOPC   NC313783   2.327   2.757   5.371 -0.0137 -0.1858 -0.0822
 1026YOPC   PO413784   2.727   2.660   5.580 -0.2563  0.2188 -0.2849
 1026YOPC   GL113785   2.428   2.748   5.999  0.3313 -0.1202 -0.0236
 1026YOPC   GL213786   2.708   2.776   6.157  0.1512 -0.0746  0.2361
 1026YOPC   C1A13787   2.275   2.639   6.369 -0.3471  0.0855  0.1924
 1026YOPC   D2A13788   2.074   2.605   6.717 -0.2341 -0.3812  0.0405
 1026YOPC   C3A13789   2.215   2.189   7.026  0.3391  0.2674 -0.0938
 1026YOPC   C4A13790   2.149   1.752   7.262  0.1689 -0.1379  0.0053
 1026YOPC   C1B13791   2.602   2.963   6.574  0.2349  0.0849 -0.1592
 1026YOPC   C2B13792   2.570   2.875   7.045 -0.0293 -0.0489 -0.1730
 1026YOPC   D3B13793   2.982   2.985   7.340  0.1295  0.2461 -0.5282
 1026YOPC   C4B13794   3.356   3.291   7.496  0.1553  0.2278  0.2029
 1027YOPC   NC313795  13.734  14.610   5.842 -0.0400 -0.1966 -0.0430
 1027YOPC   PO413796  13.520  14.922   5.856  0.0073 -0.0260 -0.5918
 1027YOPC   GL113797  13.326  15.098   6.248  0.2517  0.2007  0.0961
 1027YOPC   GL213798  13.056  14.922   6.271 -0.0247  0.5026  0.3598
 1027YOPC   C1A13799  13.485  15.373   6.509  0.3233 -0.0490  0.2945
 1027YOPC   D2A13800  13.810  15.461   6.767  0.1454  0.0901  0.0037
 1027YOPC   C3A13801  14.140  15.278   7.016 -0.5187 -0.1350 -0.0022
 1027YOPC   C4A13802  14.588  15.463   7.253  0.2473  0.5173  0.0932
 1027YOPC   C1B13803  13.112  15.008   6.741  0.0186 -0.2063 -0.0457
 1027YOPC   C2B13804  13.098  14.872   7.189 -0.3086 -0.0813  0.1702
 1027YOPC   D3B13805  13.057  15.074   7.423  0.1027 -0.2420 -0.0323
 1027YOPC   C4B13806  13.332  15.304   7.628 -0.2774  0.2870  0.2097
 1028YOPC   NC313807  15.152   3.194   4.899  0.0700  0.3189 -0.1451
 1028YOPC   PO413808  15.117   3.104   5.397 -0.1686  0.3668  0.1037
 1028YOPC   GL113809  14.946   3.253   5.788  0.0717  0.2171  0.2678
 1028YOPC   GL213810  14.698   3.371   5.688 -0.1013 -0.1964  0.3110
 1028YOPC   C1A13811  15.072   3.287   6.183  0.0765 -0.2632 -0.0941
 1028YOPC   D2A13812  15.048   3.352   6.595 -0.1153 -0.0598  0.1812
 1028YOPC   C3A13813  14.741   3.613   6.809  0.0185  0.1900 -0.0555
 1028YOPC   C4A13814  14.582   4.024   7.010  0.3800 -0.0235 -0.3649
 1028YOPC   C1B13815  14.678   3.637   6.185  0.1015  0.0945 -0.1021
 1028YOPC   C2B13816  14.520   3.977   6.348 -0.1341  0.1137  0.2220
 1028YOPC   D3B13817  14.853   4.020   6.592 -0.0578 -0.1990 -0.2596
 1028YOPC   C4B13818  15.057   4.191   6.852 -0.0569  0.3161  0.1581
 1029YOPC   NC313819  18.383  15.879   5.079  0.0934  0.1064 -0.2672
 1029YOPC   PO413820  18.501  15.586   5.469 -0.2568 -0.1619 -0.0595
 1029YOPC   GL113821  18.504  15.759   5.901 -0.1792 -0.2097  0.0393
 1029YOPC   GL213822  18.528  16.064   5.751  0.1690 -0.0753 -0.0412
 1029YOPC   C1A13823  18.524  15.914   6.345  0.0550 -0.3028  0.2163
 1029YOPC   D2A13824  18.553  16.212   6.650 -0.0133  0.0247 -0.1973
 1029YOPC   C3A13825  18.365  16.086   6.988  0.5799 -0.2683  0.0176
 1029YOPC   C4A13826  18.311  15.866   7.401 -0.0739  0.0329  0.2667
 1029YOPC   C1B13827  18.732  16.324   6.048 -0.1382  0.1919  0.3988
 1029YOPC   C2B13828  19.065  16.276   6.273  0.1111  0.0304 -0.0887
 1029YOPC   D3B13829  19.038  16.235   6.726  0.1619  0.4270  0.1320
 1029YOPC   C4B13830  19.288  15.909   6.985 -0.5296  0.2880  0.0884
 1030YOPC   NC313831  12.463  18.447   5.447 -0.1891 -0.0627  0.0368
 1030YOPC   PO413832  12.648  18.739   5.671 -0.1034  0.0176 -0.4275
 1030YOPC   GL113833  12.568  18.555   6.001 -0.0993 -0.0801 -0.1335
 1030YOPC   GL213834  12.318  18.810   6.164 -0.0282 -0.0883  0.2331
 1030YOPC   C1A13835  12.705  18.418   6.392 -0.0378 -0.1046 -0.0915
 1030YOPC   D2A13836  12.896  18.547   6.859 -0.0521  0.0953  0.2143
 1030YOPC   C3A13837  13.246  18.457   7.056 -0.1993  0.0906 -0.2328
 1030YOPC   C4A13838  13.612  18.159   7.106  0.2963  0.2972 -0.4369
 1030YOPC   C1B13839  12.154  18.738   6.573  0.1331  0.0739 -0.2191
 1030YOPC   C2B13840  12.137  18.882   6.977 -0.3071  0.2986 -0.0438
 1030YOPC   D3B13841  11.879  18.708   7.381  0.1643  0.0105  0.0005
 1030YOPC   C4B13842  11.925  18.447   7.797 -0.1945 -0.2577  0.1724
 1031YOPC   NC313843   7.379  15.168   5.946 -0.0033 -0.0443 -0.0982
 1031YOPC   PO413844   6.814  15.223   5.844 -0.1401 -0.0535  0.1287
 1031YOPC   GL113845   6.746  15.138   6.277  0.2619 -0.0126  0.1077
 1031YOPC   GL213846   6.452  14.920   6.386 -0.1304 -0.1938 -0.1923
 1031YOPC   C1A13847   6.556  15.291   6.721 -0.1253  0.3502  0.0798
 1031YOPC   D2A13848   6.549  15.210   7.170 -0.0169  0.0975  0.1447
 1031YOPC   C3A13849   6.956  15.101   7.226 -0.3174  0.0150 -0.1650
 1031YOPC   C4A13850   7.237  15.330   7.490  0.0634  0.3577  0.2625
 1031YOPC   C1B13851   6.920  14.846   6.650  0.1423 -0.0323  0.1786
 1031YOPC   C2B13852   7.221  14.568   6.662 -0.0993  0.0187  0.4058
 1031YOPC   D3B13853   7.498  14.755   6.948  0.0429  0.0039 -0.1525
 1031YOPC   C4B13854   7.905  14.830   7.047  0.0514 -0.1879  0.1755
 1032YOPC   NC313855   7.373  16.690   5.361 -0.1898  0.0584 -0.1879
 1032YOPC   PO413856   7.011  16.847   5.537 -0.3520  0.3197  0.0089
 1032YOPC   GL113857   7.094  17.069   5.846 -0.0560  0.1649  0.2948
 1032YOPC   GL213858   6.812  17.086   6.030  0.0484 -0.0337  0.0940
 1032YOPC   C1A13859   7.416  17.062   6.069  0.0328  0.0184  0.0941
 1032YOPC   D2A13860   7.593  17.076   6.487  0.3478 -0.0414  0.0229
 1032YOPC   C3A13861   7.165  17.240   6.817 -0.0609  0.2656  0.1785
 1032YOPC   C4A13862   6.945  17.594   7.111 -0.1087  0.0608 -0.1771
 1032YOPC   C1B13863   7.028  17.357   6.324 -0.2233  0.1558 -0.0184
 1032YOPC   C2B13864   7.407  17.628   6.473 -0.1835 -0.2756 -0.2185
 1032YOPC   D3B13865   7.575  17.716   6.880 -0.3499  0.0355  0.3332
 1032YOPC   C4B13866   7.607  17.799   7.285  0.2047 -0.0078 -0.1172
 1033YOPC   NC313867   4.222  13.084   6.140 -0.2653  0.0085 -0.2376
 1033YOPC   PO413868   3.989  12.760   5.921  0.4253 -0.2287 -0.1256
 1033YOPC   GL113869   3.953  12.698   6.371 -0.0726 -0.0063  0.0777
 1033YOPC   GL213870   3.806  12.538   6.462  0.0878  0.0166  0.1503
 1033YOPC   C1A13871   3.760  12.946   6.801 -0.1848  0.3155 -0.1550
 1033YOPC   D2A13872   3.689  13.043   7.359  0.1616  0.0628 -0.1271
 1033YOPC   C3A13873   3.390  12.830   7.541 -0.0249 -0.0418 -0.1298
 1033YOPC   C4A13874   3.032  12.596   7.503 -0.1022 -0.1901 -0.1972
 1033YOPC   C1B13875   3.738  12.271   6.853  0.0936  0.0664  0.0126
 1033YOPC   C2B13876   3.992  11.959   7.078 -0.4346  0.2589  0.0169
 1033YOPC   D3B13877   4.299  11.947   7.428 -0.1357  0.0090  0.2166
 1033YOPC   C4B13878   4.663  12.279   7.540 -0.4504  0.3756  0.2950
 1034YOPC   NC313879  14.542  16.906   5.624 -0.1529 -0.0677 -0.0321
 1034YOPC   PO413880  14.147  16.917   5.701  0.3138 -0.0049  0.1457
 1034YOPC   GL113881  14.166  16.597   6.017  0.1645 -0.1141  0.0054
 1034YOPC   GL213882  14.442  16.819   6.095 -0.2716  0.1063 -0.0029
 1034YOPC   C1A13883  13.972  16.466   6.431  0.0556 -0.1335  0.1787
 1034YOPC   D2A13884  13.914  16.495   6.780 -0.2714  0.1221  0.0906
 1034YOPC   C3A13885  13.461  16.613   6.967  0.1890  0.4485 -0.3827
 1034YOPC   C4A13886  13.076  16.642   6.988 -0.2068 -0.1991  0.3186
 1034YOPC   C1B13887  14.503  16.967   6.377 -0.3487  0.2463 -0.0056
 1034YOPC   C2B13888  14.478  16.975   6.712  0.1387 -0.1026 -0.0992
 1034YOPC   D3B13889  14.550  17.174   7.194  0.0914 -0.1817 -0.0565
 1034YOPC   C4B13890  14.300  17.412   7.437  0.3052 -0.0260 -0.2959
 1035YOPC   NC313891  16.558  17.244   4.980 -0.0271 -0.1251 -0.1704
 1035YOPC   PO413892  16.474  17.001   5.272  0.2077 -0.2113 -0.0919
 1035YOPC   GL113893  16.489  16.819   5.624 -0.1102 -0.0667  0.0377
 1035YOPC   GL213894  16.766  16.697   5.684 -0.2018  0.1162 -0.1760
 1035YOPC   C1A13895  16.421  16.827   6.064 -0.0751  0.1464  0.1750
 1035YOPC   D2A13896  16.099  16.817   6.466  0.0483 -0.0583 -0.0097
 1035YOPC   C3A13897  15.898  16.478   6.496 -0.1002 -0.2511  0.0533
 1035YOPC   C4A13898  15.967  16.102   6.275  0.1105  0.2936 -0.1745
 1035YOPC   C1B13899  16.910  16.982   5.963  0.1845 -0.1988 -0.2292
 1035YOPC   C2B13900  17.122  17.378   6.083  0.2778 -0.2336  0.1330
 1035YOPC   D3B13901  17.187  17.484   6.484  0.0439  0.3229 -0.1431
 1035YOPC   C4B13902  17.324  17.399   6.890  0.0454  0.1172 -0.1785
 1036YOPC   NC313903  17.160   6.786   5.222 -0.1535  0.2658  0.1116
 1036YOPC   PO413904  17.439   6.561   5.497 -0.0113  0.2204 -0.2956
 1036YOPC   GL113905  17.480   6.616   6.011  0.0408 -0.3650  0.4764
 1036YOPC   GL213906  17.772   6.588   6.031 -0.0249 -0.2328  0.6009
 1036YOPC   C1A13907  17.244   6.429   6.244  0.3413 -0.5184 -0.3210
 1036YOPC   D2A13908  17.153   6.433   6.658 -0.0509 -0.0691  0.0515
 1036YOPC   C3A13909  17.486   6.281   6.902 -0.2086  0.0503  0.1117
 1036YOPC   C4A13910  17.819   6.045   7.203  0.1119 -0.3812  0.1876
 1036YOPC   C1B13911  17.687   6.320   6.359  0.0337 -0.0367 -0.0389
 1036YOPC   C2B13912  17.834   5.969   6.517 -0.0743 -0.1039  0.1932
 1036YOPC   D3B13913  17.772   5.668   6.864  0.2187 -0.1695 -0.2031
 1036YOPC   C4B13914  17.545   5.258   6.821  0.1067 -0.3055  0.0319
 1037YOPC   NC313915   1.152  11.631   5.695 -0.1798 -0.2456 -0.0048
 1037YOPC   PO413916   1.316  12.041   5.648 -0.2855 -0.2156  0.1941
 1037YOPC   GL113917   1.008  12.239   6.033  0.1866  0.1178  0.2268
 1037YOPC   GL213918   0.652  12.149   6.078 -0.3317  0.0233 -0.1738
 1037YOPC   C1A13919   1.101  12.396   6.465  0.1290 -0.0588 -0.0891
 1037YOPC   D2A13920   1.115  12.204   6.801  0.1329 -0.3632  0.1633
 1037YOPC   C3A13921   1.533  11.943   6.892 -0.1285  0.0267  0.0057
 1037YOPC   C4A13922   1.702  11.755   7.240 -0.2116 -0.2163 -0.3788
 1037YOPC   C1B13923   0.717  12.085   6.552  0.2502 -0.2284 -0.0964
 1037YOPC   C2B13924   0.851  11.821   6.896 -0.2328 -0.2359 -0.1036
 1037YOPC   D3B13925   1.078  11.937   7.290  0.1601  0.3219  0.2572
 1037YOPC   C4B13926   0.955  12.099   7.694  0.1403  0.1005 -0.1589
 1038YOPC   NC313927  17.864   1.423   5.169  0.0496  0.1402 -0.0064
 1038YOPC   PO413928  17.754   0.950   5.302 -0.0968  0.0527  0.1400
 1038YOPC   GL113929  17.864   1.090   5.732  0.1902  0.1154  0.0275
 1038YOPC   GL213930  17.749   0.802   5.810  0.2689  0.1584 -0.0131
 1038YOPC   C1A13931  17.787   1.370   6.078  0.2719  0.1751  0.3372
 1038YOPC   D2A13932  17.861   1.672   6.510 -0.0337  0.0235  0.1539
 1038YOPC   C3A13933  18.042   1.606   6.880 -0.3354 -0.0459 -0.2083
 1038YOPC   C4A13934  18.412   1.667   7.197  0.3342  0.0412 -0.1061
 1038YOPC   C1B13935  17.703   0.930   6.267  0.1663  0.1341 -0.1911
 1038YOPC   C2B13936  17.497   0.883   6.676 -0.3757  0.0539 -0.0997
 1038YOPC   D3B13937  17.623   0.774   7.065  0.0795  0.1268 -0.1169
 1038YOPC   C4B13938  17.747   0.733   7.431 -0.0860 -0.4981  0.2191
 1039YOPC   NC313939  14.843   9.114   5.832 -0.0774  0.1976  0.1934
 1039YOPC   PO413940  15.095   9.489   5.866  0.1046 -0.1964  0.2544
 1039YOPC   GL113941  15.335   9.491   6.308  0.0391  0.1661  0.0029
 1039YOPC   GL213942  15.628   9.683   6.351  0.1778 -0.1361 -0.1529
 1039YOPC   C1A13943  15.547   9.464   6.772  0.0544 -0.3087  0.0508
 1039YOPC   D2A13944  15.788   9.584   7.092  0.0542 -0.0314  0.4149
 1039YOPC   C3A13945  15.717   9.721   7.482 -0.2263 -0.0444  0.1709
 1039YOPC   C4A13946  15.819   9.648   7.965  0.2368 -0.0258 -0.2271
 1039YOPC   C1B13947  15.810   9.861   6.614 -0.1916  0.0082 -0.2233
 1039YOPC   C2B13948  15.937  10.075   6.936 -0.0205 -0.1800  0.0930
 1039YOPC   D3B13949  15.668  10.269   7.298 -0.3149 -0.1071  0.0265
 1039YOPC   C4B13950  15.685  10.749   7.388 -0.1973 -0.1894 -0.0504
 1040YOPC   NC313951   8.872   6.225   5.977 -0.0506 -0.1937  0.1947
 1040YOPC   PO413952   9.244   6.241   5.612  0.0062  0.1144  0.1485
 1040YOPC   GL113953   9.435   6.119   6.081 -0.4112  0.3898  0.0189
 1040YOPC   GL213954   9.250   5.887   6.226  0.1041 -0.0706 -0.0861
 1040YOPC   C1A13955   9.466   6.316   6.503  0.1094 -0.1583  0.2634
 1040YOPC   D2A13956   9.493   6.509   6.934  0.2229 -0.0413  0.0245
 1040YOPC   C3A13957   9.416   6.541   7.397 -0.1287  0.2617 -0.0509
 1040YOPC   C4A13958   9.190   6.781   7.667  0.0959  0.1771 -0.3515
 1040YOPC   C1B13959   9.268   5.876   6.713 -0.2348 -0.2011 -0.0451
 1040YOPC   C2B13960   8.981   5.762   6.884 -0.0035  0.2968 -0.0409
 1040YOPC   D3B13961   8.592   5.863   6.702 -0.2359 -0.2020 -0.1661
 1040YOPC   C4B13962   8.356   5.643   6.480  0.2063 -0.1542 -0.3523
 1041YOPC   NC313963   9.743   8.616   5.480 -0.3320 -0.2317 -0.0569
 1041YOPC   PO413964  10.043   8.624   5.875 -0.0186  0.0223  0.0294
 1041YOPC   GL113965  10.010   8.474   6.259 -0.0739  0.0740  0.1511
 1041YOPC   GL213966   9.700   8.614   6.335 -0.0796  0.1231 -0.0433
 1041YOPC   C1A13967   9.857   8.371   6.739 -0.0399 -0.1120  0.1366
 1041YOPC   D2A13968   9.700   8.546   7.160 -0.4483  0.0713  0.3217
 1041YOPC   C3A13969   9.934   8.284   7.462  0.1241 -0.2218 -0.1354
 1041YOPC   C4A13970  10.007   8.337   7.913  0.0142 -0.0647  0.4590
 1041YOPC   C1B13971   9.670   8.871   6.667  0.3514 -0.1570  0.1937
 1041YOPC   C2B13972   9.754   9.029   6.953 -0.0516  0.2070  0.0148
 1041YOPC   D3B13973   9.526   9.406   6.949 -0.0020  0.0387 -0.3649
 1041YOPC   C4B13974   9.656   9.827   6.778  0.1795  0.1406 -0.1211
 1042YOPC   NC313975  13.866  11.824   5.445  0.0651 -0.0870  0.1629
 1042YOPC   PO413976  14.136  11.854   5.939  0.1070 -0.3051  0.2403
 1042YOPC   GL113977  14.241  11.740   6.370 -0.0504  0.0987 -0.4469
 1042YOPC   GL213978  14.559  11.682   6.431 -0.0969 -0.0207 -0.0247
 1042YOPC   C1A13979  14.129  11.856   6.797  0.2380  0.1922 -0.1267
 1042YOPC   D2A13980  14.070  11.977   7.285  0.0910  0.2110  0.1361
 1042YOPC   C3A13981  14.183  11.757   7.645  0.1626 -0.1498  0.0036
 1042YOPC   C4A13982  14.193  11.605   8.041 -0.0378 -0.1836  0.2029
 1042YOPC   C1B13983  14.607  11.683   6.828 -0.0906 -0.1580 -0.0307
 1042YOPC   C2B13984  14.512  11.693   7.198 -0.0792 -0.0971  0.0194
 1042YOPC   D3B13985  14.729  11.327   7.319 -0.0140  0.1858  0.0271
 1042YOPC   C4B13986  14.709  10.916   7.315  0.1345  0.1719 -0.2035
 1043YOPC   NC313987  10.716  16.953   5.086  0.0958  0.2024  0.1760
 1043YOPC   PO413988  10.979  16.832   5.484 -0.0011 -0.0462  0.0455
 1043YOPC   GL113989  11.128  16.934   5.938  0.0579  0.3500  0.0284
 1043YOPC   GL213990  10.983  16.587   5.895 -0.0741 -0.2860  0.2210
 1043YOPC   C1A13991  11.047  16.907   6.305 -0.4827 -0.0623 -0.1369
 1043YOPC   D2A13992  10.625  17.029   6.473 -0.0717 -0.0852  0.0582
 1043YOPC   C3A13993  10.200  16.973   6.340  0.3358 -0.0452  0.1585
 1043YOPC   C4A13994  10.004  16.726   5.969  0.0037  0.3367 -0.0189
 1043YOPC   C1B13995  10.740  16.143   6.124 -0.3528  0.2793  0.0519
 1043YOPC   C2B13996  10.556  16.056   6.527  0.2705 -0.2796  0.2208
 1043YOPC   D3B13997  10.738  15.992   6.820  0.0601 -0.3596 -0.2788
 1043YOPC   C4B13998  11.057  16.289   7.023  0.0370  0.1623  0.1189
 1044YOPC   NC313999  11.573   4.476   5.493 -0.1058 -0.1244 -0.0584
 1044YOPC   PO414000  11.621   4.032   5.572 -0.0073  0.0874  0.3314
 1044YOPC   GL114001  11.451   3.813   5.944 -0.1588  0.0397  0.0991
 1044YOPC   GL214002  11.687   3.808   6.034  0.4063 -0.0914  0.3151
 1044YOPC   C1A14003  11.179   3.747   6.303  0.0066 -0.0425  0.2223
 1044YOPC   D2A14004  10.962   3.744   6.707  0.1383 -0.2749  0.4199
 1044YOPC   C3A14005  11.016   3.797   7.221  0.3918 -0.1029 -0.0920
 1044YOPC   C4A14006  11.008   3.840   7.677  0.1900 -0.0191  0.3516
 1044YOPC   C1B14007  11.634   3.997   6.451  0.1606 -0.0700 -0.1247
 1044YOPC   C2B14008  11.754   4.104   6.888 -0.0557  0.1804  0.4219
 1044YOPC   D3B14009  11.497   3.795   7.236  0.1776 -0.3154  0.0513
 1044YOPC   C4B14010  11.697   3.614   7.648  0.1167  0.0100 -0.2918
 1045YOPC   NC314011  12.738   8.430   5.308 -0.0385  0.2532  0.2145
 1045YOPC   PO414012  12.682   8.125   5.591  0.2220 -0.0516  0.2278
 1045YOPC   GL114013  12.800   8.118   5.992 -0.3133  0.0439 -0.0586
 1045YOPC   GL214014  13.083   8.208   6.101 -0.0147  0.0801  0.1548
 1045YOPC   C1A14015  12.797   7.835   6.314  0.2813 -0.2011 -0.0063
 1045YOPC   D2A14016  12.981   7.461   6.258 -0.2235 -0.0404 -0.2711
 1045YOPC   C3A14017  13.189   7.165   6.435 -0.0566  0.0122 -0.1446
 1045YOPC   C4A14018  13.407   6.826   6.371 -0.3297  0.0167  0.1172
 1045YOPC   C1B14019  13.190   8.273   6.481  0.0499 -0.1468 -0.2727
 1045YOPC   C2B14020  13.143   8.252   6.983 -0.1552 -0.0157  0.0688
 1045YOPC   D3B14021  13.394   7.953   7.110 -0.0969 -0.0599 -0.2109
 1045YOPC   C4B14022  13.253   7.809   7.446 -0.3679 -0.1896  0.2519
 1046YOPC   NC314023   2.672  12.357   5.448 -0.0634  0.2176 -0.0582
 1046YOPC   PO414024   2.778  12.743   5.373 -0.1200 -0.0011 -0.0138
 1046YOPC   GL114025   2.797  12.689   5.768  0.0903 -0.2041  0.6171
 1046YOPC   GL214026   2.439  12.659   5.877 -0.2440  0.1266  0.0709
 1046YOPC   C1A14027   2.584  13.020   6.162 -0.2277 -0.2799 -0.1295
 1046YOPC   D2A14028   2.396  13.072   6.511 -0.1983  0.0084  0.3596
 1046YOPC   C3A14029   2.299  13.592   6.711 -0.0863  0.1213  0.3013
 1046YOPC   C4A14030   2.547  14.048   6.642 -0.1461 -0.2729 -0.1186
 1046YOPC   C1B14031   2.075  12.740   6.103  0.0428 -0.1629  0.0250
 1046YOPC   C2B14032   1.848  12.746   6.500 -0.0413  0.0082  0.0337
 1046YOPC   D3B14033   1.982  12.656   6.946 -0.0518  0.2865 -0.1941
 1046YOPC   C4B14034   2.099  12.651   7.406 -0.0634 -0.2530  0.1690
 1047YOPC   NC314035   7.874  11.582   6.015  0.0254 -0.0312 -0.0455
 1047YOPC   PO414036   8.260  11.364   6.140 -0.1022 -0.0511  0.1145
 1047YOPC   GL114037   8.723  11.335   6.396 -0.0411 -0.2001  0.0670
 1047YOPC   GL214038   8.781  11.620   6.390  0.2400 -0.1577 -0.1245
 1047YOPC   C1A14039   8.932  11.358   6.901  0.0127 -0.5334 -0.3935
 1047YOPC   D2A14040   8.805  11.439   7.312 -0.3397  0.2651  0.0449
 1047YOPC   C3A14041   8.875  11.294   7.717 -0.1163  0.1990  0.1596
 1047YOPC   C4A14042   8.961  11.014   8.033 -0.0589  0.2068 -0.1449
 1047YOPC   C1B14043   8.734  11.849   6.745  0.0241 -0.3155 -0.1348
 1047YOPC   C2B14044   8.604  11.864   7.123  0.0341 -0.1718  0.0881
 1047YOPC   D3B14045   8.792  11.841   7.551  0.1602  0.3589 -0.0439
 1047YOPC   C4B14046   8.945  11.694   7.951 -0.2019 -0.0904 -0.0343
 1048YOPC   NC314047  11.837  18.074   5.869 -0.5535 -0.2223 -0.2063
 1048YOPC   PO414048  12.021  17.740   5.594  0.0007 -0.1024  0.2981
 1048YOPC   GL114049  12.106  17.702   6.057  0.4231 -0.2742  0.0029
 1048YOPC   GL214050  11.851  17.647   6.248  0.1506 -0.1527  0.0159
 1048YOPC   C1A14051  12.321  17.591   6.428 -0.0063 -0.1407  0.2160
 1048YOPC   D2A14052  12.434  17.643   6.791 -0.1290  0.1399  0.1679
 1048YOPC   C3A14053  12.758  17.831   6.946  0.0056  0.1758 -0.3499
 1048YOPC   C4A14054  13.177  17.974   7.172 -0.0383  0.0421  0.2211
 1048YOPC   C1B14055  11.911  17.418   6.677 -0.0997 -0.0165 -0.0473
 1048YOPC   C2B14056  11.929  17.410   7.093  0.3935  0.0081 -0.0359
 1048YOPC   D3B14057  12.188  17.701   7.353 -0.0404 -0.4070  0.2426
 1048YOPC   C4B14058  12.520  17.961   7.362  0.0489 -0.2680  0.4509
 1049YOPC   NC314059  17.849   2.502   5.030  0.2624 -0.0246 -0.1628
 1049YOPC   PO414060  18.198   2.708   5.032  0.0303  0.0140 -0.0640
 1049YOPC   GL114061  18.442   2.767   5.379 -0.4817  0.2074 -0.1876
 1049YOPC   GL214062  18.532   2.556   5.587  0.2568 -0.0054 -0.3230
 1049YOPC   C1A14063  18.593   3.011   5.778  0.0446 -0.0470 -0.0740
 1049YOPC   D2A14064  18.692   3.033   6.138  0.0063 -0.0166  0.0538
 1049YOPC   C3A14065  19.072   2.947   6.231  0.3186  0.1547 -0.0416
 1049YOPC   C4A14066  19.241   2.837   6.568 -0.1482  0.0427 -0.1104
 1049YOPC   C1B14067  18.361   2.442   5.982  0.0296 -0.4552  0.2268
 1049YOPC   C2B14068  17.962   2.381   6.265 -0.2676  0.3165  0.0925
 1049YOPC   D3B14069  17.828   2.512   6.685 -0.0044  0.0384 -0.0912
 1049YOPC   C4B14070  18.002   2.628   6.990  0.0106 -0.0377 -0.0243
 1050YOPC   NC314071   8.254   8.729   5.648  0.2664 -0.0357  0.2396
 1050YOPC   PO414072   7.846   8.640   5.675  0.0535 -0.0389 -0.1190
 1050YOPC   GL114073   7.929   8.466   5.997 -0.0695  0.3889 -0.0370
 1050YOPC   GL214074   8.285   8.336   6.061 -0.1772  0.0920  0.0317
 1050YOPC   C1A14075   7.929   8.447   6.447  0.2162  0.3647  0.1434
 1050YOPC   D2A14076   8.097   8.577   6.898  0.0624 -0.0671  0.0214
 1050YOPC   C3A14077   8.248   8.892   7.129 -0.2166  0.1164  0.0421
 1050YOPC   C4A14078   8.436   9.140   7.458 -0.0759  0.0659  0.0365
 1050YOPC   C1B14079   8.354   8.233   6.512  0.0928  0.0676 -0.1611
 1050YOPC   C2B14080   8.425   8.290   6.978 -0.0590 -0.1426  0.1759
 1050YOPC   D3B14081   8.324   8.369   7.357 -0.1775  0.1831  0.2387
 1050YOPC   C4B14082   8.126   8.769   7.603 -0.2440  0.2962 -0.0566
 1051YOPC   NC314083  11.625  13.638   5.824  0.2243 -0.1694  0.2095
 1051YOPC   PO414084  11.219  13.670   5.993  0.3231 -0.1317  0.2361
 1051YOPC   GL114085  11.060  13.606   6.403 -0.1960 -0.2403  0.0033
 1051YOPC   GL214086  10.846  13.688   6.459 -0.2561 -0.0309  0.1572
 1051YOPC   C1A14087  11.253  13.903   6.716  0.1316 -0.1442  0.1034
 1051YOPC   D2A14088  11.327  14.154   7.099 -0.2624 -0.1497 -0.0249
 1051YOPC   C3A14089  11.454  14.515   7.261 -0.0504 -0.0960 -0.0033
 1051YOPC   C4A14090  11.144  14.812   7.289  0.1035 -0.3578  0.0295
 1051YOPC   C1B14091  10.812  13.866   6.869  0.0918  0.0321 -0.0654
 1051YOPC   C2B14092  10.804  14.080   7.266  0.3054 -0.0493  0.0936
 1051YOPC   D3B14093  10.891  13.923   7.774  0.1035 -0.1555 -0.0330
 1051YOPC   C4B14094  11.136  13.709   8.078 -0.0207 -0.0564 -0.2376
 1052YOPC   NC314095   4.797   0.431   4.982 -0.2024 -0.2202 -0.0588
 1052YOPC   PO414096   4.914   0.732   5.352 -0.0898  0.1838 -0.2164
 1052YOPC   GL114097   4.677   0.742   5.675 -0.0497  0.0577 -0.0028
 1052YOPC   GL214098   4.405   0.966   5.777 -0.1884 -0.0743  0.0100
 1052YOPC   C1A14099   4.614   0.500   6.068  0.0624 -0.0000 -0.0572
 1052YOPC   D2A14100   4.256   0.577   6.363  0.0057 -0.0526 -0.2019
 1052YOPC   C3A14101   4.335   0.504   6.785  0.0297 -0.1300  0.0926
 1052YOPC   C4A14102   4.128   0.509   7.122 -0.4010 -0.0824 -0.2776
 1052YOPC   C1B14103   4.107   0.663   5.893 -0.0631 -0.1354 -0.1484
 1052YOPC   C2B14104   3.730   0.548   6.078 -0.1566  0.0783 -0.1118
 1052YOPC   D3B14105   3.685   0.761   6.432 -0.0821 -0.0357 -0.0371
 1052YOPC   C4B14106   3.850   0.797   6.848 -0.0165  0.0030  0.1072
 1053YOPC   NC314107   4.292   9.507   6.517  0.5244 -0.1039  0.0449
 1053YOPC   PO414108   3.909   9.576   6.407  0.2346 -0.3257 -0.1611
 1053YOPC   GL114109   3.921  10.005   6.547  0.1548 -0.1063  0.0914
 1053YOPC   GL214110   4.163  10.045   6.780 -0.1910 -0.0096 -0.2406
 1053YOPC   C1A14111   3.629  10.230   6.731 -0.0887 -0.2062  0.0593
 1053YOPC   D2A14112   3.551  10.346   7.078  0.4161 -0.0539  0.1005
 1053YOPC   C3A14113   3.224  10.203   7.337 -0.2811  0.0833 -0.4238
 1053YOPC   C4A14114   2.918  10.292   7.691 -0.2083  0.0501 -0.0026
 1053YOPC   C1B14115   3.928  10.037   7.213 -0.0429  0.0152  0.2134
 1053YOPC   C2B14116   4.083   9.838   7.570 -0.3327  0.0140 -0.0530
 1053YOPC   D3B14117   3.888   9.413   7.649 -0.0180 -0.1862 -0.0195
 1053YOPC   C4B14118   3.651   9.008   7.423  0.0647  0.2100 -0.0303
 1054YOPC   NC314119   5.218   5.842   5.112 -0.0367 -0.0864  0.1554
 1054YOPC   PO414120   4.753   5.905   5.267 -0.0218  0.1964  0.0814
 1054YOPC   GL114121   4.839   5.785   5.744 -0.1484 -0.3119  0.0890
 1054YOPC   GL214122   5.141   5.902   5.899  0.0068  0.1735 -0.1242
 1054YOPC   C1A14123   4.507   5.621   5.990 -0.1868 -0.1491  0.0329
 1054YOPC   D2A14124   4.151   5.515   6.351  0.0926  0.1944  0.1343
 1054YOPC   C3A14125   4.423   5.396   6.744  0.2448  0.2458  0.2720
 1054YOPC   C4A14126   4.517   5.507   7.065  0.0582 -0.1770 -0.1088
 1054YOPC   C1B14127   5.135   5.599   6.184 -0.3117  0.2572  0.0718
 1054YOPC   C2B14128   5.240   5.462   6.546 -0.0513  0.2414  0.1756
 1054YOPC   D3B14129   5.374   5.559   6.911 -0.1373 -0.0404  0.1127
 1054YOPC   C4B14130   5.308   5.800   7.304 -0.2079  0.0472  0.2679
 1055YOPC   NC314131   3.931   1.204   5.267 -0.1847 -0.3034 -0.1807
 1055YOPC   PO414132   3.769   1.571   5.473  0.1197 -0.2426  0.1689
 1055YOPC   GL114133   3.679   1.647   5.879 -0.0432  0.1004 -0.3722
 1055YOPC   GL214134   3.533   1.893   6.017  0.0373 -0.0664 -0.3287
 1055YOPC   C1A14135   3.726   1.583   6.333 -0.0779 -0.1066  0.1684
 1055YOPC   D2A14136   3.473   1.604   6.685 -0.2396  0.0595  0.0762
 1055YOPC   C3A14137   3.600   1.556   7.180  0.0608  0.3299 -0.0940
 1055YOPC   C4A14138   3.768   1.696   7.630  0.2299  0.0558 -0.1222
 1055YOPC   C1B14139   3.476   2.065   6.385  0.1165 -0.4062 -0.0379
 1055YOPC   C2B14140   3.504   2.092   6.882 -0.0709 -0.0034 -0.1067
 1055YOPC   D3B14141   3.625   2.446   7.183  0.0078 -0.0205 -0.4495
 1055YOPC   C4B14142   3.500   2.950   7.129 -0.1276 -0.1450 -0.1126
 1056YOPC   NC314143  18.400   6.926   5.459 -0.1951  0.0761 -0.0694
 1056YOPC   PO414144  18.367   6.393   5.536 -0.1942  0.0644 -0.0863
 1056YOPC   GL114145  18.518   6.409   5.995  0.1704  0.0867  0.0478
 1056YOPC   GL214146  18.309   6.722   6.038  0.2396  0.0186  0.1644
 1056YOPC   C1A14147  18.669   6.672   6.383 -0.0360  0.0185 -0.0845
 1056YOPC   D2A14148  19.037   6.553   6.752 -0.1347 -0.0055  0.0662
 1056YOPC   C3A14149  19.131   6.813   7.158  0.0115  0.0793  0.2010
 1056YOPC   C4A14150  18.892   6.821   7.614  0.2740  0.0642 -0.1671
 1056YOPC   C1B14151  18.217   6.373   6.406 -0.1945  0.0969 -0.1123
 1056YOPC   C2B14152  17.972   6.347   6.787 -0.0297 -0.2980  0.0860
 1056YOPC   D3B14153  17.831   6.618   7.120 -0.0130 -0.1411 -0.1613
 1056YOPC   C4B14154  17.896   6.714   7.589  0.1492 -0.0934  0.0083
 1057YOPC   NC314155   2.446  16.242   5.193 -0.0711 -0.1677 -0.0031
 1057YOPC   PO414156   2.364  16.750   5.368 -0.6183  0.2213  0.0282
 1057YOPC   GL114157   2.365  16.849   5.830 -0.1835 -0.0241  0.0418
 1057YOPC   GL214158   2.189  17.133   5.909  0.1315  0.1857  0.2711
 1057YOPC   C1A14159   2.276  16.711   6.273 -0.1603  0.1306 -0.2457
 1057YOPC   D2A14160   2.103  16.902   6.724 -0.0318 -0.0539  0.0070
 1057YOPC   C3A14161   2.016  17.269   6.845  0.2340 -0.0513  0.0337
 1057YOPC   C4A14162   1.934  17.666   7.043 -0.2520  0.2087 -0.0707
 1057YOPC   C1B14163   2.397  17.329   6.224  0.0652 -0.0791 -0.1003
 1057YOPC   C2B14164   2.389  17.700   6.481 -0.1839 -0.1549 -0.0045
 1057YOPC   D3B14165   2.423  17.703   6.889  0.0339 -0.2552  0.2640
 1057YOPC   C4B14166   2.534  17.962   7.345 -0.1882 -0.2623 -0.2601
 1058YOPC   NC314167  12.734  16.547   5.231 -0.2668  0.1296 -0.0911
 1058YOPC   PO414168  12.963  16.100   5.229  0.0557  0.0199 -0.2579
 1058YOPC   GL114169  13.197  16.246   5.594  0.0604 -0.3228  0.3107
 1058YOPC   GL214170  12.986  16.576   5.638  0.0224  0.1878  0.1214
 1058YOPC   C1A14171  13.333  16.384   6.006 -0.3180  0.2030  0.4959
 1058YOPC   D2A14172  13.465  16.471   6.365  0.3757 -0.0281  0.1544
 1058YOPC   C3A14173  13.276  16.853   6.480  0.1852  0.1186  0.2520
 1058YOPC   C4A14174  13.270  17.074   6.757 -0.0311 -0.2195 -0.0918
 1058YOPC   C1B14175  13.133  16.862   5.951 -0.1613  0.1746 -0.1009
 1058YOPC   C2B14176  13.414  17.155   6.151  0.1890  0.0568 -0.0511
 1058YOPC   D3B14177  13.242  17.576   6.254 -0.0166 -0.1602 -0.0001
 1058YOPC   C4B14178  12.911  17.870   6.473  0.0639 -0.1158 -0.1356
 1059YOPC   NC314179   7.864  13.349   5.655  0.2929  0.3008 -0.1927
 1059YOPC   PO414180   7.535  13.450   5.890 -0.1060 -0.2954  0.1167
 1059YOPC   GL114181   7.402  13.542   6.373 -0.0717 -0.1595  0.0646
 1059YOPC   GL214182   7.010  13.605   6.532 -0.1474  0.1627  0.1232
 1059YOPC   C1A14183   7.431  13.335   6.876 -0.0658 -0.0967  0.1643
 1059YOPC   D2A14184   7.187  13.143   7.241 -0.1841 -0.0167 -0.0956
 1059YOPC   C3A14185   6.859  13.480   7.398  0.1145  0.0386  0.1048
 1059YOPC   C4A14186   6.908  13.831   7.606  0.0412  0.2745  0.0935
 1059YOPC   C1B14187   6.802  13.420   6.865 -0.5468  0.0352 -0.2111
 1059YOPC   C2B14188   6.666  13.086   7.044 -0.2541 -0.1595  0.1583
 1059YOPC   D3B14189   6.396  13.193   7.458 -0.1783 -0.2450 -0.0013
 1059YOPC   C4B14190   6.040  13.044   7.728 -0.2358 -0.1218  0.1884
 1060YOPC   NC314191  15.519   7.106   5.496  0.1992  0.0594 -0.1638
 1060YOPC   PO414192  15.790   7.420   5.607 -0.1127  0.2074 -0.4132
 1060YOPC   GL114193  15.956   7.287   6.042 -0.1862 -0.2567  0.0027
 1060YOPC   GL214194  16.015   7.574   6.256 -0.2677  0.2694  0.0794
 1060YOPC   C1A14195  15.793   7.184   6.473 -0.2646  0.3502  0.3939
 1060YOPC   D2A14196  15.835   7.195   6.884  0.3823 -0.0734  0.1896
 1060YOPC   C3A14197  16.389   7.293   7.127  0.1164  0.0605 -0.0088
 1060YOPC   C4A14198  16.742   7.389   7.300  0.0647  0.1399  0.0646
 1060YOPC   C1B14199  15.718   7.754   6.563  0.1149 -0.3210  0.0457
 1060YOPC   C2B14200  15.399   7.854   6.942 -0.1778 -0.0978 -0.0215
 1060YOPC   D3B14201  15.566   7.507   7.190 -0.1007 -0.0311  0.0158
 1060YOPC   C4B14202  15.597   7.410   7.585  0.2493  0.3620 -0.0813
 1061YOPC   NC314203  13.453   9.740   5.584  0.0202  0.0875 -0.0819
 1061YOPC   PO414204  13.112  10.005   5.608  0.0663 -0.2454  0.1682
 1061YOPC   GL114205  13.112   9.956   6.048 -0.1206  0.0383 -0.3057
 1061YOPC   GL214206  13.414  10.127   6.071 -0.1200 -0.1066 -0.3241
 1061YOPC   C1A14207  13.233   9.987   6.567 -0.0597  0.1021 -0.0934
 1061YOPC   D2A14208  13.253   9.983   6.918  0.0489  0.1168  0.1399
 1061YOPC   C3A14209  13.005   9.958   7.315  0.3671 -0.0214 -0.0542
 1061YOPC   C4A14210  12.962  10.311   7.521 -0.1701  0.1525  0.2948
 1061YOPC   C1B14211  13.602  10.343   6.431 -0.0881  0.2636  0.1882
 1061YOPC   C2B14212  13.496  10.459   6.795 -0.1422 -0.0995 -0.3162
 1061YOPC   D3B14213  13.720  10.115   7.033  0.1667 -0.0334 -0.2673
 1061YOPC   C4B14214  13.495   9.806   7.397 -0.1836  0.4553  0.2202
 1062YOPC   NC314215   8.302  14.903   5.221  0.1280 -0.1783  0.1367
 1062YOPC   PO414216   8.225  15.116   5.581 -0.3775  0.0823 -0.1025
 1062YOPC   GL114217   8.414  15.285   5.919 -0.1420  0.0918 -0.1209
 1062YOPC   GL214218   8.634  15.156   6.029 -0.2670  0.0595  0.1798
 1062YOPC   C1A14219   8.499  15.538   6.335  0.0271  0.0069  0.1200
 1062YOPC   D2A14220   8.196  15.612   6.636  0.2943  0.0220 -0.0666
 1062YOPC   C3A14221   8.344  15.748   6.919 -0.0766  0.0487  0.0038
 1062YOPC   C4A14222   8.496  16.013   7.243  0.0140 -0.1120  0.3323
 1062YOPC   C1B14223   8.452  15.049   6.392 -0.1130  0.3628  0.3004
 1062YOPC   C2B14224   8.429  15.146   6.801  0.1166 -0.1571 -0.1106
 1062YOPC   D3B14225   8.025  15.364   7.044  0.0041  0.0659 -0.0272
 1062YOPC   C4B14226   7.635  15.300   6.952  0.2427  0.0043 -0.1050
 1063YOPC   NC314227  16.432   6.763   5.774  0.0498  0.3627  0.0455
 1063YOPC   PO414228  15.901   6.868   5.707 -0.1360  0.0217  0.3344
 1063YOPC   GL114229  16.000   6.795   6.210 -0.0252  0.0076 -0.1349
 1063YOPC   GL214230  15.822   6.508   6.156  0.2558  0.4689 -0.1628
 1063YOPC   C1A14231  16.058   6.686   6.620 -0.3894  0.0941 -0.0322
 1063YOPC   D2A14232  16.105   6.854   7.098 -0.0246  0.0802 -0.0344
 1063YOPC   C3A14233  15.727   6.887   7.288 -0.0910 -0.1763 -0.2357
 1063YOPC   C4A14234  15.559   6.896   7.679 -0.0263  0.0173  0.0063
 1063YOPC   C1B14235  15.607   6.230   6.403 -0.3230 -0.4447  0.2926
 1063YOPC   C2B14236  15.329   6.213   6.691 -0.5313 -0.0031  0.1873
 1063YOPC   D3B14237  15.080   6.558   6.798  0.3076  0.0774  0.1110
 1063YOPC   C4B14238  14.808   6.689   7.196 -0.1605  0.0753  0.0634
 1064YOPC   NC314239  10.732   1.211   5.911 -0.2479 -0.0886  0.2531
 1064YOPC   PO414240  10.771   1.601   5.819  0.2464  0.1937 -0.2872
 1064YOPC   GL114241  10.769   1.685   6.170 -0.2380 -0.2687 -0.1937
 1064YOPC   GL214242  10.488   1.522   6.254  0.0750  0.1268  0.1290
 1064YOPC   C1A14243  11.029   1.870   6.469 -0.1341  0.2533  0.1377
 1064YOPC   D2A14244  11.034   1.689   6.838  0.1109 -0.1875  0.0236
 1064YOPC   C3A14245  11.069   1.903   7.215  0.0089 -0.1939  0.0435
 1064YOPC   C4A14246  11.252   1.998   7.546 -0.0199  0.1874  0.3387
 1064YOPC   C1B14247  10.334   1.348   6.635 -0.1294 -0.1394 -0.0391
 1064YOPC   C2B14248   9.872   1.214   6.742  0.4110  0.0685  0.0402
 1064YOPC   D3B14249   9.744   1.216   7.210  0.1529 -0.1827  0.0222
 1064YOPC   C4B14250   9.499   1.023   7.559  0.3024 -0.1399  0.0257
 1065YOPC   NC314251  13.963   8.170   5.887 -0.2815 -0.5626  0.3066
 1065YOPC   PO414252  14.277   8.405   6.062  0.0561 -0.1298 -0.2525
 1065YOPC   GL114253  14.518   8.368   6.354  0.0323  0.0719 -0.0559
 1065YOPC   GL214254  14.648   8.127   6.394 -0.3270  0.5449  0.1448
 1065YOPC   C1A14255  14.520   8.460   6.906  0.1438 -0.0191  0.2339
 1065YOPC   D2A14256  14.351   8.711   7.263  0.0481  0.3173  0.1441
 1065YOPC   C3A14257  14.587   8.994   7.512 -0.2596  0.4011 -0.1224
 1065YOPC   C4A14258  14.250   9.202   7.887  0.2825  0.2525  0.1504
 1065YOPC   C1B14259  14.385   8.026   6.744 -0.1664 -0.0102 -0.0716
 1065YOPC   C2B14260  14.396   8.150   7.303 -0.2797  0.1219  0.1528
 1065YOPC   D3B14261  14.232   7.846   7.483  0.1861 -0.2929  0.2636
 1065YOPC   C4B14262  14.133   7.588   7.809  0.1641 -0.1787  0.0344
 1066YOPC   NC314263   0.703  12.547   5.671 -0.2366  0.0545  0.0116
 1066YOPC   PO414264   0.310  12.688   5.794 -0.2337  0.2034 -0.0730
 1066YOPC   GL114265   0.147  12.579   6.233  0.1397  0.2722  0.0432
 1066YOPC   GL214266  -0.249  12.524   6.186  0.1702 -0.0901 -0.1419
 1066YOPC   C1A14267   0.108  12.719   6.656  0.1450  0.0838 -0.1132
 1066YOPC   D2A14268   0.190  12.493   6.987 -0.2395 -0.1109 -0.1986
 1066YOPC   C3A14269   0.305  12.726   7.290  0.3815 -0.0992  0.0260
 1066YOPC   C4A14270   0.042  12.941   7.648  0.0562 -0.0901  0.2266
 1066YOPC   C1B14271  -0.210  12.396   6.706  0.2507 -0.0354  0.1682
 1066YOPC   C2B14272  -0.251  12.341   7.077 -0.0024 -0.1143  0.1182
 1066YOPC   D3B14273   0.117  12.166   7.415 -0.1751  0.0955 -0.2456
 1066YOPC   C4B14274   0.398  12.231   7.672 -0.0254  0.1219  0.0405
 1067YOPC   NC314275  13.105   2.161   5.146  0.0043  0.0088 -0.1647
 1067YOPC   PO414276  13.121   2.566   5.297  0.0857  0.3126  0.0207
 1067YOPC   GL114277  13.154   2.515   5.693 -0.0390 -0.1755 -0.0737
 1067YOPC   GL214278  13.251   2.813   5.825 -0.0978  0.2230 -0.1889
 1067YOPC   C1A14279  13.202   2.355   6.002 -0.2541  0.2628  0.1149
 1067YOPC   D2A14280  13.100   2.358   6.366  0.1117 -0.1786  0.3246
 1067YOPC   C3A14281  13.189   2.140   6.619  0.2099 -0.0867  0.0218
 1067YOPC   C4A14282  13.263   2.018   6.959 -0.0511 -0.2838 -0.0859
 1067YOPC   C1B14283  13.191   2.874   6.255 -0.0672 -0.3084  0.1247
 1067YOPC   C2B14284  13.208   2.724   6.626 -0.1616  0.0582 -0.2664
 1067YOPC   D3B14285  13.006   2.982   7.012 -0.0879 -0.3861 -0.1375
 1067YOPC   C4B14286  12.789   3.163   7.362 -0.3544 -0.0533  0.0526
 1068YOPC   NC314287  14.485  14.194   5.809  0.1524  0.0468 -0.0819
 1068YOPC   PO414288  14.900  14.282   5.639  0.0463  0.0925  0.3555
 1068YOPC   GL114289  14.909  14.483   5.994  0.0155 -0.0618 -0.1980
 1068YOPC   GL214290  14.729  14.693   5.941  0.0153 -0.2109 -0.2633
 1068YOPC   C1A14291  15.228  14.386   6.411  0.1785  0.0479  0.0199
 1068YOPC   D2A14292  15.388  14.147   6.690 -0.0824 -0.2286 -0.1868
 1068YOPC   C3A14293  15.634  14.577   6.844 -0.1674  0.1980  0.0080
 1068YOPC   C4A14294  15.902  14.769   7.186  0.3024  0.2717 -0.1918
 1068YOPC   C1B14295  14.618  14.952   6.362 -0.2666 -0.2225  0.0755
 1068YOPC   C2B14296  14.570  15.183   6.753 -0.1016 -0.2141  0.0371
 1068YOPC   D3B14297  14.586  14.971   7.120  0.1562 -0.2786  0.1025
 1068YOPC   C4B14298  14.748  14.813   7.401 -0.1803  0.2489 -0.0369
 1069YOPC   NC314299  11.235   9.962   5.503  0.1117 -0.2594  0.0230
 1069YOPC   PO414300  11.350   9.627   5.360  0.1096  0.3508  0.0375
 1069YOPC   GL114301  11.301   9.525   5.776 -0.1599 -0.1535  0.1830
 1069YOPC   GL214302  11.018   9.498   6.016  0.1427  0.3475  0.1212
 1069YOPC   C1A14303  11.453   9.670   6.194  0.0756  0.0330  0.3836
 1069YOPC   D2A14304  11.669   9.397   6.415 -0.0558 -0.2478 -0.0241
 1069YOPC   C3A14305  11.684   9.402   6.896 -0.2115  0.2087  0.1855
 1069YOPC   C4A14306  11.662   9.311   7.202  0.2569 -0.0653  0.2193
 1069YOPC   C1B14307  10.753   9.671   6.356  0.1929  0.0403  0.2777
 1069YOPC   C2B14308  10.668   9.787   6.767 -0.0544  0.1162 -0.3417
 1069YOPC   D3B14309  10.650   9.860   7.281 -0.2591 -0.3968  0.0382
 1069YOPC   C4B14310  10.805   9.815   7.801  0.0967 -0.1798  0.0849
 1070YOPC   NC314311   8.359  14.132   5.837 -0.3679 -0.1983 -0.0743
 1070YOPC   PO414312   8.746  13.907   5.746 -0.0737  0.2411  0.1617
 1070YOPC   GL114313   8.602  13.814   6.185 -0.2093  0.0370 -0.1690
 1070YOPC   GL214314   8.262  13.750   6.269  0.2382  0.1522 -0.1882
 1070YOPC   C1A14315   8.767  13.656   6.633 -0.2791  0.1036  0.4632
 1070YOPC   D2A14316   8.767  13.784   7.043 -0.0231 -0.1320 -0.1507
 1070YOPC   C3A14317   8.948  14.142   7.215  0.1878  0.1252 -0.3848
 1070YOPC   C4A14318   9.200  14.419   7.007  0.3436  0.1324  0.0338
 1070YOPC   C1B14319   8.308  13.870   6.726  0.1211  0.0129 -0.0841
 1070YOPC   C2B14320   8.510  14.192   6.976 -0.1886 -0.0671  0.0809
 1070YOPC   D3B14321   8.485  14.248   7.416 -0.2505  0.0792  0.2938
 1070YOPC   C4B14322   8.307  14.245   7.733 -0.1532  0.3364 -0.1933
 1071YOPC   NC314323  14.221  17.658   5.365 -0.2164  0.2229 -0.0073
 1071YOPC   PO414324  14.523  17.380   5.559 -0.1721  0.4285 -0.0257
 1071YOPC   GL114325  14.603  17.346   5.971 -0.1019  0.2673 -0.1096
 1071YOPC   GL214326  14.271  17.312   6.061  0.0760 -0.2095 -0.0455
 1071YOPC   C1A14327  14.954  17.398   6.297  0.1769 -0.0141  0.0175
 1071YOPC   D2A14328  14.855  17.307   6.734 -0.2408 -0.2413  0.0039
 1071YOPC   C3A14329  15.039  17.341   7.082 -0.2560  0.1808 -0.2427
 1071YOPC   C4A14330  15.298  17.635   7.374  0.0230  0.2508  0.2657
 1071YOPC   C1B14331  14.252  17.379   6.453  0.2660 -0.1802 -0.0866
 1071YOPC   C2B14332  14.380  17.659   6.741  0.1098  0.2148  0.3366
 1071YOPC   D3B14333  14.152  17.597   7.037 -0.2505 -0.1177 -0.1081
 1071YOPC   C4B14334  13.713  17.675   7.057  0.1938  0.2568 -0.2182
 1072YOPC   NC314335   4.870  16.621   5.339  0.1277 -0.2382  0.0449
 1072YOPC   PO414336   5.134  16.320   5.641 -0.1005  0.1025 -0.2517
 1072YOPC   GL114337   5.228  16.619   5.827 -0.0842  0.2697  0.2264
 1072YOPC   GL214338   4.955  16.827   5.882  0.1596  0.2751  0.1210
 1072YOPC   C1A14339   5.244  16.690   6.309 -0.1764 -0.4889  0.1218
 1072YOPC   D2A14340   5.321  16.791   6.688 -0.2492 -0.2971  0.0608
 1072YOPC   C3A14341   5.570  16.836   6.946 -0.0519 -0.1804 -0.2513
 1072YOPC   C4A14342   5.832  16.964   7.244 -0.0003  0.2135 -0.1283
 1072YOPC   C1B14343   4.748  16.716   6.255  0.3423  0.2465 -0.1409
 1072YOPC   C2B14344   4.616  16.748   6.693 -0.0972  0.2875  0.2722
 1072YOPC   D3B14345   4.619  17.114   6.954  0.3346  0.4768 -0.1073
 1072YOPC   C4B14346   4.538  17.034   7.414  0.2368 -0.0935  0.1015
 1073YOPC   NC314347  17.195  16.519   5.270 -0.0120 -0.0399  0.1467
 1073YOPC   PO414348  17.549  16.365   5.501  0.4830  0.1677 -0.0591
 1073YOPC   GL114349  17.588  16.543   5.872 -0.0359 -0.0523  0.0211
 1073YOPC   GL214350  17.906  16.456   5.896 -0.0760  0.1723  0.0470
 1073YOPC   C1A14351  17.350  16.781   6.137  0.1926  0.1367 -0.1777
 1073YOPC   D2A14352  17.130  16.989   6.475 -0.0513  0.1917 -0.0881
 1073YOPC   C3A14353  16.687  16.897   6.530  0.0810  0.0175  0.2060
 1073YOPC   C4A14354  16.466  16.921   6.857 -0.1433 -0.0583  0.0536
 1073YOPC   C1B14355  17.944  16.110   6.260 -0.0227 -0.0798 -0.1995
 1073YOPC   C2B14356  18.001  16.146   6.664  0.1008  0.0154  0.3547
 1073YOPC   D3B14357  17.841  16.285   7.000 -0.0922 -0.4368 -0.1578
 1073YOPC   C4B14358  18.147  16.461   7.364  0.2013  0.2286 -0.3299
 1074YOPC   NC314359   1.080  15.260   5.513  0.0203 -0.1877 -0.3423
 1074YOPC   PO414360   1.368  15.510   5.865 -0.3358 -0.0562 -0.0248
 1074YOPC   GL114361   1.484  15.564   6.290  0.0044 -0.0706  0.0511
 1074YOPC   GL214362   1.813  15.466   6.248  0.1607  0.1255  0.1398
 1074YOPC   C1A14363   1.502  15.381   6.669 -0.0061 -0.0451 -0.3094
 1074YOPC   D2A14364   1.660  15.463   7.024  0.0947 -0.0869 -0.3444
 1074YOPC   C3A14365   1.355  15.482   7.462  0.0844  0.0556  0.3001
 1074YOPC   C4A14366   1.398  15.455   7.962 -0.0306 -0.2938  0.3705
 1074YOPC   C1B14367   2.169  15.699   6.211  0.0801 -0.1659 -0.1092
 1074YOPC   C2B14368   2.273  15.978   6.635 -0.0677  0.2303 -0.7007
 1074YOPC   D3B14369   2.461  15.985   7.004 -0.3923  0.0510 -0.0672
 1074YOPC   C4B14370   2.662  16.111   7.332  0.0073 -0.3873 -0.1099
 1075YOPC   NC314371  12.197   3.924   5.448 -0.0427  0.0181 -0.0753
 1075YOPC   PO414372  12.514   4.272   5.496  0.2155 -0.3690 -0.0056
 1075YOPC   GL114373  12.584   3.964   5.782 -0.0545 -0.0767 -0.0424
 1075YOPC   GL214374  12.862   4.089   5.923 -0.1838  0.0439 -0.1667
 1075YOPC   C1A14375  12.627   3.617   6.181  0.0229 -0.1980  0.1148
 1075YOPC   D2A14376  12.616   3.618   6.660 -0.0374  0.2012  0.0701
 1075YOPC   C3A14377  12.823   3.482   6.972 -0.0043  0.3375  0.0974
 1075YOPC   C4A14378  12.415   3.526   7.143 -0.2182  0.2358  0.2896
 1075YOPC   C1B14379  13.162   4.349   6.177 -0.0153  0.0028  0.1210
 1075YOPC   C2B14380  13.094   4.516   6.527  0.1673 -0.0761  0.1448
 1075YOPC   D3B14381  12.915   4.923   6.606 -0.0756 -0.1654  0.0450
 1075YOPC   C4B14382  12.752   5.146   6.949 -0.4359 -0.2903  0.0394
 1076YOPC   NC314383   1.482  12.486   5.677 -0.0852 -0.2041  0.1346
 1076YOPC   PO414384   1.167  12.660   5.803 -0.2252 -0.2638  0.1438
 1076YOPC   GL114385   0.879  12.826   6.048  0.0811  0.2330 -0.2574
 1076YOPC   GL214386   0.673  12.654   6.162 -0.0472  0.2369  0.1199
 1076YOPC   C1A14387   0.397  13.073   6.307 -0.2206  0.3501  0.4318
 1076YOPC   D2A14388  -0.004  13.094   6.384  0.2997  0.0937  0.1082
 1076YOPC   C3A14389  -0.071  13.372   6.622  0.2982 -0.0219 -0.0855
 1076YOPC   C4A14390  -0.550  13.495   6.779  0.0832  0.0239  0.1041
 1076YOPC   C1B14391   0.551  12.549   6.619 -0.1055  0.1057  0.2917
 1076YOPC   C2B14392   0.681  12.290   7.006 -0.3137 -0.1249  0.2995
 1076YOPC   D3B14393   0.758  12.466   7.403 -0.0102 -0.1740 -0.1144
 1076YOPC   C4B14394   0.652  12.744   7.809 -0.1666  0.1091 -0.2734
 1077YOPC   NC314395   7.176  12.273   5.602 -0.3706 -0.0949 -0.3240
 1077YOPC   PO414396   7.471  12.402   5.770  0.1144  0.0247  0.0380
 1077YOPC   GL114397   7.477  12.338   6.240  0.1277 -0.2157 -0.1387
 1077YOPC   GL214398   7.484  12.591   6.450  0.2564  0.2186 -0.0065
 1077YOPC   C1A14399   7.686  12.211   6.713 -0.0170  0.0824  0.0373
 1077YOPC   D2A14400   7.645  12.326   7.088  0.1504  0.0138  0.0137
 1077YOPC   C3A14401   7.894  12.480   7.532 -0.2619 -0.3912  0.1658
 1077YOPC   C4A14402   8.188  12.494   7.947  0.0557 -0.2570  0.2802
 1077YOPC   C1B14403   7.879  12.673   6.732  0.1992  0.0754  0.0976
 1077YOPC   C2B14404   8.151  12.569   7.114  0.2634 -0.1054 -0.0335
 1077YOPC   D3B14405   8.264  12.217   7.247  0.0924  0.0993 -0.0217
 1077YOPC   C4B14406   8.401  12.101   7.619  0.2106 -0.1197  0.0005
 1078YOPC   NC314407   5.963   8.408   5.692  0.2071 -0.1186 -0.3286
 1078YOPC   PO414408   5.991   8.004   5.705 -0.2270  0.2674 -0.0963
 1078YOPC   GL114409   5.998   7.994   6.127  0.1783  0.4046  0.1196
 1078YOPC   GL214410   6.256   7.790   6.298  0.0303 -0.1838 -0.0585
 1078YOPC   C1A14411   5.718   8.043   6.497  0.0825 -0.0498  0.1683
 1078YOPC   D2A14412   5.584   7.729   6.870 -0.2591  0.2856 -0.2238
 1078YOPC   C3A14413   5.414   7.954   7.267  0.1781  0.0080 -0.0296
 1078YOPC   C4A14414   5.187   7.822   7.515 -0.0274  0.1335 -0.1426
 1078YOPC   C1B14415   6.081   7.840   6.709 -0.1769 -0.2313 -0.0332
 1078YOPC   C2B14416   5.871   8.136   7.040  0.2383  0.3350  0.1311
 1078YOPC   D3B14417   5.398   8.298   6.913 -0.0069  0.0031  0.0803
 1078YOPC   C4B14418   5.310   8.301   6.452 -0.0106  0.2088 -0.0011
 1079YOPC   NC314419  15.134  13.862   5.545  0.1924  0.1655 -0.2254
 1079YOPC   PO414420  14.727  13.776   5.739 -0.0964  0.0839  0.3286
 1079YOPC   GL114421  14.943  13.941   6.017  0.4146  0.3672  0.3201
 1079YOPC   GL214422  15.223  13.829   6.134 -0.1825 -0.2190  0.3368
 1079YOPC   C1A14423  14.795  13.931   6.478  0.0311 -0.2381 -0.0735
 1079YOPC   D2A14424  14.962  13.849   6.807  0.1239  0.1831 -0.1431
 1079YOPC   C3A14425  14.764  13.758   7.197 -0.2000  0.1055  0.0507
 1079YOPC   C4A14426  14.585  13.426   7.494 -0.3289 -0.4066 -0.0601
 1079YOPC   C1B14427  15.147  13.575   6.452 -0.0867  0.3792  0.0304
 1079YOPC   C2B14428  15.244  13.497   6.987 -0.1055 -0.3105  0.2037
 1079YOPC   D3B14429  15.251  13.739   7.261 -0.1728  0.2425  0.1812
 1079YOPC   C4B14430  15.542  13.798   7.601 -0.2709 -0.4007  0.0051
 1080YOPC   NC314431   1.143   7.766   5.644  0.0289  0.1634  0.1250
 1080YOPC   PO414432   1.113   7.256   5.547  0.0848  0.0002 -0.0197
 1080YOPC   GL114433   1.193   7.182   5.959 -0.0610  0.0047 -0.0145
 1080YOPC   GL214434   0.920   6.897   6.022 -0.5363  0.0059 -0.1143
 1080YOPC   C1A14435   1.473   6.868   6.155 -0.0234  0.0511 -0.1158
 1080YOPC   D2A14436   1.745   7.037   6.471  0.0865 -0.0640  0.2091
 1080YOPC   C3A14437   1.630   7.353   6.668 -0.1504 -0.3169  0.1577
 1080YOPC   C4A14438   1.252   7.278   6.934  0.1545  0.0891 -0.0087
 1080YOPC   C1B14439   1.070   6.922   6.421 -0.0976 -0.0016 -0.2648
 1080YOPC   C2B14440   1.299   6.761   6.732  0.1245  0.0158  0.0878
 1080YOPC   D3B14441   1.345   6.403   6.940 -0.0874  0.3642 -0.1151
 1080YOPC   C4B14442   1.245   6.325   7.350 -0.0752  0.0973  0.2803
 1081YOPC   NC314443  12.385  13.354   5.978  0.1271 -0.0459  0.4352
 1081YOPC   PO414444  12.214  12.849   6.041 -0.2594 -0.3161  0.0455
 1081YOPC   GL114445  12.020  12.834   6.388  0.2789 -0.0625  0.0031
 1081YOPC   GL214446  12.162  12.768   6.711  0.1008  0.0207  0.1528
 1081YOPC   C1A14447  11.942  13.236   6.595  0.1796 -0.1720  0.1124
 1081YOPC   D2A14448  11.874  13.550   6.907 -0.0310 -0.1567 -0.1465
 1081YOPC   C3A14449  11.583  13.600   7.222  0.1303 -0.1519 -0.2746
 1081YOPC   C4A14450  11.110  13.688   7.317  0.3491 -0.1520  0.0414
 1081YOPC   C1B14451  11.965  12.576   7.098 -0.2265  0.1028  0.4416
 1081YOPC   C2B14452  11.879  12.510   7.432 -0.2815 -0.0373 -0.0893
 1081YOPC   D3B14453  12.131  12.344   7.709  0.1787 -0.2665  0.0804
 1081YOPC   C4B14454  12.302  12.202   8.034 -0.2465 -0.0740 -0.2603
 1082YOPC   NC314455  14.506   1.940   5.205  0.0050  0.1754 -0.0481
 1082YOPC   PO414456  14.557   1.846   5.577 -0.1081  0.0559  0.1103
 1082YOPC   GL114457  14.506   1.721   6.052  0.2542 -0.3346  0.1593
 1082YOPC   GL214458  14.391   1.941   6.225  0.1551 -0.0708 -0.0891
 1082YOPC   C1A14459  14.771   1.360   6.182 -0.2271 -0.0117 -0.0008
 1082YOPC   D2A14460  14.990   1.007   6.252  0.0294  0.2289  0.1057
 1082YOPC   C3A14461  15.166   0.866   6.780 -0.0462 -0.0191  0.0305
 1082YOPC   C4A14462  15.262   0.723   7.159 -0.2010  0.1990 -0.0022
 1082YOPC   C1B14463  14.058   1.930   6.543 -0.0212  0.1954 -0.2024
 1082YOPC   C2B14464  13.761   2.051   6.902  0.0627 -0.1911 -0.0691
 1082YOPC   D3B14465  13.610   1.940   7.340 -0.1473  0.0550 -0.3451
 1082YOPC   C4B14466  13.362   2.077   7.639 -0.0166 -0.0671 -0.2505
 1083YOPC   NC314467  17.587  17.487   5.142  0.0953 -0.2649  0.1647
 1083YOPC   PO414468  17.571  17.790   5.520  0.0107 -0.2955 -0.2170
 1083YOPC   GL114469  17.609  18.135   5.703  0.2568 -0.0534 -0.1321
 1083YOPC   GL214470  17.286  18.242   5.610  0.0519 -0.1949 -0.0893
 1083YOPC   C1A14471  17.573  18.186   6.040  0.1412  0.0534 -0.2186
 1083YOPC   D2A14472  17.720  18.317   6.509 -0.0499 -0.4403  0.1726
 1083YOPC   C3A14473  17.844  18.243   6.889  0.0756  0.2635 -0.0123
 1083YOPC   C4A14474  17.925  17.903   7.143  0.2167  0.2385 -0.1850
 1083YOPC   C1B14475  17.073  18.306   5.993  0.1753 -0.0204 -0.0741
 1083YOPC   C2B14476  16.905  18.357   6.387 -0.3048 -0.4312 -0.0392
 1083YOPC   D3B14477  17.074  18.351   6.704  0.0700 -0.4104 -0.1750
 1083YOPC   C4B14478  16.868  18.367   7.062 -0.1848 -0.0558  0.1295
 1084YOPC   NC314479  14.277   1.059   5.368  0.1414 -0.0923  0.0302
 1084YOPC   PO414480  13.953   0.707   5.430 -0.3523  0.1149 -0.2293
 1084YOPC   GL114481  14.072   1.043   5.859 -0.4024 -0.0205 -0.1164
 1084YOPC   GL214482  14.192   1.367   5.979 -0.0739  0.1414 -0.0933
 1084YOPC   C1A14483  14.077   0.945   6.319  0.0205 -0.1223  0.2212
 1084YOPC   D2A14484  14.187   0.923   6.769 -0.0590  0.0002 -0.3320
 1084YOPC   C3A14485  14.326   0.740   7.211  0.0281 -0.0579  0.0746
 1084YOPC   C4A14486  14.576   0.382   7.592 -0.2205 -0.1206  0.2208
 1084YOPC   C1B14487  14.299   1.429   6.398 -0.3244 -0.0218 -0.2650
 1084YOPC   C2B14488  14.010   1.465   6.662  0.1807  0.1504  0.1624
 1084YOPC   D3B14489  13.994   1.283   7.116 -0.2666 -0.3489 -0.2498
 1084YOPC   C4B14490  13.744   1.371   7.507 -0.0933  0.0620  0.0662
 1085YOPC   NC314491  12.429  14.162   5.676  0.0576 -0.2658 -0.4821
 1085YOPC   PO414492  12.532  13.823   5.949  0.0822 -0.0318  0.0136
 1085YOPC   GL114493  12.477  13.699   6.391 -0.3367 -0.3262 -0.2231
 1085YOPC   GL214494  12.357  13.918   6.591  0.0411 -0.0946  0.2520
 1085YOPC   C1A14495  12.778  13.571   6.695 -0.0048 -0.0715  0.0904
 1085YOPC   D2A14496  12.968  13.603   7.115 -0.1056  0.0080 -0.0745
 1085YOPC   C3A14497  13.187  13.854   7.397 -0.4003 -0.1068  0.0810
 1085YOPC   C4A14498  13.515  13.848   7.703  0.1566 -0.1396 -0.2749
 1085YOPC   C1B14499  12.310  13.831   7.064  0.0710  0.0470 -0.0667
 1085YOPC   C2B14500  12.435  13.470   7.313  0.3573 -0.0629 -0.0764
 1085YOPC   D3B14501  12.206  13.301   7.777  0.0919 -0.5756 -0.0766
 1085YOPC   C4B14502  12.451  13.110   8.122 -0.1464  0.2997 -0.1480
 1086YOPC   NC314503  16.658   9.068   5.573 -0.1936  0.1760 -0.1007
 1086YOPC   PO414504  16.596   9.478   5.507 -0.1855  0.3380 -0.0892
 1086YOPC   GL114505  16.509   9.459   5.953 -0.2090 -0.1913 -0.0285
 1086YOPC   GL214506  16.486   9.805   5.921  0.0808  0.0230 -0.1007
 1086YOPC   C1A14507  16.551   9.158   6.302  0.1453 -0.0084 -0.0640
 1086YOPC   D2A14508  16.436   8.927   6.666 -0.1908 -0.1054 -0.0097
 1086YOPC   C3A14509  16.260   8.890   6.917 -0.1526  0.0675 -0.1465
 1086YOPC   C4A14510  16.172   9.242   7.277  0.1644 -0.0533  0.1424
 1086YOPC   C1B14511  16.266   9.906   6.222 -0.2690  0.0676 -0.5662
 1086YOPC   C2B14512  16.337   9.901   6.664 -0.1918  0.1417  0.0611
 1086YOPC   D3B14513  16.421  10.131   6.980 -0.0531 -0.0805  0.0139
 1086YOPC   C4B14514  16.637  10.095   7.349  0.0306 -0.0858 -0.0690
 1087YOPC   NC314515   4.507   2.785   5.525 -0.1402 -0.1857 -0.1013
 1087YOPC   PO414516   4.158   2.511   5.688  0.0763 -0.1393 -0.4611
 1087YOPC   GL114517   3.843   2.305   6.016  0.0131 -0.2914 -0.0480
 1087YOPC   GL214518   3.533   2.420   6.088 -0.2219 -0.1217 -0.1549
 1087YOPC   C1A14519   3.933   2.037   6.423 -0.0802 -0.0049 -0.0664
 1087YOPC   D2A14520   3.926   1.823   6.827  0.1696  0.0380 -0.1270
 1087YOPC   C3A14521   3.918   2.017   7.228  0.0512 -0.0250  0.0327
 1087YOPC   C4A14522   4.120   2.365   7.410 -0.0188 -0.2047 -0.1852
 1087YOPC   C1B14523   3.155   2.504   6.214  0.1603 -0.0135 -0.1971
 1087YOPC   C2B14524   2.852   2.492   6.527  0.0402 -0.2653  0.0067
 1087YOPC   D3B14525   2.536   2.114   6.460  0.2865  0.0243  0.2852
 1087YOPC   C4B14526   2.613   1.740   6.315  0.0599  0.2758  0.1086
 1088YOPC   NC314527  15.802  14.313   5.538  0.2457  0.2757 -0.1366
 1088YOPC   PO414528  15.761  14.700   5.746  0.0738 -0.1270 -0.2134
 1088YOPC   GL114529  15.843  14.555   6.104 -0.0047  0.1808 -0.0414
 1088YOPC   GL214530  15.665  14.463   6.247 -0.1045  0.0022  0.1355
 1088YOPC   C1A14531  16.092  14.640   6.483 -0.1209  0.1263  0.0520
 1088YOPC   D2A14532  16.242  14.594   6.887 -0.1513  0.1151  0.2974
 1088YOPC   C3A14533  16.311  14.127   7.080  0.0187 -0.0103  0.2019
 1088YOPC   C4A14534  16.659  13.987   7.304  0.1029 -0.2156 -0.0216
 1088YOPC   C1B14535  15.884  14.168   6.521 -0.0299 -0.1747  0.1943
 1088YOPC   C2B14536  15.913  13.966   6.826  0.1502 -0.1378 -0.0863
 1088YOPC   D3B14537  15.687  14.120   7.096 -0.3624  0.1199  0.0490
 1088YOPC   C4B14538  15.582  14.440   7.424 -0.0365  0.1006  0.0743
 1089YOPC   NC314539   2.773  13.221   5.510 -0.0776 -0.0207  0.4064
 1089YOPC   PO414540   2.675  13.710   5.457  0.0385  0.0883 -0.4144
 1089YOPC   GL114541   2.577  13.614   5.890  0.2910  0.1121  0.0504
 1089YOPC   GL214542   2.309  13.747   5.990  0.1467  0.2336 -0.0138
 1089YOPC   C1A14543   2.811  13.777   6.354  0.1469  0.3838  0.0816
 1089YOPC   D2A14544   2.974  13.732   6.804  0.1646 -0.3097 -0.0879
 1089YOPC   C3A14545   2.794  13.556   7.185 -0.1346  0.4164  0.1330
 1089YOPC   C4A14546   2.388  13.441   7.254  0.0548 -0.1278  0.1395
 1089YOPC   C1B14547   2.180  13.342   6.114 -0.2073 -0.1545 -0.3849
 1089YOPC   C2B14548   1.865  13.210   6.338 -0.0631  0.3590 -0.1216
 1089YOPC   D3B14549   1.843  13.172   6.840  0.1438 -0.0574 -0.1124
 1089YOPC   C4B14550   1.889  13.630   7.120 -0.1146  0.1600 -0.1689
 1090YOPC   NC314551  13.709  18.255   4.787 -0.2591  0.0481  0.2663
 1090YOPC   PO414552  13.822  17.934   5.220 -0.1204  0.0713  0.2493
 1090YOPC   GL114553  13.786  17.828   5.654 -0.0443 -0.3165  0.0249
 1090YOPC   GL214554  13.977  18.089   5.838  0.0767  0.0868 -0.0487
 1090YOPC   C1A14555  13.811  17.549   6.020  0.3520 -0.1269  0.0339
 1090YOPC   D2A14556  13.711  17.543   6.383 -0.1192  0.1695  0.2912
 1090YOPC   C3A14557  13.895  17.877   6.608 -0.1953  0.1690  0.0864
 1090YOPC   C4A14558  14.065  18.157   6.869  0.1459 -0.2476  0.1024
 1090YOPC   C1B14559  14.233  17.878   6.212  0.1640 -0.2411 -0.2480
 1090YOPC   C2B14560  14.500  18.100   6.326  0.0513  0.0897  0.1239
 1090YOPC   D3B14561  14.608  18.113   6.791  0.2643 -0.1111 -0.2294
 1090YOPC   C4B14562  14.437  18.082   7.239  0.3375 -0.2967 -0.2259
 1091YOPC   NC314563  16.597  14.007   5.345  0.0456  0.1826  0.1123
 1091YOPC   PO414564  16.416  14.353   5.417 -0.0918  0.4652  0.2554
 1091YOPC   GL114565  16.504  14.177   5.825  0.1377 -0.0077 -0.1171
 1091YOPC   GL214566  16.290  14.449   6.028  0.1178  0.0264  0.0467
 1091YOPC   C1A14567  16.569  13.889   6.118  0.1585  0.2197  0.0333
 1091YOPC   D2A14568  16.447  13.780   6.655  0.0404 -0.0479  0.0323
 1091YOPC   C3A14569  16.512  13.591   7.099  0.3398  0.3132  0.3000
 1091YOPC   C4A14570  16.548  13.334   7.484  0.1625 -0.0517 -0.0010
 1091YOPC   C1B14571  16.072  13.919   6.160 -0.4041 -0.1483 -0.0781
 1091YOPC   C2B14572  15.701  13.747   6.360  0.0188 -0.2188 -0.1648
 1091YOPC   D3B14573  15.623  13.380   6.627  0.5810 -0.4556 -0.3369
 1091YOPC   C4B14574  15.395  13.110   6.674  0.1920 -0.0108 -0.1911
 1092YOPC   NC314575   5.162   5.130   5.334  0.2088  0.1418 -0.2477
 1092YOPC   PO414576   5.200   5.526   5.483  0.0043 -0.2632 -0.0997
 1092YOPC   GL114577   5.458   5.428   5.833  0.1308 -0.0333  0.0988
 1092YOPC   GL214578   5.678   5.638   6.106  0.0209 -0.0512 -0.1984
 1092YOPC   C1A14579   5.452   5.099   6.127 -0.2177 -0.0249 -0.2000
 1092YOPC   D2A14580   5.610   4.938   6.509 -0.3485  0.1585 -0.0511
 1092YOPC   C3A14581   5.510   5.119   6.901  0.2739 -0.0098 -0.2556
 1092YOPC   C4A14582   5.634   5.377   7.324  0.0347 -0.1533 -0.0502
 1092YOPC   C1B14583   5.889   5.389   6.394 -0.1160  0.2799  0.0510
 1092YOPC   C2B14584   5.967   5.392   6.835 -0.2652 -0.0706  0.0828
 1092YOPC   D3B14585   6.050   5.181   7.054  0.0254  0.0815 -0.2062
 1092YOPC   C4B14586   6.045   4.654   7.071  0.0993 -0.1218  0.1649
 1093YOPC   NC314587   5.597  11.601   5.869 -0.0325  0.0172  0.3348
 1093YOPC   PO414588   5.215  11.565   5.995 -0.1223  0.2195 -0.1373
 1093YOPC   GL114589   5.101  11.623   6.388  0.1327  0.2113  0.0266
 1093YOPC   GL214590   4.786  11.719   6.458  0.1154 -0.0665 -0.3266
 1093YOPC   C1A14591   5.330  11.750   6.694 -0.0170 -0.0747 -0.0456
 1093YOPC   D2A14592   5.466  12.006   7.082 -0.1268  0.2473 -0.3281
 1093YOPC   C3A14593   5.356  12.082   7.527  0.2186 -0.2782  0.1395
 1093YOPC   C4A14594   5.153  12.219   8.017  0.1579 -0.1929 -0.2405
 1093YOPC   C1B14595   4.898  11.737   6.917  0.0193  0.2744 -0.3301
 1093YOPC   C2B14596   4.795  11.680   7.421  0.3347  0.1845  0.1403
 1093YOPC   D3B14597   4.905  11.810   7.829 -0.0840  0.1273 -0.0845
 1093YOPC   C4B14598   4.797  11.883   8.213 -0.0179 -0.1411  0.0092
 1094YOPC   NC314599   2.287  18.608   4.790 -0.3979 -0.1838  0.1596
 1094YOPC   PO414600   2.654  18.339   4.633 -0.2488 -0.1069 -0.2078
 1094YOPC   GL114601   2.506  18.267   5.089 -0.3470  0.1153  0.0889
 1094YOPC   GL214602   2.404  18.062   5.115  0.1951 -0.2212  0.0850
 1094YOPC   C1A14603   2.728  18.199   5.502  0.0672 -0.0687 -0.2431
 1094YOPC   D2A14604   3.076  18.297   5.588  0.1510  0.2274 -0.1350
 1094YOPC   C3A14605   3.431  18.125   5.784 -0.0263 -0.0717 -0.2294
 1094YOPC   C4A14606   3.680  17.843   5.981 -0.1905 -0.3441 -0.0478
 1094YOPC   C1B14607   2.219  18.239   5.589  0.1004 -0.1430  0.0445
 1094YOPC   C2B14608   2.163  18.152   5.935 -0.0064 -0.3528 -0.2961
 1094YOPC   D3B14609   2.114  17.720   6.104  0.2087  0.1539  0.0154
 1094YOPC   C4B14610   1.960  17.223   6.347 -0.1819  0.1399 -0.1094
 1095YOPC   NC314611   0.873  11.181   5.926 -0.3059 -0.0483 -0.2418
 1095YOPC   PO414612   0.667  11.445   5.615  0.0053  0.0041 -0.1636
 1095YOPC   GL114613   0.430  11.386   6.094  0.1496  0.0564  0.0520
 1095YOPC   GL214614   0.415  11.645   6.295  0.0653  0.0803  0.0102
 1095YOPC   C1A14615   0.194  11.277   6.507  0.2620 -0.0256 -0.1845
 1095YOPC   D2A14616   0.143  11.604   6.748 -0.1385  0.2904  0.2877
 1095YOPC   C3A14617  -0.201  11.773   6.749  0.0223 -0.0885  0.1849
 1095YOPC   C4A14618  -0.540  12.004   6.791  0.2506 -0.0055 -0.1653
 1095YOPC   C1B14619   0.763  11.442   6.602  0.1014 -0.0238 -0.3561
 1095YOPC   C2B14620   1.001  11.181   6.997 -0.1618 -0.0811  0.2447
 1095YOPC   D3B14621   0.751  11.066   7.332 -0.2737  0.2160  0.0084
 1095YOPC   C4B14622   0.739  11.309   7.705 -0.1658 -0.0587  0.1502
 1096YOPC   NC314623  17.420   5.358   5.093 -0.0431  0.0215  0.1314
 1096YOPC   PO414624  17.254   5.308   5.489  0.1629  0.0805 -0.2690
 1096YOPC   GL114625  17.506   5.237   5.913 -0.1267 -0.1288 -0.3302
 1096YOPC   GL214626  17.372   5.130   6.149  0.0717 -0.0224  0.0676
 1096YOPC   C1A14627  17.852   5.100   6.056 -0.1547 -0.3934  0.0455
 1096YOPC   D2A14628  18.261   5.082   6.279 -0.1045 -0.1456 -0.1087
 1096YOPC   C3A14629  18.372   4.850   6.590  0.1651 -0.3278 -0.1171
 1096YOPC   C4A14630  18.351   4.835   7.016 -0.0983  0.2066  0.1848
 1096YOPC   C1B14631  17.327   4.892   6.401 -0.0257 -0.1437 -0.0264
 1096YOPC   C2B14632  17.345   4.800   6.899  0.0406  0.4955  0.0862
 1096YOPC   D3B14633  17.476   4.538   7.201 -0.1108 -0.2618 -0.3775
 1096YOPC   C4B14634  17.212   4.429   7.466 -0.2547 -0.0899 -0.3552
 1097YOPC   NC314635  12.691   2.852   5.477  0.1090 -0.0689  0.0450
 1097YOPC   PO414636  12.615   3.073   5.553 -0.1200 -0.0776  0.1981
 1097YOPC   GL114637  12.590   3.140   5.970  0.2550  0.2023  0.1540
 1097YOPC   GL214638  12.874   3.106   5.968 -0.4874  0.0577  0.1430
 1097YOPC   C1A14639  12.370   3.232   6.313  0.0423  0.0241 -0.1407
 1097YOPC   D2A14640  12.232   3.262   6.712 -0.0350  0.0730  0.3084
 1097YOPC   C3A14641  11.887   3.061   6.873  0.0008 -0.1997  0.1790
 1097YOPC   C4A14642  11.582   3.105   7.233 -0.0220 -0.3184 -0.1779
 1097YOPC   C1B14643  12.991   3.339   6.352 -0.0193 -0.1363  0.0547
 1097YOPC   C2B14644  13.237   3.428   6.718  0.1880 -0.2173  0.2256
 1097YOPC   D3B14645  13.271   3.484   7.093  0.1157 -0.1391 -0.2662
 1097YOPC   C4B14646  13.290   3.447   7.608 -0.2275  0.3271  0.1343
 1098YOPC   NC314647   7.257   5.574   5.478 -0.1333  0.2862  0.1226
 1098YOPC   PO414648   7.437   5.197   5.560  0.0405 -0.1833  0.2151
 1098YOPC   GL114649   7.396   4.913   5.980 -0.3619  0.0092  0.1806
 1098YOPC   GL214650   7.696   4.880   6.105 -0.0425 -0.0835  0.0843
 1098YOPC   C1A14651   7.274   4.661   6.454 -0.1351 -0.0795 -0.1329
 1098YOPC   D2A14652   7.372   4.627   6.801  0.2269  0.0058  0.4002
 1098YOPC   C3A14653   7.673   4.752   7.060  0.1635  0.0434  0.0015
 1098YOPC   C4A14654   7.673   4.983   7.364  0.1363  0.3719 -0.2313
 1098YOPC   C1B14655   7.769   4.801   6.555  0.2447  0.0415 -0.1204
 1098YOPC   C2B14656   7.956   5.005   6.821 -0.0890  0.1249 -0.0190
 1098YOPC   D3B14657   7.923   5.320   6.942  0.2221  0.1017  0.3445
 1098YOPC   C4B14658   7.762   5.561   7.319  0.5309  0.0218  0.1411
 1099YOPC   NC314659   6.030   0.766   5.667  0.0145 -0.3193  0.0828
 1099YOPC   PO414660   5.549   0.846   5.529  0.0209 -0.3947 -0.4184
 1099YOPC   GL114661   5.127   0.815   5.839  0.1964 -0.4039  0.1639
 1099YOPC   GL214662   5.096   0.503   5.850  0.2438  0.1402  0.3321
 1099YOPC   C1A14663   5.044   0.795   6.308 -0.0415 -0.3367 -0.0137
 1099YOPC   D2A14664   4.899   0.728   6.687 -0.1903  0.1004 -0.1388
 1099YOPC   C3A14665   4.693   0.778   7.076 -0.3332 -0.2112  0.0703
 1099YOPC   C4A14666   4.504   0.662   7.473  0.2480 -0.0388  0.1221
 1099YOPC   C1B14667   5.164   0.295   6.232  0.0914 -0.3548  0.1611
 1099YOPC   C2B14668   5.073   0.203   6.639 -0.1533 -0.0727 -0.2121
 1099YOPC   D3B14669   5.320   0.177   7.025 -0.1016 -0.1067  0.0482
 1099YOPC   C4B14670   5.441   0.170   7.469 -0.0071 -0.0510  0.0053
 1100YOPC   NC314671  12.444   6.366   5.516 -0.2595  0.2916 -0.4577
 1100YOPC   PO414672  12.503   6.639   5.938  0.0773 -0.1649 -0.0109
 1100YOPC   GL114673  12.261   6.525   6.266  0.1325 -0.3819  0.1653
 1100YOPC   GL214674  12.544   6.388   6.452  0.1502 -0.1306  0.2724
 1100YOPC   C1A14675  11.944   6.548   6.578  0.1817  0.0043 -0.1890
 1100YOPC   D2A14676  11.926   6.805   6.977  0.0172 -0.3540  0.1254
 1100YOPC   C3A14677  12.310   7.064   7.002  0.1160 -0.2286 -0.0943
 1100YOPC   C4A14678  12.782   7.232   6.849 -0.1960  0.0247 -0.2187
 1100YOPC   C1B14679  12.231   6.085   6.477  0.0421 -0.1582 -0.1059
 1100YOPC   C2B14680  11.992   5.669   6.446  0.5035 -0.1369 -0.2784
 1100YOPC   D3B14681  12.213   5.388   6.203  0.3194 -0.0818 -0.0090
 1100YOPC   C4B14682  12.478   5.116   6.378  0.3230  0.0641 -0.1751
 1101YOPC   NC314683   6.548  16.378   5.503  0.0219 -0.0909 -0.0244
 1101YOPC   PO414684   6.473  15.963   5.738  0.0324 -0.1562  0.1652
 1101YOPC   GL114685   6.400  15.774   6.067  0.3224  0.1191 -0.1875
 1101YOPC   GL214686   6.622  15.595   6.117 -0.1722  0.1736  0.0156
 1101YOPC   C1A14687   6.486  15.847   6.536 -0.0473 -0.1636 -0.1836
 1101YOPC   D2A14688   6.691  15.743   6.904 -0.0132  0.3205  0.1216
 1101YOPC   C3A14689   6.663  15.820   7.375 -0.0333  0.0790 -0.4168
 1101YOPC   C4A14690   6.548  15.815   7.829  0.2952  0.2999 -0.3611
 1101YOPC   C1B14691   7.064  15.532   6.380 -0.1569 -0.1048  0.1788
 1101YOPC   C2B14692   7.455  15.370   6.413 -0.3378  0.2156 -0.1359
 1101YOPC   D3B14693   7.660  15.692   6.581  0.0799 -0.0299  0.1408
 1101YOPC   C4B14694   7.775  15.944   6.932 -0.3068 -0.3285  0.0281
 1102YOPC   NC314695   6.550  11.805   5.973  0.2527  0.0268  0.1488
 1102YOPC   PO414696   6.833  12.101   5.955  0.4713 -0.1059 -0.0641
 1102YOPC   GL114697   6.830  12.113   6.410  0.1513 -0.2665  0.0282
 1102YOPC   GL214698   7.100  11.916   6.348  0.3748  0.0908  0.1454
 1102YOPC   C1A14699   7.123  12.372   6.745 -0.4046  0.0223 -0.0325
 1102YOPC   D2A14700   7.008  12.621   7.129 -0.2152  0.2382 -0.5726
 1102YOPC   C3A14701   6.886  12.375   7.440  0.0763  0.4102 -0.0680
 1102YOPC   C4A14702   6.936  12.028   7.697  0.1265 -0.1872 -0.0218
 1102YOPC   C1B14703   7.251  11.806   6.766 -0.2765  0.4500  0.0967
 1102YOPC   C2B14704   7.173  11.502   7.081 -0.1123  0.0527 -0.1191
 1102YOPC   D3B14705   6.897  11.135   7.093 -0.2803  0.1748  0.2450
 1102YOPC   C4B14706   6.567  11.126   6.917  0.0162 -0.1442  0.0780
 1103YOPC   NC314707  10.093  15.421   5.407  0.2091 -0.1968 -0.0191
 1103YOPC   PO414708  10.168  15.748   5.246 -0.0520 -0.3134 -0.1194
 1103YOPC   GL114709   9.964  16.044   5.554 -0.0249 -0.0567 -0.3383
 1103YOPC   GL214710  10.148  16.398   5.687 -0.1854  0.1014  0.0426
 1103YOPC   C1A14711   9.845  16.020   5.961 -0.0677 -0.1866  0.2154
 1103YOPC   D2A14712   9.620  16.071   6.351  0.2199 -0.3943 -0.1876
 1103YOPC   C3A14713   9.410  15.753   6.296 -0.0654 -0.1583 -0.1874
 1103YOPC   C4A14714   9.321  15.346   6.406 -0.0184  0.1531  0.0407
 1103YOPC   C1B14715  10.253  16.272   6.130  0.3973  0.2005 -0.2431
 1103YOPC   C2B14716  10.465  16.577   6.336 -0.0967 -0.1548  0.2449
 1103YOPC   D3B14717  10.752  16.601   6.705  0.0676  0.1482 -0.2771
 1103YOPC   C4B14718  11.046  16.928   6.843 -0.1747  0.2046  0.1519
 1104YOPC   NC314719   5.632  16.878   5.716 -0.0515  0.5633  0.2478
 1104YOPC   PO414720   5.225  17.215   5.795 -0.1241  0.2396  0.0177
 1104YOPC   GL114721   4.836  17.305   5.998 -0.0294 -0.3612 -0.0565
 1104YOPC   GL214722   4.534  17.218   6.006  0.3254  0.3338  0.2613
 1104YOPC   C1A14723   4.825  17.168   6.501 -0.1666 -0.0291  0.0904
 1104YOPC   D2A14724   5.190  17.278   6.777 -0.2181 -0.1277 -0.0372
 1104YOPC   C3A14725   4.979  17.218   7.212 -0.0962 -0.0696 -0.3497
 1104YOPC   C4A14726   4.890  16.722   7.174  0.0257 -0.1525  0.0861
 1104YOPC   C1B14727   4.351  17.074   6.398  0.1317 -0.1101 -0.2714
 1104YOPC   C2B14728   4.167  16.959   6.776 -0.0681 -0.0791 -0.1159
 1104YOPC   D3B14729   4.293  16.740   7.097 -0.1009  0.2200 -0.1313
 1104YOPC   C4B14730   4.104  16.598   7.455 -0.0447 -0.2096  0.0303
 1105YOPC   NC314731  17.915  13.040   5.813 -0.0547  0.1367  0.1085
 1105YOPC   PO414732  18.094  12.584   5.799  0.1277  0.0743  0.1052
 1105YOPC   GL114733  18.032  12.267   6.031  0.1673  0.0131 -0.2228
 1105YOPC   GL214734  18.141  12.038   6.136 -0.0649 -0.1556  0.0396
 1105YOPC   C1A14735  18.016  12.381   6.497  0.2302 -0.0002  0.0411
 1105YOPC   D2A14736  17.783  12.680   6.749  0.2271 -0.0655 -0.2223
 1105YOPC   C3A14737  17.827  12.592   7.189  0.1412 -0.0378  0.2478
 1105YOPC   C4A14738  18.020  12.288   7.413  0.0008  0.2700  0.1020
 1105YOPC   C1B14739  18.072  11.690   6.417 -0.0625  0.1961 -0.2783
 1105YOPC   C2B14740  17.968  11.551   6.829  0.0494 -0.1221  0.0149
 1105YOPC   D3B14741  18.123  11.455   7.207  0.1967  0.0538  0.1190
 1105YOPC   C4B14742  18.317  11.152   7.495  0.0856 -0.0277  0.3754
 1106YOPC   NC314743   9.108  13.063   5.359  0.0220  0.0085 -0.0290
 1106YOPC   PO414744   9.274  13.052   5.763 -0.1074  0.1369  0.0774
 1106YOPC   GL114745   9.265  12.974   6.167  0.1341 -0.1351 -0.3702
 1106YOPC   GL214746   9.581  13.045   6.358 -0.1166  0.0406 -0.1408
 1106YOPC   C1A14747   9.347  12.651   6.493  0.1352 -0.5649  0.0578
 1106YOPC   D2A14748   9.307  12.809   6.906 -0.0387 -0.3027  0.2791
 1106YOPC   C3A14749   9.058  12.608   7.010  0.5635  0.0357 -0.3151
 1106YOPC   C4A14750   9.016  12.247   7.140 -0.4244  0.1044 -0.1068
 1106YOPC   C1B14751   9.746  12.934   6.635  0.1670  0.1136 -0.0495
 1106YOPC   C2B14752   9.798  12.980   7.111  0.0523  0.1704 -0.0699
 1106YOPC   D3B14753   9.645  12.888   7.595 -0.1604  0.2084  0.1568
 1106YOPC   C4B14754   9.603  12.873   8.003 -0.2563  0.1293  0.4102
 1107YOPC   NC314755   2.348  17.124   5.069 -0.0136  0.0710 -0.4070
 1107YOPC   PO414756   2.488  17.572   5.120  0.3334  0.1122  0.0417
 1107YOPC   GL114757   2.619  17.679   5.534  0.2681 -0.2227  0.3335
 1107YOPC   GL214758   2.367  17.718   5.713  0.2599 -0.1865  0.3450
 1107YOPC   C1A14759   2.780  17.348   5.899 -0.1823  0.1670 -0.1675
 1107YOPC   D2A14760   2.940  17.481   6.374  0.2783 -0.0320 -0.3104
 1107YOPC   C3A14761   2.892  17.669   6.742  0.0704 -0.1381  0.3209
 1107YOPC   C4A14762   2.898  17.568   7.102  0.0678  0.3817  0.1267
 1107YOPC   C1B14763   2.607  17.947   6.052 -0.3510 -0.0364  0.2571
 1107YOPC   C2B14764   2.674  18.282   6.454 -0.2191  0.2018  0.0573
 1107YOPC   D3B14765   2.958  18.660   6.468  0.2110  0.3621 -0.1100
 1107YOPC   C4B14766   2.894  18.996   6.723 -0.0265  0.2619  0.1346
 1108YOPC   NC314767   3.319  11.522   6.095  0.3051 -0.1544 -0.1001
 1108YOPC   PO414768   3.097  11.793   5.848  0.0099  0.4839  0.0004
 1108YOPC   GL114769   2.780  11.592   6.131  0.0901 -0.0107  0.1075
 1108YOPC   GL214770   2.487  11.521   6.144 -0.2583 -0.2548  0.0599
 1108YOPC   C1A14771   2.842  11.529   6.577 -0.0187 -0.1646 -0.0585
 1108YOPC   D2A14772   3.108  11.590   7.003  0.2301 -0.3403 -0.4371
 1108YOPC   C3A14773   2.919  11.691   7.338  0.1884 -0.0199  0.0089
 1108YOPC   C4A14774   2.506  11.791   7.669 -0.2852  0.2572  0.0647
 1108YOPC   C1B14775   2.365  11.407   6.582  0.0832  0.0031 -0.1587
 1108YOPC   C2B14776   2.572  11.465   6.952  0.1883 -0.0127 -0.1006
 1108YOPC   D3B14777   2.604  11.292   7.408  0.0276 -0.1766  0.0467
 1108YOPC   C4B14778   2.741  11.035   7.728  0.1227 -0.0867 -0.1911
 1109YOPC   NC314779   0.886  13.870   5.517  0.0844  0.0867 -0.1821
 1109YOPC   PO414780   1.014  13.523   5.562 -0.1719 -0.1337  0.0486
 1109YOPC   GL114781   1.026  13.306   5.945 -0.3226  0.1706 -0.1211
 1109YOPC   GL214782   1.312  13.504   6.224 -0.4577  0.0687 -0.1249
 1109YOPC   C1A14783   0.940  13.161   6.378 -0.1323  0.2352 -0.0555
 1109YOPC   D2A14784   0.875  12.921   6.705  0.1973 -0.1050  0.0218
 1109YOPC   C3A14785   0.465  12.963   6.866 -0.1084 -0.1339 -0.1926
 1109YOPC   C4A14786   0.083  13.146   7.018 -0.0969  0.1065 -0.1650
 1109YOPC   C1B14787   1.369  13.345   6.711  0.1738  0.2416  0.0816
 1109YOPC   C2B14788   1.233  13.277   7.114 -0.4415 -0.1768 -0.1810
 1109YOPC   D3B14789   1.477  12.900   7.301 -0.0661 -0.1342  0.2608
 1109YOPC   C4B14790   1.691  12.609   7.643  0.1171 -0.1107 -0.1961
 1110YOPC   NC314791  11.728   9.387   5.476  0.1237  0.2319 -0.1053
 1110YOPC   PO414792  12.184   9.606   5.538  0.2299 -0.1689 -0.0564
 1110YOPC   GL114793  12.397   9.542   5.895  0.3017  0.1027 -0.0548
 1110YOPC   GL214794  12.467   9.235   5.915  0.0814 -0.0014  0.4602
 1110YOPC   C1A14795  12.458   9.700   6.339 -0.1829  0.0620 -0.1744
 1110YOPC   D2A14796  12.452   9.680   6.715 -0.1310  0.0356  0.2272
 1110YOPC   C3A14797  12.157   9.455   7.073  0.1254  0.0855 -0.0370
 1110YOPC   C4A14798  12.075   9.037   7.117 -0.0629 -0.2033 -0.0058
 1110YOPC   C1B14799  12.107   9.149   6.140  0.4760  0.0675  0.1094
 1110YOPC   C2B14800  12.064   9.113   6.590  0.6545 -0.2259  0.3953
 1110YOPC   D3B14801  11.613   8.922   6.681  0.3608  0.1817 -0.1156
 1110YOPC   C4B14802  11.222   8.793   6.789 -0.0169  0.2190  0.1756
 1111YOPC   NC314803  14.677  11.996   5.855 -0.1787 -0.1176  0.0513
 1111YOPC   PO414804  14.922  11.929   6.109 -0.1143 -0.1678  0.2871
 1111YOPC   GL114805  15.162  11.654   6.334  0.1464  0.1124 -0.0414
 1111YOPC   GL214806  15.001  11.419   6.388  0.2435 -0.0188  0.0348
 1111YOPC   C1A14807  15.203  11.636   6.772  0.0025  0.2479 -0.2004
 1111YOPC   D2A14808  15.228  11.566   7.196  0.0148 -0.2572 -0.1257
 1111YOPC   C3A14809  15.472  11.896   7.306 -0.0496  0.1666 -0.1530
 1111YOPC   C4A14810  15.895  11.872   7.186 -0.0703 -0.0153 -0.0103
 1111YOPC   C1B14811  15.306  11.051   6.424  0.1074  0.1759  0.0476
 1111YOPC   C2B14812  15.787  10.873   6.378 -0.1277  0.0324 -0.1860
 1111YOPC   D3B14813  16.078  10.583   6.769  0.3230  0.0620  0.2190
 1111YOPC   C4B14814  16.175  10.495   7.224  0.1126 -0.2309 -0.2548
 1112YOPC   NC314815   5.166  14.906   5.650  0.1609  0.0127  0.2859
 1112YOPC   PO414816   5.366  15.023   6.041 -0.2004 -0.1641 -0.2495
 1112YOPC   GL114817   5.390  15.018   6.470 -0.0988  0.0145 -0.1009
 1112YOPC   GL214818   5.661  14.885   6.530 -0.0884 -0.1002  0.1816
 1112YOPC   C1A14819   5.217  14.894   6.845  0.0997  0.1394  0.2343
 1112YOPC   D2A14820   5.053  14.498   7.096 -0.2325 -0.0519  0.0844
 1112YOPC   C3A14821   5.088  14.368   7.470  0.1767  0.1521  0.1288
 1112YOPC   C4A14822   4.874  14.537   7.899  0.1008  0.0932  0.0086
 1112YOPC   C1B14823   5.689  14.840   6.912 -0.0419 -0.1297  0.0178
 1112YOPC   C2B14824   5.493  14.751   7.285 -0.2245 -0.1613  0.1118
 1112YOPC   D3B14825   5.600  15.013   7.674 -0.3284 -0.0761 -0.3810
 1112YOPC   C4B14826   5.562  15.318   7.861 -0.0351  0.0510 -0.1782
 1113YOPC   NC314827  14.031   7.276   5.463 -0.0896 -0.2129 -0.2553
 1113YOPC   PO414828  14.231   6.799   5.657  0.0352  0.0908  0.0163
 1113YOPC   GL114829  14.162   6.672   6.088 -0.4670  0.2352 -0.0909
 1113YOPC   GL214830  13.830   6.479   6.106  0.0578 -0.2559 -0.1646
 1113YOPC   C1A14831  13.992   6.722   6.517 -0.1174 -0.1974  0.1047
 1113YOPC   D2A14832  13.861   6.517   6.812 -0.0713 -0.2295 -0.0275
 1113YOPC   C3A14833  13.802   6.556   7.291 -0.1898 -0.0560  0.1798
 1113YOPC   C4A14834  13.603   6.509   7.733  0.1352 -0.0035 -0.0717
 1113YOPC   C1B14835  14.133   6.296   6.420 -0.1243 -0.2366  0.1370
 1113YOPC   C2B14836  14.216   6.008   6.696  0.2520 -0.0681  0.0268
 1113YOPC   D3B14837  13.882   6.074   6.981 -0.4014 -0.2904 -0.1615
 1113YOPC   C4B14838  13.515   6.119   7.257  0.0443  0.1115 -0.1904
 1114YOPC   NC314839   3.979   6.180   5.457  0.2236  0.1675 -0.5185
 1114YOPC   PO414840   3.765   6.022   5.716 -0.1922 -0.0562 -0.2216
 1114YOPC   GL114841   3.611   5.940   6.131 -0.0551  0.0540  0.1425
 1114YOPC   GL214842   3.773   5.800   6.341 -0.4955 -0.2134  0.0262
 1114YOPC   C1A14843   3.323   6.199   6.378  0.2814 -0.2635  0.1375
 1114YOPC   D2A14844   3.207   6.531   6.491 -0.1023 -0.2189  0.0892
 1114YOPC   C3A14845   3.631   6.774   6.572  0.0793  0.2421 -0.1615
 1114YOPC   C4A14846   4.016   7.103   6.477 -0.1453 -0.1549  0.1361
 1114YOPC   C1B14847   3.761   5.674   6.706 -0.0995 -0.2830  0.1765
 1114YOPC   C2B14848   3.983   5.538   7.075 -0.0494 -0.2074  0.0276
 1114YOPC   D3B14849   4.048   5.724   7.495  0.1655  0.2165 -0.4777
 1114YOPC   C4B14850   4.426   5.752   7.762 -0.1051 -0.1262 -0.1965
 1115YOPC   NC314851   8.865   8.684   5.529  0.2004 -0.0881  0.2297
 1115YOPC   PO414852   8.565   9.059   5.521  0.0592  0.0025 -0.1147
 1115YOPC   GL114853   8.307   9.113   5.940 -0.0918 -0.0587  0.1751
 1115YOPC   GL214854   8.356   9.412   6.054  0.0068 -0.4323 -0.0579
 1115YOPC   C1A14855   8.062   8.870   6.273 -0.4258 -0.1280 -0.0084
 1115YOPC   D2A14856   7.719   8.958   6.458  0.3589  0.2735 -0.2690
 1115YOPC   C3A14857   7.418   8.540   6.382 -0.2333 -0.1523  0.2520
 1115YOPC   C4A14858   7.549   8.105   6.369 -0.1904 -0.5478 -0.0497
 1115YOPC   C1B14859   8.475   9.219   6.483 -0.1441 -0.0348 -0.1367
 1115YOPC   C2B14860   8.607   9.286   6.920 -0.3392  0.0243 -0.3580
 1115YOPC   D3B14861   9.067   9.163   6.946 -0.0332  0.0163  0.1827
 1115YOPC   C4B14862   9.301   8.897   7.190 -0.2842 -0.1065 -0.0205
 1116YOPC   NC314863  18.587  18.201   5.134 -0.1371  0.3530 -0.0463
 1116YOPC   PO414864  18.622  18.571   5.362 -0.1494  0.0721 -0.0679
 1116YOPC   GL114865  18.761  18.488   5.796  0.3744  0.1091  0.3438
 1116YOPC   GL214866  19.126  18.435   5.993  0.0653 -0.1133  0.1297
 1116YOPC   C1A14867  18.703  18.144   6.164  0.0733 -0.4089 -0.1721
 1116YOPC   D2A14868  18.515  17.756   6.242 -0.0164  0.1956 -0.2672
 1116YOPC   C3A14869  18.816  17.492   6.438  0.1182 -0.0267 -0.3378
 1116YOPC   C4A14870  19.059  17.095   6.511  0.2165 -0.1114  0.1536
 1116YOPC   C1B14871  19.340  18.337   6.406  0.1974 -0.2433 -0.1371
 1116YOPC   C2B14872  19.573  18.460   6.740  0.2584  0.1284  0.1174
 1116YOPC   D3B14873  19.895  18.627   6.736 -0.0436 -0.0534  0.1443
 1116YOPC   C4B14874  20.208  18.742   6.840  0.2153  0.1110  0.0709
 1117YOPC   NC314875   1.360   8.743   5.501 -0.1117  0.1945  0.1572
 1117YOPC   PO414876   1.531   8.857   5.926  0.0114 -0.0216  0.0655
 1117YOPC   GL114877   1.594   8.563   6.183 -0.3467 -0.2474 -0.1429
 1117YOPC   GL214878   1.899   8.329   6.338  0.1335 -0.0571  0.2432
 1117YOPC   C1A14879   1.464   8.328   6.585  0.1283  0.2854 -0.0709
 1117YOPC   D2A14880   1.569   8.100   6.935  0.1324 -0.3113  0.1233
 1117YOPC   C3A14881   1.588   7.713   7.026  0.3507  0.2895 -0.0949
 1117YOPC   C4A14882   1.296   7.552   7.330  0.1041  0.0289  0.0841
 1117YOPC   C1B14883   2.030   8.265   6.772  0.3361  0.0371  0.3178
 1117YOPC   C2B14884   2.037   8.244   7.208 -0.4854 -0.0298  0.0627
 1117YOPC   D3B14885   2.319   7.877   7.390 -0.3076  0.1378  0.0794
 1117YOPC   C4B14886   2.460   7.578   7.697  0.1926  0.0891 -0.1705
 1118YOPC   NC314887  14.270   5.937   5.512  0.2121 -0.1250 -0.1308
 1118YOPC   PO414888  14.604   5.733   5.746 -0.1972  0.3925 -0.0590
 1118YOPC   GL114889  14.525   5.474   6.111  0.3875 -0.1787 -0.1298
 1118YOPC   GL214890  14.542   5.543   6.450 -0.2884 -0.3386 -0.1042
 1118YOPC   C1A14891  14.321   5.056   6.318 -0.0476  0.2524  0.0988
 1118YOPC   D2A14892  14.409   5.158   6.803  0.0332 -0.2391 -0.1540
 1118YOPC   C3A14893  14.386   4.956   7.085  0.1463 -0.2352 -0.3151
 1118YOPC   C4A14894  14.198   4.734   7.384  0.0972  0.1022  0.1073
 1118YOPC   C1B14895  14.814   5.452   6.822 -0.1657 -0.0057  0.3692
 1118YOPC   C2B14896  14.706   5.511   7.305  0.2548  0.1097  0.2147
 1118YOPC   D3B14897  14.426   5.732   7.465 -0.0040 -0.0881 -0.1494
 1118YOPC   C4B14898  13.895   5.867   7.418 -0.1564 -0.0594 -0.0627
 1119YOPC   NC314899   4.659   4.042   5.279  0.0171  0.1435  0.0096
 1119YOPC   PO414900   4.300   4.317   5.535 -0.4474  0.0882 -0.1891
 1119YOPC   GL114901   4.422   4.320   6.004  0.0130 -0.1363 -0.1449
 1119YOPC   GL214902   4.133   4.250   6.174 -0.1221  0.0943 -0.0838
 1119YOPC   C1A14903   4.492   4.383   6.438  0.1364 -0.0334 -0.0688
 1119YOPC   D2A14904   4.647   4.550   6.924 -0.0242 -0.1290 -0.0820
 1119YOPC   C3A14905   5.004   4.806   7.004  0.0492 -0.3533  0.2973
 1119YOPC   C4A14906   5.000   5.275   6.947 -0.0083 -0.4070  0.1839
 1119YOPC   C1B14907   4.002   3.865   6.414  0.3008 -0.3870  0.2271
 1119YOPC   C2B14908   3.670   3.901   6.733  0.1170  0.0592 -0.0697
 1119YOPC   D3B14909   3.595   3.540   7.073  0.1634 -0.3597 -0.1256
 1119YOPC   C4B14910   3.849   3.324   7.255 -0.3459 -0.2373 -0.3204
 1120YOPC   NC314911  14.468   0.585   5.412 -0.0100  0.0332  0.2961
 1120YOPC   PO414912  14.736   0.841   5.378 -0.3833  0.2286  0.0425
 1120YOPC   GL114913  14.824   0.767   5.829 -0.2420 -0.0585  0.2185
 1120YOPC   GL214914  14.737   0.413   5.868  0.2486  0.1605 -0.2622
 1120YOPC   C1A14915  14.528   0.848   6.129 -0.1167 -0.0211 -0.0477
 1120YOPC   D2A14916  14.671   1.078   6.668  0.0819  0.1076 -0.0653
 1120YOPC   C3A14917  14.460   1.208   6.994 -0.0529 -0.0683  0.0268
 1120YOPC   C4A14918  14.544   1.350   7.348  0.1402  0.3692  0.2403
 1120YOPC   C1B14919  14.838   0.522   6.352 -0.0742  0.1464 -0.0897
 1120YOPC   C2B14920  14.760   0.545   6.762  0.0024 -0.0660 -0.1609
 1120YOPC   D3B14921  14.776   0.696   7.084  0.2964  0.1774 -0.1142
 1120YOPC   C4B14922  14.935   1.054   7.322 -0.0899  0.0096 -0.3435
 1121YOPC   NC314923   7.578   2.080   5.273 -0.4805 -0.0506  0.0077
 1121YOPC   PO414924   7.213   2.176   5.335  0.1030 -0.3856  0.1248
 1121YOPC   GL114925   7.502   2.125   5.796 -0.1647 -0.0894 -0.4532
 1121YOPC   GL214926   7.502   2.446   5.937  0.1402  0.1129 -0.0494
 1121YOPC   C1A14927   7.869   1.990   5.970 -0.0672 -0.0202  0.2230
 1121YOPC   D2A14928   8.193   1.839   6.153  0.3217 -0.0910  0.0412
 1121YOPC   C3A14929   8.234   1.747   6.602 -0.0044  0.1507 -0.0694
 1121YOPC   C4A14930   8.075   1.804   6.841  0.0320  0.1486 -0.1199
 1121YOPC   C1B14931   7.426   2.438   6.410 -0.2891  0.1813 -0.1837
 1121YOPC   C2B14932   7.378   2.422   6.945  0.1642 -0.2200 -0.0019
 1121YOPC   D3B14933   7.654   2.034   7.199  0.0086 -0.1621  0.2098
 1121YOPC   C4B14934   7.988   2.132   7.672  0.0056  0.1378  0.2850
 1122YOPC   NC314935  10.038  13.589   6.032  0.0544  0.0402 -0.1112
 1122YOPC   PO414936  10.013  13.120   6.047 -0.0119 -0.1128  0.0144
 1122YOPC   GL114937  10.177  13.220   6.483 -0.1326  0.0441 -0.2275
 1122YOPC   GL214938  10.379  13.478   6.438 -0.0124  0.0844  0.4513
 1122YOPC   C1A14939  10.295  13.052   6.903 -0.1834 -0.2372  0.1876
 1122YOPC   D2A14940  10.578  12.984   7.175  0.0087  0.3580 -0.0337
 1122YOPC   C3A14941  10.612  13.251   7.577  0.0926  0.0072 -0.2636
 1122YOPC   C4A14942  10.644  13.170   7.910  0.2109  0.5064 -0.2490
 1122YOPC   C1B14943  10.455  13.551   6.857 -0.4185 -0.1646 -0.4973
 1122YOPC   C2B14944  10.585  13.646   7.238 -0.0595  0.1487 -0.2578
 1122YOPC   D3B14945  10.265  13.697   7.521  0.4014  0.0795  0.1555
 1122YOPC   C4B14946  10.013  13.652   7.956 -0.0011 -0.3067 -0.0134
 1123YOPC   NC314947   5.398   6.929   5.873 -0.0019 -0.2624 -0.2952
 1123YOPC   PO414948   5.711   7.225   5.924 -0.0339 -0.3123  0.0814
 1123YOPC   GL114949   5.922   6.981   6.195  0.3002  0.3604 -0.2356
 1123YOPC   GL214950   6.223   6.789   6.262 -0.1819  0.0074 -0.2132
 1123YOPC   C1A14951   5.731   6.833   6.708  0.1495  0.0567  0.4387
 1123YOPC   D2A14952   5.581   6.985   7.076  0.1139  0.1064  0.2694
 1123YOPC   C3A14953   5.636   7.455   7.283 -0.0125 -0.0184  0.0454
 1123YOPC   C4A14954   6.029   7.735   7.287  0.3692  0.3167 -0.2251
 1123YOPC   C1B14955   6.217   6.878   6.738 -0.6574  0.1265 -0.0428
 1123YOPC   C2B14956   6.329   6.827   7.246 -0.1964 -0.1306  0.0357
 1123YOPC   D3B14957   5.972   6.847   7.437 -0.1048  0.0710  0.3760
 1123YOPC   C4B14958   5.562   7.104   7.571  0.0055 -0.3616 -0.0360
 1124YOPC   NC314959  11.601   6.010   5.667 -0.1808  0.0818 -0.0543
 1124YOPC   PO414960  11.946   6.306   5.905 -0.2089 -0.2363 -0.0508
 1124YOPC   GL114961  11.846   6.113   6.212 -0.0465 -0.0274  0.1991
 1124YOPC   GL214962  11.520   5.905   6.164  0.0369  0.2649 -0.1714
 1124YOPC   C1A14963  11.717   6.121   6.674  0.0513 -0.8188  0.1817
 1124YOPC   D2A14964  11.795   6.079   7.111 -0.1741  0.0860 -0.1300
 1124YOPC   C3A14965  12.059   6.216   7.438 -0.2450 -0.3738  0.0031
 1124YOPC   C4A14966  11.983   6.591   7.758 -0.1182  0.2073  0.3445
 1124YOPC   C1B14967  11.484   5.722   6.529  0.0735  0.0029 -0.1495
 1124YOPC   C2B14968  11.413   5.731   6.949 -0.2651 -0.0500  0.1779
 1124YOPC   D3B14969  11.272   5.431   7.210 -0.0353  0.2290 -0.0852
 1124YOPC   C4B14970  11.292   5.366   7.723  0.3073 -0.0018  0.3534
 1125YOPC   NC314971  18.621  16.858   4.839 -0.0619  0.1753 -0.4111
 1125YOPC   PO414972  18.434  17.204   4.924 -0.2308 -0.1595 -0.3359
 1125YOPC   GL114973  18.391  16.905   5.304  0.0470  0.2978 -0.0503
 1125YOPC   GL214974  18.322  17.119   5.563 -0.1103 -0.2035 -0.1973
 1125YOPC   C1A14975  18.435  16.626   5.708  0.0507 -0.1623 -0.0108
 1125YOPC   D2A14976  18.388  16.708   6.173  0.2517  0.3527 -0.0094
 1125YOPC   C3A14977  18.304  16.518   6.397  0.1547 -0.3546  0.2535
 1125YOPC   C4A14978  18.231  16.605   6.829  0.1878 -0.0795 -0.0656
 1125YOPC   C1B14979  18.726  17.051   5.701 -0.2070 -0.0183 -0.3662
 1125YOPC   C2B14980  18.811  16.953   6.124  0.0730  0.0842 -0.0456
 1125YOPC   D3B14981  18.790  16.666   6.514 -0.1236 -0.1173 -0.2794
 1125YOPC   C4B14982  18.814  16.713   6.971 -0.1981 -0.2997 -0.1664
 1126YOPC   NC314983   3.603   8.439   6.198 -0.0631 -0.3801  0.0147
 1126YOPC   PO414984   3.837   8.083   6.230  0.1012  0.0558  0.3563
 1126YOPC   GL114985   3.977   8.188   6.690 -0.1395  0.1654  0.1530
 1126YOPC   GL214986   4.344   8.014   6.739  0.1611 -0.0339  0.2750
 1126YOPC   C1A14987   3.930   8.175   7.106 -0.0415  0.1020 -0.4293
 1126YOPC   D2A14988   3.650   8.520   7.233 -0.1206 -0.2455 -0.0818
 1126YOPC   C3A14989   3.547   8.506   7.616  0.2999  0.1583  0.1560
 1126YOPC   C4A14990   3.411   8.576   8.089 -0.1582 -0.0480 -0.0156
 1126YOPC   C1B14991   4.414   7.997   7.083 -0.0365 -0.0361  0.0830
 1126YOPC   C2B14992   4.343   7.769   7.408  0.1392 -0.1499 -0.0434
 1126YOPC   D3B14993   4.325   7.388   7.462  0.1211  0.2358  0.2854
 1126YOPC   C4B14994   4.039   7.355   7.914  0.0740  0.2028  0.1205
 1127YOPC   NC314995   9.456   8.713   5.897  0.2176  0.1343 -0.0361
 1127YOPC   PO414996   9.118   8.538   5.943 -0.0353  0.3196 -0.2479
 1127YOPC   GL114997   8.991   8.200   6.310 -0.2054 -0.3917  0.0451
 1127YOPC   GL214998   9.258   8.157   6.372  0.0896 -0.1073  0.2306
 1127YOPC   C1A14999   8.891   8.169   6.736 -0.3687 -0.1486 -0.0757
 1127YOPC   D2A15000   9.022   7.905   7.073  0.3265  0.0124 -0.2398
 1127YOPC   C3A15001   8.772   8.131   7.357  0.0569 -0.0271 -0.0452
 1127YOPC   C4A15002   8.825   7.765   7.569 -0.0369  0.1112  0.1166
 1127YOPC   C1B15003   9.152   7.654   6.562 -0.0259  0.3803  0.0939
 1127YOPC   C2B15004   8.967   7.342   6.827  0.1990 -0.1447  0.1018
 1127YOPC   D3B15005   8.955   7.408   7.213  0.0158 -0.0568  0.2659
 1127YOPC   C4B15006   8.971   7.291   7.664 -0.0053 -0.0614  0.0234
 1128YOPC   NC315007   4.111   8.539   6.337  0.2716 -0.1773 -0.0806
 1128YOPC   PO415008   4.451   8.611   6.163  0.4739 -0.1238 -0.0400
 1128YOPC   GL115009   4.581   8.670   6.588 -0.1570 -0.0834 -0.2963
 1128YOPC   GL215010   4.916   8.436   6.723 -0.0731  0.1031  0.0848
 1128YOPC   C1A15011   4.513   8.486   7.026 -0.2246 -0.1132  0.2012
 1128YOPC   D2A15012   4.517   8.680   7.478  0.0699  0.1318 -0.1477
 1128YOPC   C3A15013   4.134   8.967   7.732 -0.0567  0.1299  0.0164
 1128YOPC   C4A15014   3.749   8.923   7.929 -0.1139 -0.0579  0.0363
 1128YOPC   C1B15015   4.956   8.633   7.079 -0.1919  0.4534 -0.2205
 1128YOPC   C2B15016   4.954   8.901   7.503 -0.0324  0.3067 -0.1313
 1128YOPC   D3B15017   5.370   8.865   7.673  0.3277 -0.2030 -0.2406
 1128YOPC   C4B15018   5.459   8.813   8.029 -0.0858 -0.1086  0.1959
 1129YOPC   NC315019  15.975  17.198   5.341  0.4136  0.2282  0.0486
 1129YOPC   PO415020  15.738  17.534   5.482  0.4032 -0.0084 -0.0911
 1129YOPC   GL115021  15.925  17.278   5.905  0.1630  0.0766  0.0429
 1129YOPC   GL215022  16.315  17.280   5.947 -0.1514 -0.0583  0.2716
 1129YOPC   C1A15023  15.766  17.178   6.377 -0.1875  0.2694 -0.2727
 1129YOPC   D2A15024  15.532  16.835   6.567  0.0327 -0.1869 -0.1351
 1129YOPC   C3A15025  15.430  16.872   7.008 -0.1304 -0.1039  0.4661
 1129YOPC   C4A15026  15.233  17.034   7.409  0.3210 -0.2676 -0.1590
 1129YOPC   C1B15027  16.669  17.296   6.260  0.1339  0.2873 -0.1725
 1129YOPC   C2B15028  16.772  17.337   6.722  0.0613 -0.3688  0.1261
 1129YOPC   D3B15029  16.459  17.397   7.101  0.3096 -0.2981  0.1086
 1129YOPC   C4B15030  16.243  17.099   7.398 -0.0331 -0.4019  0.1918
 1130YOPC   NC315031  15.506  15.514   5.705 -0.1615 -0.1205 -0.1366
 1130YOPC   PO415032  15.136  15.600   5.783 -0.1680  0.1499 -0.3338
 1130YOPC   GL115033  15.286  15.766   6.088 -0.4153  0.1179 -0.4911
 1130YOPC   GL215034  15.426  15.552   6.234  0.0233  0.3043 -0.3795
 1130YOPC   C1A15035  14.969  16.031   6.459  0.0753 -0.2165  0.3385
 1130YOPC   D2A15036  14.868  16.175   6.800 -0.1869 -0.0762  0.2127
 1130YOPC   C3A15037  15.149  16.207   7.096  0.0521 -0.0845  0.0218
 1130YOPC   C4A15038  15.211  16.490   7.403 -0.1933  0.1499 -0.2534
 1130YOPC   C1B15039  15.692  15.819   6.574 -0.2194 -0.1646  0.0668
 1130YOPC   C2B15040  15.938  16.080   6.821  0.3301  0.0425 -0.0470
 1130YOPC   D3B15041  16.089  16.206   7.201 -0.1305 -0.2628 -0.0084
 1130YOPC   C4B15042  16.510  16.086   7.401 -0.0643  0.0391  0.0950
 1131YOPC   NC315043  17.881  14.809   5.584  0.0178 -0.2525 -0.1140
 1131YOPC   PO415044  18.168  15.212   5.635  0.5088  0.1159  0.1694
 1131YOPC   GL115045  17.996  15.303   5.993  0.2785  0.0410 -0.3083
 1131YOPC   GL215046  18.307  15.269   6.114 -0.5592 -0.1920  0.1160
 1131YOPC   C1A15047  18.027  15.649   6.294 -0.1939  0.2854  0.0707
 1131YOPC   D2A15048  18.252  15.636   6.694 -0.3060 -0.3434 -0.0921
 1131YOPC   C3A15049  18.047  15.724   7.030 -0.1296  0.5616 -0.0801
 1131YOPC   C4A15050  17.846  15.586   7.337  0.0117 -0.3316  0.0418
 1131YOPC   C1B15051  18.640  15.417   6.434  0.1278 -0.0627  0.2134
 1131YOPC   C2B15052  18.754  15.709   6.731  0.2447 -0.3694 -0.1591
 1131YOPC   D3B15053  18.671  15.634   7.011  0.0853  0.3281 -0.0548
 1131YOPC   C4B15054  18.319  15.302   7.087  0.2690 -0.0194 -0.0546
 1132YOPC   NC315055   7.159   1.222   5.529 -0.3109  0.1264  0.0984
 1132YOPC   PO415056   6.827   1.426   5.846 -0.0663  0.0898  0.2977
 1132YOPC   GL115057   6.945   1.498   6.222 -0.2447 -0.1319  0.0350
 1132YOPC   GL215058   6.747   1.737   6.363  0.1614  0.1599  0.0271
 1132YOPC   C1A15059   6.949   1.255   6.564 -0.1167 -0.0712 -0.0574
 1132YOPC   D2A15060   6.726   0.993   6.879  0.1218 -0.1013  0.2483
 1132YOPC   C3A15061   6.407   0.868   7.153 -0.3863 -0.4866 -0.0120
 1132YOPC   C4A15062   6.166   1.069   7.416 -0.0297 -0.4980 -0.0845
 1132YOPC   C1B15063   6.841   1.715   6.691 -0.0561 -0.0772 -0.0995
 1132YOPC   C2B15064   6.967   1.432   7.061 -0.3102  0.1898  0.2880
 1132YOPC   D3B15065   7.167   1.522   7.397  0.0996  0.3017 -0.2302
 1132YOPC   C4B15066   7.294   1.777   7.553 -0.0377  0.0309 -0.1555
 1133YOPC   NC315067  12.153  12.943   5.560 -0.2034  0.2219  0.0984
 1133YOPC   PO415068  12.600  12.961   5.721 -0.0269  0.1697 -0.1095
 1133YOPC   GL115069  12.703  12.884   6.145 -0.1656  0.1609 -0.1533
 1133YOPC   GL215070  12.512  13.181   6.429  0.0280  0.0104 -0.1412
 1133YOPC   C1A15071  12.694  12.693   6.552  0.2520 -0.0314  0.2404
 1133YOPC   D2A15072  12.682  12.813   6.951 -0.1380 -0.0385 -0.1403
 1133YOPC   C3A15073  12.750  12.570   7.334  0.0023  0.0422 -0.0196
 1133YOPC   C4A15074  12.641  12.484   7.788  0.0962  0.1025 -0.0686
 1133YOPC   C1B15075  12.442  13.235   6.842  0.0537 -0.0302  0.1075
 1133YOPC   C2B15076  12.136  13.083   7.062 -0.0380 -0.3924 -0.0342
 1133YOPC   D3B15077  11.882  13.221   7.431 -0.0817 -0.3490  0.0696
 1133YOPC   C4B15078  11.552  13.280   7.644  0.0879  0.1015  0.0765
 1134YOPC   NC315079   7.105  13.276   6.131  0.0708 -0.0642  0.0924
 1134YOPC   PO415080   6.687  13.431   6.170  0.1987  0.2174  0.1265
 1134YOPC   GL115081   6.857  13.031   6.498  0.0800  0.0708  0.1353
 1134YOPC   GL215082   6.660  12.819   6.565  0.0838 -0.1995  0.0763
 1134YOPC   C1A15083   7.213  12.939   6.721  0.3809 -0.0516  0.3210
 1134YOPC   D2A15084   7.419  12.770   6.957 -0.1670  0.2022  0.1666
 1134YOPC   C3A15085   7.510  12.738   7.332 -0.0642 -0.1600  0.0125
 1134YOPC   C4A15086   7.329  12.675   7.654  0.0429  0.0356 -0.0753
 1134YOPC   C1B15087   6.590  12.362   6.795 -0.1937 -0.2510  0.2492
 1134YOPC   C2B15088   6.422  12.249   7.154  0.3598  0.0194 -0.0479
 1134YOPC   D3B15089   6.545  11.901   7.470  0.0445 -0.1278 -0.0198
 1134YOPC   C4B15090   6.754  11.523   7.368  0.1227 -0.1224  0.2486
 1135YOPC   NC315091   1.571  13.426   5.571  0.2867 -0.4059 -0.2156
 1135YOPC   PO415092   1.611  12.993   5.823 -0.3114 -0.1110  0.0079
 1135YOPC   GL115093   1.383  12.895   6.216 -0.4170  0.5617 -0.1615
 1135YOPC   GL215094   1.510  12.541   6.175  0.1899 -0.0447 -0.3565
 1135YOPC   C1A15095   1.306  12.819   6.627 -0.0246  0.1178  0.1936
 1135YOPC   D2A15096   1.094  12.656   7.063  0.0482 -0.0315 -0.0574
 1135YOPC   C3A15097   0.775  12.933   7.296 -0.1079 -0.0639 -0.1034
 1135YOPC   C4A15098   0.414  13.192   7.446 -0.0845  0.1477 -0.0886
 1135YOPC   C1B15099   1.623  12.272   6.488 -0.1040  0.2175  0.3809
 1135YOPC   C2B15100   1.534  12.459   6.861 -0.1793 -0.1672 -0.1124
 1135YOPC   D3B15101   1.371  12.327   7.325  0.0897 -0.0825 -0.2314
 1135YOPC   C4B15102   1.494  12.012   7.608 -0.0765 -0.1877 -0.1738
 1136YOPC   NC315103   7.915   8.256   5.353 -0.1954 -0.0061  0.0824
 1136YOPC   PO415104   8.016   8.098   5.736  0.0406  0.1120  0.3516
 1136YOPC   GL115105   8.040   7.912   6.187  0.0821 -0.0549  0.3094
 1136YOPC   GL215106   8.007   7.578   6.118 -0.0030 -0.1785 -0.0792
 1136YOPC   C1A15107   8.002   7.939   6.698  0.0752  0.1075  0.0042
 1136YOPC   D2A15108   7.977   8.082   7.112  0.0219 -0.1976 -0.2565
 1136YOPC   C3A15109   7.812   8.507   7.310  0.0009 -0.1916  0.1319
 1136YOPC   C4A15110   7.604   8.587   7.732  0.2264  0.2998 -0.3820
 1136YOPC   C1B15111   7.724   7.623   6.467 -0.0938 -0.0574  0.1501
 1136YOPC   C2B15112   7.435   7.844   6.740 -0.0533  0.1001 -0.0794
 1136YOPC   D3B15113   7.491   7.860   7.183  0.2436  0.0664 -0.1184
 1136YOPC   C4B15114   7.424   7.684   7.634 -0.3025  0.1543  0.0160
 1137YOPC   NC315115   5.297  18.212   5.643 -0.2967  0.0857  0.0843
 1137YOPC   PO415116   4.925  17.864   5.658 -0.1766  0.0153 -0.2416
 1137YOPC   GL115117   5.170  17.690   5.994  0.0362  0.1553  0.0088
 1137YOPC   GL215118   5.385  17.938   6.062  0.0786  0.1468  0.2279
 1137YOPC   C1A15119   5.010  17.703   6.330 -0.2492  0.0233  0.3035
 1137YOPC   D2A15120   5.166  17.821   6.679 -0.3784  0.2702 -0.0251
 1137YOPC   C3A15121   4.933  17.613   6.989  0.3784 -0.0225  0.1153
 1137YOPC   C4A15122   4.792  17.712   7.390  0.2816 -0.1010  0.1206
 1137YOPC   C1B15123   5.611  17.950   6.376 -0.1010  0.2484  0.1288
 1137YOPC   C2B15124   5.819  17.906   6.877 -0.2986  0.1801 -0.0151
 1137YOPC   D3B15125   5.495  17.914   7.272  0.1972  0.0353  0.1177
 1137YOPC   C4B15126   5.300  17.910   7.666  0.2034 -0.2947  0.1147
 1138YOPC   NC315127  18.237   0.188   5.335  0.0805  0.0440  0.0075
 1138YOPC   PO415128  18.077   0.375   5.726  0.4308  0.1091  0.1194
 1138YOPC   GL115129  18.307   0.367   6.077  0.0842 -0.0507  0.4301
 1138YOPC   GL215130  18.680   0.584   6.081  0.0264 -0.1094  0.0366
 1138YOPC   C1A15131  18.367   0.334   6.441  0.1760 -0.0302 -0.0148
 1138YOPC   D2A15132  18.526   0.146   6.702  0.0627 -0.0271 -0.1052
 1138YOPC   C3A15133  18.587   0.038   7.068  0.0334  0.4340 -0.2269
 1138YOPC   C4A15134  18.720   0.176   7.369  0.0677  0.1907 -0.1599
 1138YOPC   C1B15135  18.879   0.735   6.484  0.3086  0.0401 -0.1638
 1138YOPC   C2B15136  19.119   0.883   6.757 -0.0988 -0.1180 -0.2596
 1138YOPC   D3B15137  19.024   1.117   7.020 -0.2215 -0.3091 -0.2141
 1138YOPC   C4B15138  19.060   1.247   7.460  0.2163 -0.2583 -0.0010
 1139YOPC   NC315139   0.784   0.059   5.168 -0.2468 -0.1688 -0.1465
 1139YOPC   PO415140   0.983   0.383   5.418 -0.2249 -0.4218  0.0650
 1139YOPC   GL115141   1.212   0.561   5.759  0.4049  0.2471 -0.0147
 1139YOPC   GL215142   1.015   0.720   5.921 -0.1168 -0.2327  0.3354
 1139YOPC   C1A15143   1.594   0.329   5.843  0.0442  0.0966  0.2940
 1139YOPC   D2A15144   1.748   0.049   6.206 -0.1165  0.0068 -0.0137
 1139YOPC   C3A15145   2.079  -0.108   6.296  0.0126 -0.1328  0.2102
 1139YOPC   C4A15146   2.318  -0.042   6.448 -0.1296  0.0401 -0.2032
 1139YOPC   C1B15147   0.725   0.442   6.034 -0.0415  0.6148 -0.0180
 1139YOPC   C2B15148   0.301   0.223   6.126  0.1242 -0.0488 -0.0314
 1139YOPC   D3B15149   0.346   0.296   6.582 -0.0331  0.3269  0.1333
 1139YOPC   C4B15150   0.309   0.446   6.933  0.4241  0.0407 -0.0510
 1140YOPC   NC315151  11.094   0.484   5.478 -0.1405  0.0117 -0.0185
 1140YOPC   PO415152  11.424   0.434   5.764 -0.1776 -0.2676 -0.0482
 1140YOPC   GL115153  11.351   0.602   6.109 -0.1094 -0.2402 -0.0470
 1140YOPC   GL215154  11.412   0.985   6.245  0.0683  0.5310 -0.0711
 1140YOPC   C1A15155  11.122   0.607   6.483 -0.2357  0.1979  0.1541
 1140YOPC   D2A15156  11.154   0.540   6.857  0.0073 -0.2809 -0.0882
 1140YOPC   C3A15157  11.299   0.705   7.156  0.2492 -0.0923 -0.0779
 1140YOPC   C4A15158  11.154   0.648   7.594  0.0191 -0.1497  0.1840
 1140YOPC   C1B15159  11.460   0.983   6.629  0.0044  0.2443  0.1320
 1140YOPC   C2B15160  11.676   0.994   6.978 -0.0947  0.0264 -0.0694
 1140YOPC   D3B15161  11.808   1.294   7.271  0.1276  0.4448 -0.2085
 1140YOPC   C4B15162  12.031   1.222   7.638  0.1800  0.0864  0.5176
 1141YOPC   NC315163   2.087   1.859   5.243 -0.0309 -0.0338  0.3118
 1141YOPC   PO415164   2.167   1.409   5.253 -0.2583 -0.0255 -0.0045
 1141YOPC   GL115165   2.267   1.431   5.584 -0.2360 -0.1916 -0.0065
 1141YOPC   GL215166   2.489   1.714   5.705 -0.1728  0.3245  0.1143
 1141YOPC   C1A15167   2.381   1.406   6.049  0.2990 -0.0065 -0.0300
 1141YOPC   D2A15168   2.218   1.451   6.414  0.0295  0.1592 -0.0645
 1141YOPC   C3A15169   2.429   1.775   6.772 -0.0687  0.1669 -0.3010
 1141YOPC   C4A15170   2.650   1.901   7.018 -0.2017  0.0656 -0.0616
 1141YOPC   C1B15171   2.862   1.795   5.896 -0.1247  0.0889  0.1639
 1141YOPC   C2B15172   3.070   1.595   6.125 -0.2477 -0.0311  0.0950
 1141YOPC   D3B15173   2.902   1.628   6.651  0.0795 -0.0278  0.1445
 1141YOPC   C4B15174   3.098   1.678   7.065  0.2167  0.2770  0.0518
 1142YOPC   NC315175   7.507  13.993   5.946  0.2469  0.2214  0.3324
 1142YOPC   PO415176   7.324  14.321   6.069  0.1303  0.0342 -0.0319
 1142YOPC   GL115177   7.307  14.065   6.397  0.1987 -0.3294  0.1448
 1142YOPC   GL215178   6.959  14.072   6.569  0.2174  0.1417  0.0049
 1142YOPC   C1A15179   7.372  13.876   6.792 -0.0287 -0.1868  0.0559
 1142YOPC   D2A15180   7.545  13.552   7.289  0.1239  0.3424 -0.0787
 1142YOPC   C3A15181   7.279  13.444   7.631 -0.1031  0.0934  0.1985
 1142YOPC   C4A15182   7.444  13.154   8.040 -0.4332  0.2448 -0.0503
 1142YOPC   C1B15183   6.907  13.897   6.977  0.0792  0.1562  0.2356
 1142YOPC   C2B15184   6.523  13.801   7.168  0.1486 -0.1195 -0.0700
 1142YOPC   D3B15185   6.449  13.742   7.521 -0.5385 -0.1445 -0.0010
 1142YOPC   C4B15186   6.409  13.478   7.841 -0.1145 -0.2038 -0.3219
 1143YOPC   NC315187   3.310   4.723   5.680  0.1838  0.0033 -0.3714
 1143YOPC   PO415188   2.893   4.583   5.593  0.3643 -0.0985  0.3895
 1143YOPC   GL115189   2.724   4.682   5.938  0.3711  0.0467  0.1375
 1143YOPC   GL215190   2.504   4.637   6.037 -0.2038  0.0532 -0.1770
 1143YOPC   C1A15191   2.877   4.910   6.324 -0.1850  0.2545 -0.0014
 1143YOPC   D2A15192   2.899   5.079   6.757  0.1491 -0.0212  0.0448
 1143YOPC   C3A15193   2.936   4.950   7.110 -0.0228  0.4307 -0.1821
 1143YOPC   C4A15194   2.773   4.549   7.329  0.2792 -0.2314  0.0393
 1143YOPC   C1B15195   2.240   4.834   6.428  0.0995 -0.0461 -0.1541
 1143YOPC   C2B15196   2.429   4.970   6.789 -0.3075  0.1997  0.0465
 1143YOPC   D3B15197   2.145   5.169   7.085  0.2526  0.1488  0.2005
 1143YOPC   C4B15198   2.190   5.365   7.421  0.1355  0.2938  0.3241
 1144ERGO   ROH15199   1.540   8.914   9.555  0.0521 -0.0510 -0.1297
 1144ERGO    R115200   1.583   8.811   9.295  0.0836 -0.0592 -0.1207
 1144ERGO    R215201   1.393   8.660   9.161  0.0862 -0.0291 -0.1528
 1144ERGO    R315202   1.429   8.847   8.967  0.1506 -0.0381 -0.1508
 1144ERGO    R415203   1.231   8.662   8.856 -0.1829  0.2181 -0.0137
 1144ERGO    R515204   1.418   8.724   8.762 -0.1807  0.0032 -0.1658
 1144ERGO    C115205   1.170   8.839   8.496 -0.2791  0.3535  0.0690
 1144ERGO    C215206   1.116   8.736   8.130  0.1244  0.0550 -0.1640
 1145ERGO   ROH15207   8.473   9.434   9.424  0.0693 -0.1154 -0.0221
 1145ERGO    R115208   8.550   9.536   9.172 -0.2015  0.0310 -0.0507
 1145ERGO    R215209   8.482   9.789   9.085 -0.1012  0.1736  0.2655
 1145ERGO    R315210   8.750   9.814   9.048 -0.1258 -0.0424 -0.0921
 1145ERGO    R415211   8.632  10.018   8.875 -0.1886  0.1752  0.2052
 1145ERGO    R515212   8.773   9.864   8.815 -0.4057  0.0869 -0.0949
 1145ERGO    C115213   8.971  10.174   8.717 -0.2626 -0.0267 -0.1655
 1145ERGO    C215214   9.142  10.563   8.591 -0.0175  0.2687 -0.0601
 1146ERGO   ROH15215   3.871   2.016   9.315 -0.0642 -0.1198 -0.0519
 1146ERGO    R115216   3.805   1.942   9.050 -0.0707 -0.0944 -0.0576
 1146ERGO    R215217   3.969   1.999   8.835 -0.0563 -0.1097 -0.0512
 1146ERGO    R315218   3.949   1.731   8.791 -0.0997 -0.1042 -0.0656
 1146ERGO    R415219   3.995   1.847   8.526  0.0276 -0.1079 -0.0450
 1146ERGO    R515220   3.833   1.713   8.582 -0.0240 -0.0727 -0.1106
 1146ERGO    C115221   3.993   1.507   8.304  0.0358 -0.1016 -0.0549
 1146ERGO    C215222   4.060   1.520   8.048 -0.0010  0.1587  0.1296
 1147ERGO   ROH15223  14.219  11.114   9.711  0.0463 -0.0093 -0.0853
 1147ERGO    R115224  14.298  11.123   9.440 -0.0002 -0.0231 -0.0996
 1147ERGO    R215225  14.246  10.918   9.262 -0.1450  0.0226 -0.1126
 1147ERGO    R315226  14.132  11.117   9.116 -0.0665  0.1002 -0.0687
 1147ERGO    R415227  14.289  10.962   8.922  0.0095  0.1837 -0.0731
 1147ERGO    R515228  14.301  11.177   8.957  0.0083  0.1664  0.0350
 1147ERGO    C115229  14.208  11.175   8.587  0.1732  0.3504 -0.0089
 1147ERGO    C215230  14.329  11.123   8.263 -0.3062  0.0962  0.0024
 1148ERGO   ROH15231   8.252   1.232   9.508  0.0379  0.0770  0.0494
 1148ERGO    R115232   8.236   1.338   9.246 -0.0072  0.0135  0.0264
 1148ERGO    R215233   8.448   1.465   9.123 -0.0302 -0.0119 -0.0391
 1148ERGO    R315234   8.402   1.282   8.927 -0.0589 -0.0600  0.0120
 1148ERGO    R415235   8.472   1.529   8.784 -0.0932 -0.0902 -0.0586
 1148ERGO    R515236   8.293   1.407   8.754 -0.0946 -0.1042  0.0019
 1148ERGO    C115237   8.442   1.395   8.403 -0.1568 -0.1808 -0.0221
 1148ERGO    C215238   8.465   1.278   8.057 -0.1252  0.2843 -0.0861
 1149ERGO   ROH15239  13.414  12.775   6.271 -0.0307 -0.3585  0.0247
 1149ERGO    R115240  13.304  12.695   6.519  0.1794 -0.3386  0.1261
 1149ERGO    R215241  13.461  12.621   6.734  0.3728 -0.0072  0.1079
 1149ERGO    R315242  13.317  12.812   6.864  0.1918 -0.0994  0.0456
 1149ERGO    R415243  13.394  12.622   7.073  0.2620 -0.0206  0.0861
 1149ERGO    R515244  13.192  12.691   7.028  0.2270 -0.1723  0.0164
 1149ERGO    C115245  13.220  12.802   7.392  0.0275 -0.1150  0.0149
 1149ERGO    C215246  13.226  12.702   7.755  0.3218 -0.1136  0.0029
 1150ERGO   ROH15247   1.440   2.122   9.184  0.3669  0.0436 -0.0201
 1150ERGO    R115248   1.357   2.010   8.938  0.2111  0.0884  0.0113
 1150ERGO    R215249   1.199   2.148   8.757  0.1868  0.1620  0.0870
 1150ERGO    R315250   1.400   2.086   8.585  0.0865  0.0864 -0.0042
 1150ERGO    R415251   1.202   2.227   8.421  0.0386  0.0958  0.0693
 1150ERGO    R515252   1.288   2.030   8.381 -0.0254  0.0717  0.0625
 1150ERGO    C115253   1.391   2.214   8.063 -0.1419 -0.0139 -0.0266
 1150ERGO    C215254   1.320   2.210   7.605  0.1085 -0.2198 -0.1825
 1151ERGO   ROH15255  18.470   4.068   5.910  0.2558 -0.0396  0.1771
 1151ERGO    R115256  18.446   3.940   6.161 -0.0195  0.0166  0.1817
 1151ERGO    R215257  18.661   3.830   6.294 -0.2025 -0.1724  0.3295
 1151ERGO    R315258  18.577   3.990   6.497 -0.1752 -0.0626  0.2552
 1151ERGO    R415259  18.811   3.851   6.605 -0.0930  0.0814  0.2626
 1151ERGO    R515260  18.612   3.859   6.694 -0.0623  0.0799  0.3305
 1151ERGO    C115261  18.818   4.013   6.976 -0.0039  0.3322  0.1540
 1151ERGO    C215262  18.964   3.882   7.310 -0.0559  0.0127  0.0484
 1152ERGO   ROH15263   4.453   5.137   9.569  0.1680  0.2894 -0.0588
 1152ERGO    R115264   4.368   5.090   9.303  0.2760  0.1751 -0.0742
 1152ERGO    R215265   4.177   5.246   9.178  0.0973 -0.0689 -0.1134
 1152ERGO    R315266   4.369   5.275   8.989  0.1005  0.1736 -0.0761
 1152ERGO    R415267   4.117   5.313   8.845  0.0728 -0.2510 -0.1465
 1152ERGO    R515268   4.276   5.173   8.793  0.3006 -0.0244 -0.0707
 1152ERGO    C115269   4.264   5.379   8.472  0.0616 -0.1294 -0.1307
 1152ERGO    C215270   4.399   5.436   8.163  0.1167 -0.0810 -0.3436
 1153ERGO   ROH15271  12.700   8.525   6.260  0.2395 -0.0339  0.1447
 1153ERGO    R115272  12.702   8.598   6.534  0.0938 -0.0558  0.1520
 1153ERGO    R215273  12.491   8.730   6.654  0.0752  0.0327  0.0234
 1153ERGO    R315274  12.502   8.522   6.828 -0.1360  0.0133  0.0168
 1153ERGO    R415275  12.442   8.756   6.995  0.0823  0.0676  0.0219
 1153ERGO    R515276  12.605   8.614   7.024 -0.0554 -0.0935  0.0256
 1153ERGO    C115277  12.424   8.576   7.358 -0.1118  0.0698  0.0148
 1153ERGO    C215278  12.434   8.384   7.721 -0.1941  0.0231 -0.0226
 1154ERGO   ROH15279   3.328  16.272   9.443 -0.1795  0.0565 -0.1662
 1154ERGO    R115280   3.276  16.330   9.171 -0.1385  0.0780 -0.1697
 1154ERGO    R215281   3.473  16.415   8.997 -0.1068  0.0692 -0.1398
 1154ERGO    R315282   3.389  16.204   8.848 -0.1088  0.0858 -0.1622
 1154ERGO    R415283   3.586  16.340   8.679 -0.0314  0.0406 -0.1064
 1154ERGO    R515284   3.381  16.288   8.624 -0.0259  0.0841 -0.1651
 1154ERGO    C115285   3.572  16.098   8.354  0.0106  0.0399 -0.1080
 1154ERGO    C215286   3.692  16.145   8.031  0.1430 -0.0087 -0.3248
 1155ERGO   ROH15287  17.357  12.722   9.707  0.0997  0.0316 -0.1915
 1155ERGO    R115288  17.416  12.679   9.434  0.1490  0.1347 -0.1978
 1155ERGO    R215289  17.268  12.509   9.274  0.3125  0.0190 -0.2332
 1155ERGO    R315290  17.247  12.729   9.116  0.1087  0.0298 -0.1923
 1155ERGO    R415291  17.227  12.504   8.931  0.0283  0.0514 -0.2017
 1155ERGO    R515292  17.365  12.671   8.916 -0.0400  0.0954 -0.2979
 1155ERGO    C115293  17.183  12.707   8.583 -0.3283  0.0803 -0.1450
 1155ERGO    C215294  17.342  12.856   8.310  0.2043 -0.0677 -0.1533
 1156ERGO   ROH15295   3.276   9.742   9.735 -0.1124 -0.0015 -0.0890
 1156ERGO    R115296   3.265   9.751   9.452  0.1728  0.1241 -0.1002
 1156ERGO    R215297   3.474   9.669   9.292  0.1470 -0.2997  0.0750
 1156ERGO    R315298   3.283   9.511   9.180 -0.1166  0.1646 -0.1597
 1156ERGO    R415299   3.479   9.556   8.966  0.1560 -0.1264  0.0139
 1156ERGO    R515300   3.264   9.592   8.955  0.2284  0.3412 -0.1340
 1156ERGO    C115301   3.303   9.342   8.670 -0.0863  0.4104 -0.2420
 1156ERGO    C215302   3.227   9.023   8.385 -0.2436 -0.1568  0.2902
 1157ERGO   ROH15303   0.955  16.808   5.855 -0.1531  0.4383  0.0133
 1157ERGO    R115304   1.082  16.840   6.106  0.0014  0.3570 -0.0534
 1157ERGO    R215305   0.995  17.022   6.295  0.0453  0.2134  0.1059
 1157ERGO    R315306   0.990  16.802   6.455  0.2529  0.1220 -0.0086
 1157ERGO    R415307   1.014  17.028   6.640 -0.1900  0.0730  0.1237
 1157ERGO    R515308   1.143  16.853   6.631  0.0690  0.2580  0.1178
 1157ERGO    C115309   1.021  16.825   6.991 -0.1320 -0.0947  0.0268
 1157ERGO    C215310   0.968  16.874   7.350 -0.0323  0.2200  0.0407
 1158ERGO   ROH15311  16.696  11.050   9.354  0.1403 -0.1443  0.0307
 1158ERGO    R115312  16.644  11.059   9.076  0.1717 -0.2485  0.0211
 1158ERGO    R215313  16.600  11.296   8.940 -0.1821 -0.3225 -0.0041
 1158ERGO    R315314  16.802  11.205   8.783 -0.0055 -0.0185  0.0377
 1158ERGO    R415315  16.661  11.401   8.617 -0.2923 -0.2564 -0.0042
 1158ERGO    R515316  16.706  11.195   8.564  0.0462 -0.1935  0.0227
 1158ERGO    C115317  16.886  11.377   8.280 -0.1908  0.0674  0.0348
 1158ERGO    C215318  16.946  11.471   8.019  0.4149 -0.1964  0.0014
 1159ERGO   ROH15319  18.357   4.811   9.219 -0.0585 -0.0088  0.0024
 1159ERGO    R115320  18.361   4.725   8.949 -0.1800  0.0045 -0.0030
 1159ERGO    R215321  18.229   4.860   8.747  0.0197  0.2122  0.0107
 1159ERGO    R315322  18.474   4.859   8.631  0.0222 -0.1361  0.0047
 1159ERGO    R415323  18.286   4.840   8.407 -0.0482  0.3954 -0.0134
 1159ERGO    R515324  18.453   4.707   8.448 -0.2771  0.0455 -0.1286
 1159ERGO    C115325  18.550   4.828   8.100 -0.0853  0.1752 -0.0331
 1159ERGO    C215326  18.531   5.072   7.970 -0.1331  0.0722  0.0883
 1160ERGO   ROH15327   4.358  13.834   9.723  0.2452 -0.0611  0.2936
 1160ERGO    R115328   4.295  13.931   9.465  0.2335  0.0422  0.3368
 1160ERGO    R215329   4.483  14.051   9.301  0.2817 -0.1223  0.2839
 1160ERGO    R315330   4.401  13.862   9.124  0.0190 -0.0085  0.2766
 1160ERGO    R415331   4.517  14.073   8.958  0.4091 -0.1873  0.2900
 1160ERGO    R515332   4.318  13.986   8.937  0.2626  0.1255  0.2461
 1160ERGO    C115333   4.459  13.908   8.592  0.2367 -0.1182  0.2867
 1160ERGO    C215334   4.220  13.750   8.272 -0.0587  0.0726 -0.2642
 1161ERGO   ROH15335  12.831  14.067   6.294 -0.0928 -0.0032 -0.0001
 1161ERGO    R115336  12.887  14.143   6.561 -0.0699 -0.0705  0.0145
 1161ERGO    R215337  12.691  14.232   6.734 -0.0526 -0.1006  0.0493
 1161ERGO    R315338  12.788  14.034   6.893 -0.0531 -0.1445 -0.0046
 1161ERGO    R415339  12.679  14.233   7.079 -0.0769 -0.2071  0.0491
 1161ERGO    R515340  12.880  14.149   7.082 -0.0726 -0.1971  0.0375
 1161ERGO    C115341  12.762  14.047   7.430 -0.0915 -0.3104 -0.0016
 1161ERGO    C215342  12.669  14.080   7.726 -0.1180 -0.3618  0.0766
 1162ERGO   ROH15343  12.182  17.590   9.464 -0.1216 -0.3325  0.0947
 1162ERGO    R115344  12.002  17.489   9.270 -0.1058 -0.1800 -0.0004
 1162ERGO    R215345  11.915  17.639   9.055  0.0253 -0.0595  0.0328
 1162ERGO    R315346  12.007  17.427   8.912 -0.0242 -0.0431 -0.0243
 1162ERGO    R415347  11.794  17.542   8.746 -0.0015  0.0556  0.0062
 1162ERGO    R515348  11.811  17.334   8.811 -0.0499  0.0313 -0.0486
 1162ERGO    C115349  11.810  17.286   8.432 -0.0636  0.1379 -0.0629
 1162ERGO    C215350  11.744  17.151   8.065 -0.4142 -0.0159 -0.2278
 1163ERGO   ROH15351  10.811   0.907   6.289  0.0456  0.1452  0.1275
 1163ERGO    R115352  10.604   0.766   6.421  0.1169  0.0122  0.1014
 1163ERGO    R215353  10.611   0.710   6.691  0.1110  0.0276  0.1122
 1163ERGO    R315354  10.369   0.832   6.690  0.0327 -0.1276  0.0605
 1163ERGO    R415355  10.373   0.679   6.940  0.1306  0.0054  0.1271
 1163ERGO    R515356  10.220   0.671   6.785  0.1352 -0.1672  0.1413
 1163ERGO    C115357  10.007   0.777   7.083  0.0686 -0.1533  0.0873
 1163ERGO    C215358   9.768   0.633   7.385 -0.0052  0.1580 -0.1313
 1164ERGO   ROH15359   5.487   6.668   6.306 -0.1490 -0.0647 -0.1039
 1164ERGO    R115360   5.349   6.528   6.509  0.0246 -0.1729 -0.0577
 1164ERGO    R215361   5.470   6.339   6.669  0.2336 -0.0568 -0.0741
 1164ERGO    R315362   5.374   6.494   6.871  0.1489 -0.1242 -0.0619
 1164ERGO    R415363   5.363   6.221   6.976  0.1697 -0.1474 -0.1306
 1164ERGO    R515364   5.199   6.363   6.968  0.1468 -0.1779 -0.1407
 1164ERGO    C115365   5.211   6.298   7.343  0.0529 -0.2634 -0.1520
 1164ERGO    C215366   5.394   6.161   7.645  0.0172  0.0499 -0.3651
 1165ERGO   ROH15367  12.597   2.174   9.549  0.2588 -0.0013 -0.0436
 1165ERGO    R115368  12.737   2.170   9.304  0.2452  0.2048 -0.0553
 1165ERGO    R215369  12.625   2.077   9.070  0.3294  0.1329 -0.0637
 1165ERGO    R315370  12.698   2.321   8.975  0.0582  0.2347 -0.0217
 1165ERGO    R415371  12.690   2.147   8.738  0.4838  0.1933 -0.0219
 1165ERGO    R515372  12.857   2.272   8.802  0.2656  0.4406  0.1013
 1165ERGO    C115373  12.796   2.417   8.455  0.3191  0.3240  0.0419
 1165ERGO    C215374  12.587   2.289   8.077  0.2343 -0.1760  0.0533
 1166ERGO   ROH15375   3.263   3.648   9.369  0.2293  0.0033 -0.0302
 1166ERGO    R115376   3.137   3.679   9.118  0.2317 -0.0412 -0.0363
 1166ERGO    R215377   3.236   3.845   8.921  0.1766  0.0023 -0.0240
 1166ERGO    R315378   3.223   3.620   8.770  0.2746  0.0016 -0.0334
 1166ERGO    R415379   3.163   3.837   8.583 -0.1663 -0.0406  0.0473
 1166ERGO    R515380   3.042   3.660   8.618  0.0674 -0.1842  0.1566
 1166ERGO    C115381   3.108   3.621   8.245 -0.2740 -0.0663  0.0799
 1166ERGO    C215382   3.042   3.493   7.911  0.2263 -0.2480 -0.0958
 1167ERGO   ROH15383   2.655   8.359   6.604  0.0221  0.1119  0.0414
 1167ERGO    R115384   2.636   8.521   6.835  0.0071  0.0802  0.0616
 1167ERGO    R215385   2.404   8.543   6.983 -0.0055  0.0693  0.0366
 1167ERGO    R315386   2.567   8.471   7.189 -0.0308  0.0342  0.0495
 1167ERGO    R415387   2.411   8.696   7.293 -0.2521 -0.1575  0.1598
 1167ERGO    R515388   2.628   8.678   7.292 -0.2301  0.0103  0.2327
 1167ERGO    C115389   2.568   8.717   7.666 -0.4195 -0.3223  0.2435
 1167ERGO    C215390   2.694   8.825   8.016 -0.0988  0.1254  0.0937
 1168ERGO   ROH15391   5.682  15.529   6.451 -0.0237  0.1006  0.0008
 1168ERGO    R115392   5.661  15.367   6.682 -0.1357  0.1297  0.0120
 1168ERGO    R215393   5.702  15.465   6.937 -0.0439  0.1143  0.0063
 1168ERGO    R315394   5.456  15.361   6.983 -0.1244  0.3087  0.0232
 1168ERGO    R415395   5.558  15.429   7.249  0.0315  0.0315  0.0317
 1168ERGO    R515396   5.481  15.235   7.185 -0.1684  0.1465 -0.0731
 1168ERGO    C115397   5.242  15.310   7.473 -0.0001  0.1656  0.0624
 1168ERGO    C215398   5.083  15.392   7.805 -0.2177  0.2532 -0.0620
 1169ERGO   ROH15399  11.578  10.136   6.147 -0.0041 -0.2405 -0.1443
 1169ERGO    R115400  11.645  10.202   6.414  0.0114 -0.2467 -0.1464
 1169ERGO    R215401  11.587  10.448   6.526  0.0725 -0.2276 -0.1560
 1169ERGO    R315402  11.465  10.296   6.717  0.0340 -0.1894 -0.1505
 1169ERGO    R415403  11.627  10.490   6.867  0.2815 -0.3804 -0.1599
 1169ERGO    R515404  11.631  10.273   6.888  0.1023 -0.3945 -0.2404
 1169ERGO    C115405  11.536  10.372   7.244  0.3670 -0.4335 -0.1570
 1169ERGO    C215406  11.371  10.510   7.540 -0.1831  0.1895 -0.6253
 1170ERGO   ROH15407  16.881   0.274   5.932 -0.0698  0.1701 -0.0567
 1170ERGO    R115408  16.806   0.134   6.166  0.0680  0.0441 -0.0856
 1170ERGO    R215409  16.973   0.112   6.385  0.0286  0.3210 -0.0196
 1170ERGO    R315410  16.758   0.213   6.518 -0.2009 -0.0260 -0.1034
 1170ERGO    R415411  16.943   0.123   6.729 -0.0773  0.3758 -0.0314
 1170ERGO    R515412  16.732   0.068   6.707  0.0205 -0.0204 -0.0662
 1170ERGO    C115413  16.724   0.225   7.055 -0.3545  0.0820 -0.1168
 1170ERGO    C215414  16.704   0.450   7.332 -0.3271 -0.4060  0.0641
 1171ERGO   ROH15415   7.935  16.513   9.377 -0.5580 -0.1840 -0.0480
 1171ERGO    R115416   8.036  16.382   9.147 -0.4341 -0.0582 -0.0650
 1171ERGO    R215417   7.959  16.449   8.891 -0.0493  0.3032 -0.0892
 1171ERGO    R315418   8.226  16.475   8.851  0.0366  0.0367  0.2526
 1171ERGO    R415419   8.117  16.408   8.587  0.1939  0.7450 -0.0318
 1171ERGO    R515420   8.279  16.305   8.691 -0.0417  0.2940 -0.0677
 1171ERGO    C115421   8.460  16.409   8.372  0.4162  0.7520  0.3224
 1171ERGO    C215422   8.561  16.379   8.112  0.2752 -0.2503 -0.2372
 1172ERGO   ROH15423  13.828   9.333   9.750  0.0396  0.3188 -0.0124
 1172ERGO    R115424  13.833   9.283   9.472 -0.1130  0.1285  0.0172
 1172ERGO    R215425  13.603   9.254   9.321 -0.1992  0.2376  0.1254
 1172ERGO    R315426  13.717   9.450   9.170 -0.0760  0.0371 -0.0481
 1172ERGO    R415427  13.563   9.289   8.980 -0.3067  0.0588  0.1185
 1172ERGO    R515428  13.774   9.341   8.965 -0.2627 -0.1480 -0.0046
 1172ERGO    C115429  13.646   9.493   8.639 -0.2538 -0.2333 -0.0484
 1172ERGO    C215430  13.506   9.573   8.384  0.1213  0.0371 -0.3694
 1173ERGO   ROH15431  12.139   9.935   5.952 -0.1025  0.0524  0.0815
 1173ERGO    R115432  12.016   9.996   6.200 -0.0033  0.1568  0.1055
 1173ERGO    R215433  11.970   9.805   6.394 -0.1376  0.1937  0.1095
 1173ERGO    R315434  12.108   9.978   6.552  0.0453  0.0682  0.0892
 1173ERGO    R415435  11.981   9.792   6.739 -0.1250  0.1955  0.1089
 1173ERGO    R515436  11.967  10.009   6.743  0.0873  0.2131  0.0995
 1173ERGO    C115437  12.117   9.946   7.088  0.0542  0.0788  0.0894
 1173ERGO    C215438  12.054   9.827   7.378  0.2342 -0.1455  0.1731
 1174ERGO   ROH15439  16.807   7.456   9.650  0.2065 -0.2059 -0.2749
 1174ERGO    R115440  16.750   7.554   9.391  0.1824 -0.1037 -0.2313
 1174ERGO    R215441  16.782   7.820   9.321  0.1139 -0.0639 -0.1117
 1174ERGO    R315442  16.936   7.716   9.122  0.1420  0.0654 -0.1586
 1174ERGO    R415443  16.788   7.936   8.996 -0.0258 -0.0099 -0.0957
 1174ERGO    R515444  16.797   7.729   8.927  0.0941  0.0055 -0.1288
 1174ERGO    C115445  16.936   7.907   8.620 -0.0810  0.1429 -0.1304
 1174ERGO    C215446  17.007   8.221   8.523  0.0938 -0.1656 -0.0920
 1175ERGO   ROH15447  14.432  14.402   6.301  0.0856  0.2641 -0.0887
 1175ERGO    R115448  14.669  14.440   6.451  0.0868  0.1252 -0.0546
 1175ERGO    R215449  14.674  14.583   6.688  0.1366  0.1244 -0.0593
 1175ERGO    R315450  14.787  14.356   6.784 -0.0093  0.0602 -0.0354
 1175ERGO    R415451  14.885  14.566   6.961 -0.0976 -0.0159  0.1178
 1175ERGO    R515452  15.006  14.421   6.853 -0.0448 -0.0183  0.1708
 1175ERGO    C115453  15.114  14.343   7.210 -0.3708 -0.1579  0.2434
 1175ERGO    C215454  15.147  14.145   7.479  0.0933 -0.0405 -0.3862
 1176ERGO   ROH15455   3.283   4.631   6.224  0.0422  0.1257 -0.1138
 1176ERGO    R115456   3.310   4.778   6.464 -0.1221  0.0157 -0.0258
 1176ERGO    R215457   3.197   4.695   6.703 -0.0270 -0.2575 -0.0705
 1176ERGO    R315458   3.452   4.720   6.794 -0.0504 -0.0219 -0.0630
 1176ERGO    R415459   3.298   4.630   7.027 -0.0117  0.0492 -0.0103
 1176ERGO    R515460   3.427   4.805   7.017 -0.1256  0.1280 -0.1275
 1176ERGO    C115461   3.596   4.615   7.301 -0.0248  0.4490  0.0318
 1176ERGO    C215462   3.848   4.690   7.524  0.0525 -0.3130  0.3885
 1177ERGO   ROH15463   0.753  12.848   9.536 -0.0016 -0.2285 -0.1344
 1177ERGO    R115464   0.903  12.897   9.301 -0.0115 -0.2258 -0.1400
 1177ERGO    R215465   0.831  12.796   9.055 -0.2194  0.0660 -0.2037
 1177ERGO    R315466   0.845  13.057   8.979  0.0876  0.1148  0.0057
 1177ERGO    R415467   0.902  12.905   8.735 -0.2457  0.2327 -0.1534
 1177ERGO    R515468   1.025  13.063   8.821  0.0149  0.0014 -0.0847
 1177ERGO    C115469   0.957  13.214   8.478  0.0271  0.3756  0.0725
 1177ERGO    C215470   1.016  13.197   8.195  0.1200  0.0591  0.0504
 1178ERGO   ROH15471   1.950   1.836   5.712 -0.1833  0.0308 -0.1633
 1178ERGO    R115472   1.776   1.768   5.926 -0.2962 -0.0223 -0.2692
 1178ERGO    R215473   1.648   1.524   5.941  0.0280 -0.2005 -0.1815
 1178ERGO    R315474   1.764   1.515   6.186 -0.1819  0.1872 -0.0586
 1178ERGO    R415475   1.563   1.301   6.191  0.2987 -0.2745 -0.1543
 1178ERGO    R515476   1.585   1.463   6.336 -0.2115 -0.1503 -0.2095
 1178ERGO    C115477   1.624   1.162   6.567  0.2592  0.0463 -0.0233
 1178ERGO    C215478   1.620   0.752   6.583 -0.2073 -0.3997 -0.0508
 1179ERGO   ROH15479  18.209  13.128   6.196 -0.3402  0.0637  0.0195
 1179ERGO    R115480  18.146  13.073   6.466 -0.0256  0.1468  0.1125
 1179ERGO    R215481  18.193  12.827   6.582 -0.0963  0.1168  0.0638
 1179ERGO    R315482  18.329  12.975   6.766  0.2928  0.0045 -0.1201
 1179ERGO    R415483  18.237  12.738   6.913 -0.0314  0.2373  0.0889
 1179ERGO    R515484  18.204  12.947   6.968  0.3681  0.3449 -0.0132
 1179ERGO    C115485  18.390  12.825   7.278  0.3716  0.2020 -0.0690
 1179ERGO    C215486  18.447  12.548   7.491 -0.3197  0.1042  0.2248
 1180ERGO   ROH15487   7.176   8.975   6.301 -0.1373 -0.1977  0.1640
 1180ERGO    R115488   7.063   9.020   6.557 -0.1540 -0.1623  0.1510
 1180ERGO    R215489   7.211   9.006   6.790 -0.1852 -0.2092  0.1708
 1180ERGO    R315490   7.112   9.256   6.830 -0.1110 -0.1776  0.1558
 1180ERGO    R415491   7.138   9.142   7.099 -0.2533 -0.2084  0.1539
 1180ERGO    R515492   6.958   9.230   7.012 -0.1880 -0.1372  0.0951
 1180ERGO    C115493   7.002   9.456   7.316 -0.2234 -0.1782  0.1299
 1180ERGO    C215494   6.998   9.735   7.459  0.2643  0.2882  0.1970
 1181ERGO   ROH15495   2.769  15.188   6.065  0.0205 -0.3193  0.0107
 1181ERGO    R115496   2.506  15.238   6.158 -0.0034 -0.1611 -0.1365
 1181ERGO    R215497   2.397  15.106   6.375 -0.2351 -0.1558 -0.2471
 1181ERGO    R315498   2.353  15.358   6.466 -0.1092 -0.1537 -0.1913
 1181ERGO    R415499   2.248  15.185   6.677 -0.0749 -0.1483 -0.1693
 1181ERGO    R515500   2.142  15.346   6.577 -0.0646 -0.0977 -0.0994
 1181ERGO    C115501   2.121  15.469   6.938  0.1365 -0.1420 -0.0718
 1181ERGO    C215502   2.088  15.396   7.269  0.3359 -0.2513  0.3516
 1182ERGO   ROH15503   2.574  11.769   9.850 -0.0060  0.0952  0.0203
 1182ERGO    R115504   2.750  11.783   9.629 -0.0711  0.2473 -0.0218
 1182ERGO    R215505   2.740  11.603   9.420  0.0998  0.1769  0.0373
 1182ERGO    R315506   2.719  11.828   9.269 -0.2044  0.1098 -0.0310
 1182ERGO    R415507   2.766  11.613   9.075  0.2411  0.1144  0.0445
 1182ERGO    R515508   2.881  11.798   9.095 -0.0647  0.3189  0.0503
 1182ERGO    C115509   2.762  11.830   8.733  0.0377  0.0150 -0.0152
 1182ERGO    C215510   2.582  12.025   8.539  0.0633  0.0809 -0.1452
 1183ERGO   ROH15511   2.813  16.417   9.246  0.1957 -0.1529 -0.0424
 1183ERGO    R115512   2.908  16.569   9.026  0.3190 -0.1974 -0.0206
 1183ERGO    R215513   3.028  16.453   8.806 -0.0356 -0.2950 -0.1681
 1183ERGO    R315514   2.838  16.591   8.670  0.1119  0.1264  0.0357
 1183ERGO    R415515   3.045  16.532   8.470 -0.2526 -0.4231 -0.2107
 1183ERGO    R515516   2.962  16.728   8.517  0.2640 -0.2012 -0.1489
 1183ERGO    C115517   2.876  16.708   8.146 -0.2405 -0.1022 -0.0442
 1183ERGO    C215518   2.965  16.928   7.800 -0.0145  0.0029  0.3390
 1184ERGO   ROH15519   2.341  10.357   9.536  0.0332  0.1168 -0.1377
 1184ERGO    R115520   2.100  10.313   9.394 -0.0013  0.1509 -0.0906
 1184ERGO    R215521   2.054  10.420   9.143  0.0036  0.0758 -0.1238
 1184ERGO    R315522   2.003  10.161   9.078 -0.0973  0.0702 -0.0228
 1184ERGO    R415523   1.976  10.308   8.825  0.1368 -0.0392 -0.1165
 1184ERGO    R515524   1.828  10.174   8.914  0.0088  0.0853 -0.1366
 1184ERGO    C115525   1.883  10.000   8.579  0.1197 -0.1115 -0.0173
 1184ERGO    C215526   1.979   9.951   8.194  0.1393 -0.1841 -0.0318
 1185ERGO   ROH15527   1.183   7.403   9.384  0.1030 -0.0741  0.0048
 1185ERGO    R115528   1.029   7.308   9.166 -0.0358  0.0877  0.0299
 1185ERGO    R215529   0.986   7.457   8.937  0.0392  0.1541  0.0585
 1185ERGO    R315530   1.085   7.235   8.814 -0.1854  0.0802  0.0070
 1185ERGO    R415531   0.938   7.378   8.604  0.0038  0.3082  0.0265
 1185ERGO    R515532   0.912   7.169   8.662 -0.2362  0.3171 -0.0411
 1185ERGO    C115533   1.002   7.124   8.294 -0.2277  0.3284 -0.0404
 1185ERGO    C215534   0.796   6.974   8.022 -0.0938  0.0053 -0.2718
 1186ERGO   ROH15535  18.541   8.868   9.305 -0.0830 -0.1521  0.0934
 1186ERGO    R115536  18.519   8.894   9.024 -0.0256  0.0165  0.1033
 1186ERGO    R215537  18.435   8.687   8.862  0.1884  0.0516 -0.0576
 1186ERGO    R315538  18.254   8.871   8.776  0.0597 -0.0378  0.0156
 1186ERGO    R415539  18.309   8.707   8.540  0.3134  0.2008 -0.0984
 1186ERGO    R515540  18.323   8.924   8.553  0.1141  0.2072  0.0866
 1186ERGO    C115541  18.066   8.891   8.273  0.2652  0.2037 -0.0533
 1186ERGO    C215542  17.683   9.094   8.084 -0.3033  0.2629  0.0838
 1187ERGO   ROH15543   3.869  16.935   5.918 -0.0882  0.1560 -0.0179
 1187ERGO    R115544   3.880  16.868   6.193  0.0490  0.2279 -0.0052
 1187ERGO    R215545   3.790  17.039   6.392 -0.1373  0.1557 -0.0272
 1187ERGO    R315546   3.640  16.824   6.464  0.1533 -0.0262  0.0486
 1187ERGO    R415547   3.669  16.980   6.710 -0.0906  0.1294 -0.0143
 1187ERGO    R515548   3.717  16.769   6.684  0.2089  0.1788  0.0833
 1187ERGO    C115549   3.459  16.744   6.964  0.2094 -0.0566  0.0645
 1187ERGO    C215550   3.324  16.793   7.224 -0.3547 -0.3251 -0.0354
 1188ERGO   ROH15551  13.028   0.202   6.034  0.1495  0.0862  0.0428
 1188ERGO    R115552  12.949   0.235   6.304  0.0308  0.1935 -0.0051
 1188ERGO    R215553  13.103   0.146   6.517 -0.1565  0.1056  0.0870
 1188ERGO    R315554  13.079   0.404   6.599  0.0059  0.1375  0.0415
 1188ERGO    R415555  13.137   0.254   6.843 -0.3920  0.0761  0.1234
 1188ERGO    R515556  12.970   0.390   6.811 -0.2380  0.2437 -0.0653
 1188ERGO    C115557  13.134   0.559   7.110 -0.3767  0.0889  0.1019
 1188ERGO    C215558  13.324   0.626   7.377 -0.0327  0.1662 -0.1617
 1189ERGO   ROH15559   4.787  18.322   9.392 -0.2525 -0.3506  0.2249
 1189ERGO    R115560   4.817  18.065   9.277 -0.0835 -0.2623  0.0641
 1189ERGO    R215561   4.727  18.004   9.024  0.0482 -0.1375 -0.0133
 1189ERGO    R315562   4.984  17.921   8.987  0.1026  0.0093  0.0334
 1189ERGO    R415563   4.861  17.906   8.720  0.0947 -0.2664  0.0482
 1189ERGO    R515564   4.967  17.746   8.825  0.2103 -0.1214  0.1600
 1189ERGO    C115565   5.180  17.772   8.510  0.1728 -0.2034  0.1279
 1189ERGO    C215566   5.412  17.802   8.163 -0.1605  0.2334  0.0039
 1190ERGO   ROH15567   7.557   5.354   6.039 -0.1716  0.0163  0.0430
 1190ERGO    R115568   7.405   5.353   6.278 -0.1808  0.0697  0.0385
 1190ERGO    R215569   7.413   5.143   6.458 -0.2883  0.0468  0.0244
 1190ERGO    R315570   7.475   5.340   6.635 -0.1951  0.0054  0.0374
 1190ERGO    R415571   7.336   5.137   6.794 -0.3306  0.0939  0.0153
 1190ERGO    R515572   7.286   5.349   6.782 -0.2024  0.1183  0.0146
 1190ERGO    C115573   7.349   5.319   7.157 -0.2676  0.0824  0.0221
 1190ERGO    C215574   7.364   5.375   7.615 -0.1235  0.2486  0.2617
 1191ERGO   ROH15575   3.458   1.162   6.097 -0.2777  0.1517 -0.2481
 1191ERGO    R115576   3.436   1.210   6.375 -0.1939  0.1621 -0.2432
 1191ERGO    R215577   3.192   1.225   6.505 -0.1531  0.1233 -0.1631
 1191ERGO    R315578   3.302   1.034   6.665 -0.0645  0.1524 -0.1885
 1191ERGO    R415579   3.191   1.232   6.851 -0.0096  0.1609 -0.1626
 1191ERGO    R515580   3.396   1.157   6.848 -0.0012  0.1834 -0.2405
 1191ERGO    C115581   3.294   1.057   7.202  0.1572  0.2101 -0.1862
 1191ERGO    C215582   3.235   1.309   7.483 -0.3571 -0.1287  0.3748
 1192ERGO   ROH15583   0.456   0.862   5.840  0.0328 -0.1910  0.0644
 1192ERGO    R115584   0.591   0.920   6.082 -0.1597 -0.3114  0.2027
 1192ERGO    R215585   0.711   1.165   6.131  0.3458 -0.5432  0.1570
 1192ERGO    R315586   0.555   1.161   6.353  0.0191  0.0004 -0.0410
 1192ERGO    R415587   0.781   1.333   6.425  0.4370 -0.5797  0.1570
 1192ERGO    R515588   0.711   1.159   6.535 -0.2057 -0.3488  0.1664
 1192ERGO    C115589   0.675   1.427   6.804  0.1834 -0.0906 -0.0289
 1192ERGO    C215590   0.645   1.585   7.092 -0.0100  0.0380  0.2308
 1193ERGO   ROH15591   8.279  10.986   6.434 -0.1080  0.0221  0.1246
 1193ERGO    R115592   8.392  10.841   6.649 -0.1596 -0.0344  0.1137
 1193ERGO    R215593   8.577  10.952   6.822 -0.0939 -0.1237  0.0999
 1193ERGO    R315594   8.401  10.869   7.012 -0.1179 -0.0432  0.1136
 1193ERGO    R415595   8.626  10.982   7.163  0.0032 -0.2588  0.0989
 1193ERGO    R515596   8.539  10.783   7.188 -0.1449 -0.2008  0.0598
 1193ERGO    C115597   8.489  10.921   7.540  0.0372 -0.2617  0.1113
 1193ERGO    C215598   8.488  10.953   7.803 -0.1819  0.1075 -0.0283
 1194ERGO   ROH15599  11.006   6.209   6.250 -0.1344 -0.1574  0.0766
 1194ERGO    R115600  11.024   6.055   6.487  0.0751 -0.1091  0.0954
 1194ERGO    R215601  11.190   6.124   6.696  0.0173  0.1207  0.0758
 1194ERGO    R315602  10.960   6.107   6.841  0.0443 -0.1373  0.0924
 1194ERGO    R415603  11.170   6.157   7.040 -0.0240  0.2597  0.0600
 1194ERGO    R515604  11.025   5.995   7.042  0.2095  0.0537  0.1446
 1194ERGO    C115605  10.943   6.161   7.376 -0.0227  0.0985  0.0663
 1194ERGO    C215606  11.080   6.293   7.593 -0.3987  0.4515 -0.0933
 1195ERGO   ROH15607  16.071   4.211   9.420  0.3378 -0.3675  0.1583
 1195ERGO    R115608  16.100   4.322   9.161  0.2262 -0.1339  0.2436
 1195ERGO    R215609  16.291   4.233   8.982  0.0912 -0.0329  0.0520
 1195ERGO    R315610  16.076   4.202   8.818 -0.0125  0.1973  0.1385
 1195ERGO    R415611  16.285   4.316   8.646  0.1401 -0.2632 -0.0076
 1195ERGO    R515612  16.084   4.394   8.674  0.2653  0.0913 -0.0016
 1195ERGO    C115613  16.081   4.335   8.297  0.0713 -0.1813  0.0388
 1195ERGO    C215614  15.921   4.251   7.944  0.3463  0.1690 -0.1507
 1196ERGO   ROH15615  13.931   9.764   9.560 -0.2372  0.2275  0.0373
 1196ERGO    R115616  13.903   9.885   9.305 -0.1842  0.1328 -0.0143
 1196ERGO    R215617  14.115   9.911   9.128 -0.1323  0.1196  0.0438
 1196ERGO    R315618  13.946   9.782   8.958 -0.0498  0.0201  0.0343
 1196ERGO    R415619  14.135   9.922   8.783 -0.0110 -0.0031  0.0467
 1196ERGO    R515620  13.918   9.934   8.776 -0.0160 -0.0494 -0.0330
 1196ERGO    C115621  13.988   9.807   8.423  0.1370 -0.1680  0.0394
 1196ERGO    C215622  13.961   9.595   8.170  0.0738  0.0179  0.1589
 1197ERGO   ROH15623  15.398   8.485   9.647 -0.0537 -0.5375  0.0539
 1197ERGO    R115624  15.516   8.462   9.391 -0.1499 -0.2695 -0.0172
 1197ERGO    R215625  15.670   8.245   9.316  0.2115  0.0215 -0.1432
 1197ERGO    R315626  15.494   8.233   9.109  0.1146 -0.2584 -0.0502
 1197ERGO    R415627  15.743   8.121   9.002  0.2588  0.1504 -0.1840
 1197ERGO    R515628  15.627   8.284   8.916 -0.0613 -0.0295 -0.1192
 1197ERGO    C115629  15.620   8.038   8.624  0.1954 -0.0374 -0.1203
 1197ERGO    C215630  15.600   8.009   8.371  0.0946  0.0649 -0.0295
 1198ERGO   ROH15631  14.150   8.190   9.227 -0.1132  0.1937  0.0861
 1198ERGO    R115632  14.168   8.306   8.970 -0.0032  0.2878  0.1370
 1198ERGO    R215633  14.057   8.188   8.746  0.2311  0.2911  0.0259
 1198ERGO    R315634  13.936   8.430   8.718  0.0976  0.2253  0.0085
 1198ERGO    R415635  13.863   8.282   8.476  0.1348  0.1332  0.0378
 1198ERGO    R515636  13.955   8.480   8.485  0.0360  0.1915 -0.0101
 1198ERGO    C115637  13.636   8.563   8.293 -0.0466 -0.0206  0.0282
 1198ERGO    C215638  13.360   8.638   8.255 -0.1251  0.1769 -0.0360
 1199ERGO   ROH15639  11.540  11.387   5.937 -0.1860  0.0347  0.0339
 1199ERGO    R115640  11.481  11.274   6.190 -0.1569  0.0517  0.0480
 1199ERGO    R215641  11.467  11.426   6.421 -0.1203  0.0648  0.0396
 1199ERGO    R315642  11.221  11.311   6.442 -0.1219  0.0754  0.0815
 1199ERGO    R415643  11.258  11.456   6.695 -0.1245  0.1858  0.0236
 1199ERGO    R515644  11.206  11.245   6.672 -0.1262  0.1739  0.1117
 1199ERGO    C115645  10.906  11.366   6.874 -0.1288  0.2664  0.0536
 1199ERGO    C215646  10.694  11.387   7.076 -0.0037 -0.4665 -0.4126
 1200ERGO   ROH15647   1.609  10.856   6.296  0.0596 -0.1246 -0.0369
 1200ERGO    R115648   1.480  10.768   6.533  0.1023 -0.2433 -0.0564
 1200ERGO    R215649   1.605  10.771   6.779  0.0460 -0.0798 -0.0270
 1200ERGO    R315650   1.386  10.915   6.852 -0.1316 -0.3124 -0.0924
 1200ERGO    R415651   1.508  10.831   7.106 -0.0064 -0.0221 -0.0535
 1200ERGO    R515652   1.301  10.800   7.045  0.0257 -0.3156 -0.0242
 1200ERGO    C115653   1.246  11.001   7.364 -0.2036 -0.2068 -0.1304
 1200ERGO    C215654   1.225  11.046   7.571 -0.0702 -0.1521  0.0604
 1201ERGO   ROH15655  13.951   6.545   9.771  0.0855 -0.2337 -0.1037
 1201ERGO    R115656  14.061   6.567   9.511  0.0226  0.0567 -0.1089
 1201ERGO    R215657  14.071   6.354   9.336  0.3005  0.1591 -0.2185
 1201ERGO    R315658  13.942   6.527   9.170  0.0339  0.0658 -0.1149
 1201ERGO    R415659  13.953   6.274   9.021  0.5057  0.1799 -0.3027
 1201ERGO    R515660  14.021   6.469   8.951  0.1870  0.3603 -0.1448
 1201ERGO    C115661  13.763   6.390   8.682  0.3750  0.1044 -0.2546
 1201ERGO    C215662  13.637   6.425   8.285 -0.0131  0.1008  0.3042
 1202ERGO   ROH15663   7.947   4.363   6.299  0.2278  0.0511 -0.0830
 1202ERGO    R115664   8.068   4.325   6.552 -0.0051 -0.0748  0.0122
 1202ERGO    R215665   8.202   4.527   6.685  0.0365 -0.1926  0.1470
 1202ERGO    R315666   8.031   4.464   6.887 -0.1749 -0.0959  0.0034
 1202ERGO    R415667   8.214   4.659   7.004 -0.1423 -0.2191  0.1668
 1202ERGO    R515668   8.168   4.461   7.083 -0.3358 -0.1967  0.1192
 1202ERGO    C115669   8.061   4.676   7.379 -0.4446 -0.1436  0.0435
 1202ERGO    C215670   8.072   4.818   7.705  0.3680  0.2490 -0.0256
 1203ERGO   ROH15671   5.397  18.539   6.161  0.0961  0.2153  0.0521
 1203ERGO    R115672   5.260  18.477   6.401  0.0657  0.1247  0.0118
 1203ERGO    R215673   5.354  18.291   6.583  0.1116  0.1532  0.0174
 1203ERGO    R315674   5.329  18.497   6.758 -0.0340  0.1244  0.0314
 1203ERGO    R415675   5.251  18.260   6.911  0.1389  0.0558  0.0171
 1203ERGO    R515676   5.135  18.442   6.887  0.0063 -0.0250  0.0313
 1203ERGO    C115677   5.167  18.436   7.267  0.0182 -0.0279  0.0300
 1203ERGO    C215678   5.208  18.359   7.547 -0.4217 -0.0434 -0.2355
 1204ERGO   ROH15679  12.629  18.429   9.369  0.0466  0.1725 -0.1355
 1204ERGO    R115680  12.509  18.417   9.113  0.0107  0.2351 -0.1219
 1204ERGO    R215681  12.641  18.491   8.882  0.0894 -0.0145 -0.1593
 1204ERGO    R315682  12.570  18.242   8.800 -0.2340  0.0437 -0.0667
 1204ERGO    R415683  12.563  18.405   8.557  0.1544 -0.0644 -0.1616
 1204ERGO    R515684  12.402  18.281   8.634 -0.0829  0.2119 -0.1862
 1204ERGO    C115685  12.450  18.122   8.290 -0.1114 -0.0389 -0.0760
 1204ERGO    C215686  12.505  17.778   8.084 -0.0328  0.0209 -0.0318
 1205ERGO   ROH15687   6.336   1.045   9.500 -0.1198 -0.3119  0.0437
 1205ERGO    R115688   6.331   1.109   9.224 -0.1854 -0.2286  0.0638
 1205ERGO    R215689   6.415   0.932   9.029 -0.1538 -0.1384 -0.0029
 1205ERGO    R315690   6.168   0.979   8.926 -0.1861 -0.1937  0.0482
 1205ERGO    R415691   6.319   0.861   8.705 -0.0901  0.1674 -0.0922
 1205ERGO    R515692   6.210   1.049   8.701 -0.2262  0.0995  0.1257
 1205ERGO    C115693   6.031   0.864   8.419 -0.0835  0.2935 -0.0960
 1205ERGO    C215694   5.839   0.822   8.123  0.2229  0.2549 -0.0195
 1206ERGO   ROH15695  14.444   8.954   6.232 -0.0505  0.0952  0.1675
 1206ERGO    R115696  14.405   9.045   6.498  0.0201 -0.0754  0.2382
 1206ERGO    R215697  14.480   8.897   6.718  0.2125 -0.1565  0.1228
 1206ERGO    R315698  14.615   9.123   6.784  0.1103 -0.1125  0.1819
 1206ERGO    R415699  14.700   8.926   6.983  0.1968 -0.1226  0.1317
 1206ERGO    R515700  14.618   9.123   7.024  0.1082 -0.1708  0.1809
 1206ERGO    C115701  14.955   9.155   7.199  0.0918 -0.0617  0.1925
 1206ERGO    C215702  15.241   9.315   7.299  0.1306 -0.1021 -0.1789
 1207ERGO   ROH15703  12.013  12.193   6.650  0.1629 -0.2471  0.0166
 1207ERGO    R115704  11.899  12.089   6.887  0.0552 -0.1187  0.0227
 1207ERGO    R215705  11.989  11.856   7.006 -0.0777 -0.1204  0.1238
 1207ERGO    R315706  12.013  12.015   7.225 -0.0644 -0.0578  0.0770
 1207ERGO    R415707  12.084  11.746   7.319 -0.0004 -0.0219  0.1349
 1207ERGO    R515708  11.934  11.879   7.406 -0.0076 -0.0245  0.1275
 1207ERGO    C115709  12.162  11.832   7.708  0.0570  0.0942  0.0974
 1207ERGO    C215710  12.377  11.538   7.880  0.1537  0.3309 -0.2534
 1208ERGO   ROH15711  11.867  16.669   6.347  0.2292  0.0137  0.1751
 1208ERGO    R115712  11.971  16.694   6.609  0.1120 -0.2590  0.2521
 1208ERGO    R215713  11.890  16.893   6.783  0.4042 -0.1195  0.2408
 1208ERGO    R315714  11.839  16.683   6.948 -0.1444 -0.0618  0.1608
 1208ERGO    R415715  11.891  16.910   7.128  0.3975 -0.2474  0.2467
 1208ERGO    R515716  11.990  16.715   7.132 -0.0850 -0.5034  0.1948
 1208ERGO    C115717  11.843  16.722   7.484 -0.1215 -0.2678  0.1749
 1208ERGO    C215718  11.573  16.872   7.637 -0.0594  0.0504 -0.1853
 1209ERGO   ROH15719  10.999  14.324   6.744 -0.0735  0.0217 -0.0122
 1209ERGO    R115720  10.924  14.452   6.986  0.0078  0.0052  0.0223
 1209ERGO    R215721  10.767  14.679   6.991  0.0956  0.0657  0.0868
 1209ERGO    R315722  10.612  14.529   7.157  0.0603  0.0926  0.0780
 1209ERGO    R415723  10.615  14.795   7.279  0.0315  0.1114  0.0349
 1209ERGO    R515724  10.667  14.608   7.377  0.0112  0.1285  0.0770
 1209ERGO    C115725  10.382  14.722   7.603 -0.0390  0.1633 -0.0036
 1209ERGO    C215726  10.280  14.635   7.925  0.0649  0.0826 -0.1131
 1210ERGO   ROH15727  11.807   6.958   9.765  0.1148  0.2310 -0.1227
 1210ERGO    R115728  11.854   7.025   9.494  0.3794  0.1683 -0.0956
 1210ERGO    R215729  12.078   6.940   9.356  0.2746 -0.2886 -0.0013
 1210ERGO    R315730  11.894   6.844   9.181  0.1453  0.1128 -0.0961
 1210ERGO    R415731  12.136   6.885   9.020  0.3213 -0.3819  0.0220
 1210ERGO    R515732  11.938   6.964   8.978  0.4983  0.0467 -0.0670
 1210ERGO    C115733  11.998   6.762   8.660  0.2272 -0.0593 -0.0533
 1210ERGO    C215734  12.114   6.758   8.368 -0.3441  0.0203  0.2166
 1211ERGO   ROH15735   8.165   3.216   6.030 -0.0178 -0.0364  0.0283
 1211ERGO    R115736   8.266   3.076   6.255  0.1008 -0.0007 -0.0016
 1211ERGO    R215737   8.107   2.913   6.412  0.1537  0.1164  0.1785
 1211ERGO    R315738   8.299   2.729   6.357  0.0370  0.0195  0.0885
 1211ERGO    R415739   8.155   2.618   6.586  0.0283  0.0436  0.0919
 1211ERGO    R515740   8.370   2.650   6.572  0.0424 -0.0755  0.0514
 1211ERGO    C115741   8.363   2.274   6.637 -0.1543 -0.0898 -0.0430
 1211ERGO    C215742   8.632   2.039   6.810  0.1378  0.0785  0.0082
 1212ERGO   ROH15743   5.310   1.177   6.168  0.3818 -0.0356  0.0358
 1212ERGO    R115744   5.353   1.159   6.448  0.2856  0.0350  0.0560
 1212ERGO    R215745   5.293   1.366   6.621  0.1613  0.0556 -0.0064
 1212ERGO    R315746   5.148   1.174   6.748  0.1703  0.0383 -0.0234
 1212ERGO    R415747   5.212   1.370   6.957  0.1705  0.0096 -0.0039
 1212ERGO    R515748   5.251   1.155   6.964  0.1747  0.0130 -0.0303
 1212ERGO    C115749   5.030   1.192   7.272  0.1842 -0.0336 -0.0184
 1212ERGO    C215750   4.734   1.125   7.445  0.2466  0.0906 -0.1359
 1213ERGO   ROH15751   0.745   4.877   9.059 -0.0384  0.4076 -0.0687
 1213ERGO    R115752   0.788   5.018   8.817 -0.0373  0.3061 -0.1287
 1213ERGO    R215753   0.973   4.937   8.629  0.0882  0.3222 -0.0166
 1213ERGO    R315754   0.760   4.947   8.461  0.1425  0.0944 -0.1021
 1213ERGO    R415755   0.991   4.921   8.284  0.2128  0.0669 -0.0000
 1213ERGO    R515756   0.837   5.074   8.273  0.1458 -0.0140 -0.1722
 1213ERGO    C115757   0.801   4.920   7.926  0.3363 -0.2957 -0.0707
 1213ERGO    C215758   0.533   4.897   7.605 -0.1356 -0.2104  0.0947
 1214ERGO   ROH15759   9.383  11.467   9.648 -0.1304 -0.1289  0.0108
 1214ERGO    R115760   9.380  11.245   9.472 -0.2414 -0.1332  0.0160
 1214ERGO    R215761   9.182  11.208   9.283 -0.1981  0.0263 -0.0693
 1214ERGO    R315762   9.393  11.194   9.112 -0.1341 -0.1496  0.0230
 1214ERGO    R415763   9.158  11.133   8.947 -0.1001 -0.0025 -0.0694
 1214ERGO    R515764   9.338  11.012   8.966 -0.1981 -0.1281  0.0250
 1214ERGO    C115765   9.342  11.076   8.590  0.0171 -0.1845  0.0170
 1214ERGO    C215766   9.421  11.138   8.337  0.3396  0.0479  0.0572
 1215ERGO   ROH15767  14.637   7.666   6.256  0.1053 -0.1172 -0.0358
 1215ERGO    R115768  14.657   7.625   6.536  0.0815 -0.0272 -0.0192
 1215ERGO    R215769  14.857   7.471   6.649  0.0432 -0.0411  0.0464
 1215ERGO    R315770  14.902   7.696   6.796  0.0881  0.0028 -0.0363
 1215ERGO    R415771  14.991   7.475   6.968 -0.0018  0.0576  0.0635
 1215ERGO    R515772  14.848   7.631   7.021  0.0412  0.1158 -0.0200
 1215ERGO    C115773  15.111   7.687   7.291  0.0144  0.1563 -0.0042
 1215ERGO    C215774  15.140   7.696   7.573  0.1250 -0.1233 -0.3071
 1216ERGO   ROH15775   5.406   7.624   6.290  0.2826  0.0472  0.3479
 1216ERGO    R115776   5.172   7.719   6.418  0.1977 -0.0643  0.2786
 1216ERGO    R215777   5.104   7.647   6.676  0.2114 -0.0113  0.3021
 1216ERGO    R315778   5.093   7.916   6.714  0.0244 -0.0018  0.1904
 1216ERGO    R415779   4.982   7.803   6.960  0.2364  0.0291  0.2902
 1216ERGO    R515780   4.889   7.952   6.832  0.0601 -0.1010  0.2750
 1216ERGO    C115781   4.902   8.147   7.160  0.0755  0.0615  0.1783
 1216ERGO    C215782   4.877   8.272   7.544  0.2832 -0.0350  0.0134
 1217ERGO   ROH15783  14.564   9.984   6.114  0.0526 -0.0715 -0.1073
 1217ERGO    R115784  14.721   9.970   6.349 -0.0548 -0.1739 -0.0379
 1217ERGO    R215785  14.980   9.873   6.350 -0.0250 -0.1246  0.0300
 1217ERGO    R315786  15.035  10.113   6.466 -0.1394 -0.1740  0.1845
 1217ERGO    R415787  15.272   9.949   6.518  0.1428  0.0753 -0.3445
 1217ERGO    R515788  15.154  10.056   6.666  0.2409 -0.2223 -0.0559
 1217ERGO    C115789  15.494  10.219   6.724  0.1331  0.1452 -0.4175
 1217ERGO    C215790  15.633  10.440   6.669  0.1541 -0.1182  0.1337
 1218ERGO   ROH15791  18.029   8.452   6.402  0.2003 -0.0252  0.1142
 1218ERGO    R115792  18.039   8.447   6.685  0.1117 -0.0803  0.1171
 1218ERGO    R215793  18.263   8.367   6.825  0.1295  0.0565  0.1726
 1218ERGO    R315794  18.235   8.609   6.946 -0.0925  0.0109  0.2162
 1218ERGO    R415795  18.357   8.437   7.150  0.2258  0.1287  0.1292
 1218ERGO    R515796  18.175   8.556   7.172  0.0940 -0.0890  0.2434
 1218ERGO    C115797  18.385   8.705   7.453  0.0735  0.1279  0.1448
 1218ERGO    C215798  18.320   8.792   7.814 -0.0196  0.0856  0.0449
 1219ERGO   ROH15799   4.162  15.412   6.786  0.0837  0.0596 -0.1812
 1219ERGO    R115800   4.157  15.656   6.929  0.0381  0.0950 -0.2427
 1219ERGO    R215801   4.282  15.689   7.173 -0.1751  0.1074 -0.1322
 1219ERGO    R315802   4.401  15.899   7.047  0.0162  0.0356 -0.0731
 1219ERGO    R415803   4.402  15.972   7.331 -0.1307  0.0570 -0.0761
 1219ERGO    R515804   4.324  16.092   7.166  0.0377  0.0854 -0.1384
 1219ERGO    C115805   4.584  16.334   7.304  0.0747 -0.0394  0.0122
 1219ERGO    C215806   4.662  16.550   7.609 -0.2336 -0.0637 -0.1729
 1220ERGO   ROH15807   0.604  14.749   6.011  0.2518 -0.1245 -0.0186
 1220ERGO    R115808   0.539  14.778   6.285  0.4580  0.1017  0.0124
 1220ERGO    R215809   0.403  14.583   6.427 -0.1664  0.5325  0.0696
 1220ERGO    R315810   0.616  14.604   6.595  0.0085 -0.1873 -0.0325
 1220ERGO    R415811   0.384  14.580   6.772  0.0023  0.6289  0.0793
 1220ERGO    R515812   0.535  14.736   6.777  0.5568  0.1161  0.0000
 1220ERGO    C115813   0.573  14.597   7.130  0.2647  0.0093 -0.0108
 1220ERGO    C215814   0.690  14.593   7.304 -0.0370 -0.0949 -0.1358
 1221ERGO   ROH15815  15.787   2.347   9.158  0.1882  0.2662 -0.0724
 1221ERGO    R115816  15.582   2.406   8.971  0.0409  0.0625  0.0195
 1221ERGO    R215817  15.597   2.620   8.798 -0.2311  0.0522 -0.0230
 1221ERGO    R315818  15.553   2.429   8.609 -0.1602 -0.0162  0.0297
 1221ERGO    R415819  15.579   2.679   8.457 -0.4014 -0.0230 -0.0274
 1221ERGO    R515820  15.414   2.537   8.447 -0.3014 -0.1484  0.0608
 1221ERGO    C115821  15.527   2.534   8.083 -0.4341 -0.1311  0.0195
 1221ERGO    C215822  15.465   2.547   7.669  0.2869 -0.1171 -0.0287
 1222ERGO   ROH15823  18.099  18.113   6.051  0.1874  0.1880 -0.2966
 1222ERGO    R115824  18.158  18.212   6.309  0.3342  0.1943 -0.3314
 1222ERGO    R215825  18.180  18.047   6.530 -0.0096  0.2430 -0.2526
 1222ERGO    R315826  18.422  18.167   6.556  0.2207 -0.1982 -0.2748
 1222ERGO    R415827  18.333  18.117   6.831 -0.0935  0.4219 -0.2499
 1222ERGO    R515828  18.398  18.308   6.748  0.3559  0.1683 -0.5175
 1222ERGO    C115829  18.650  18.270   7.032  0.0741  0.1117 -0.2692
 1222ERGO    C215830  18.839  18.329   7.241 -0.0030  0.0912  0.0228
 1223ERGO   ROH15831  12.839   7.414   9.658 -0.0361 -0.1959 -0.0111
 1223ERGO    R115832  12.907   7.510   9.400 -0.0013 -0.1551  0.0132
 1223ERGO    R215833  12.933   7.344   9.181 -0.0597 -0.1099 -0.0289
 1223ERGO    R315834  12.753   7.515   9.071  0.0006 -0.0180  0.0140
 1223ERGO    R415835  12.872   7.377   8.842 -0.1005 -0.0520 -0.0163
 1223ERGO    R515836  12.858   7.592   8.870  0.0025 -0.0487  0.0042
 1223ERGO    C115837  12.668   7.557   8.542 -0.0676  0.0678  0.0315
 1223ERGO    C215838  12.520   7.485   8.323  0.2794 -0.0793 -0.0564
 1224ERGO   ROH15839   6.942   9.819   9.868  0.1268 -0.0824 -0.0111
 1224ERGO    R115840   6.744   9.888   9.677  0.0431 -0.0929  0.0702
 1224ERGO    R215841   6.803  10.032   9.449 -0.0890  0.0509  0.1253
 1224ERGO    R315842   6.683   9.822   9.324 -0.0069  0.0479  0.0519
 1224ERGO    R415843   6.602  10.058   9.168  0.0545  0.0528  0.0224
 1224ERGO    R515844   6.470   9.907   9.256  0.0208  0.0359 -0.0536
 1224ERGO    C115845   6.373   9.875   8.888  0.2152  0.0510 -0.1064
 1224ERGO    C215846   6.171   9.949   8.627  0.2383 -0.0280 -0.0156
 1225ERGO   ROH15847  10.575   8.445   6.292  0.3508  0.0257 -0.0290
 1225ERGO    R115848  10.450   8.379   6.537  0.2224 -0.0382 -0.1118
 1225ERGO    R215849  10.583   8.385   6.779  0.0734 -0.0204 -0.0326
 1225ERGO    R315850  10.378   8.548   6.852 -0.0235 -0.0934 -0.1350
 1225ERGO    R415851  10.495   8.457   7.105 -0.0316  0.0467 -0.0745
 1225ERGO    R515852  10.285   8.443   7.046 -0.0153 -0.0754 -0.1186
 1225ERGO    C115853  10.251   8.652   7.364 -0.1835  0.0172 -0.1951
 1225ERGO    C215854  10.404   8.750   7.732 -0.2611 -0.1511 -0.1358
 1226ERGO   ROH15855  17.442  18.672   9.468 -0.0347 -0.0437 -0.1202
 1226ERGO    R115856  17.301  18.708   9.225 -0.0222 -0.0809 -0.1329
 1226ERGO    R215857  17.322  18.938   9.074 -0.1502 -0.0321 -0.0774
 1226ERGO    R315858  17.386  18.763   8.876 -0.0061  0.0544 -0.1080
 1226ERGO    R415859  17.173  18.930   8.762 -0.0990 -0.0576 -0.1013
 1226ERGO    R515860  17.176  18.712   8.771  0.0421 -0.0587 -0.1509
 1226ERGO    C115861  17.146  18.762   8.394  0.0663  0.0088 -0.1440
 1226ERGO    C215862  17.204  18.670   8.094  0.0607  0.0704 -0.0582
 1227ERGO   ROH15863  11.858   7.011   6.307  0.1763 -0.0092 -0.0113
 1227ERGO    R115864  11.996   7.168   6.499 -0.0084  0.1164  0.0205
 1227ERGO    R215865  11.964   7.442   6.517 -0.2300  0.0943 -0.0129
 1227ERGO    R315866  11.905   7.386   6.776 -0.2700  0.0710 -0.0267
 1227ERGO    R415867  11.925   7.677   6.767  0.0053  0.0561  0.0628
 1227ERGO    R515868  12.032   7.544   6.902 -0.1123 -0.0866  0.0165
 1227ERGO    C115869  11.847   7.761   7.156  0.1050  0.0120  0.0938
 1227ERGO    C215870  11.647   8.009   7.119  0.0784 -0.1747 -0.3851
 1228ERGO   ROH15871   4.376  18.659   5.925  0.0292  0.2579  0.0067
 1228ERGO    R115872   4.234  18.822   6.108  0.0369  0.1281  0.1304
 1228ERGO    R215873   3.979  18.762   6.194 -0.0025  0.1251  0.0052
 1228ERGO    R315874   4.092  18.785   6.440 -0.0595 -0.1484  0.0624
 1228ERGO    R415875   3.804  18.765   6.492 -0.1121  0.1553 -0.0586
 1228ERGO    R515876   3.938  18.921   6.563  0.0496 -0.0363  0.0820
 1228ERGO    C115877   3.808  18.789   6.897 -0.2294 -0.0839 -0.0422
 1228ERGO    C215878   3.742  18.755   7.274 -0.4210  0.1180  0.1162
 1229ERGO   ROH15879  16.733   6.527   6.088 -0.0211  0.1685 -0.0263
 1229ERGO    R115880  16.755   6.553   6.369  0.0175  0.1217 -0.0247
 1229ERGO    R215881  16.571   6.692   6.520  0.0699  0.1477  0.0169
 1229ERGO    R315882  16.558   6.459   6.660  0.0256  0.1299 -0.0170
 1229ERGO    R415883  16.496   6.667   6.857  0.2630  0.1278  0.0595
 1229ERGO    R515884  16.649   6.513   6.874  0.1880  0.0394 -0.0627
 1229ERGO    C115885  16.441   6.434   7.183  0.3338  0.0994  0.0524
 1229ERGO    C215886  16.472   6.109   7.456  0.1401 -0.2121  0.2027
 1230ERGO   ROH15887  12.755   0.621   9.078  0.1210  0.1916  0.0379
 1230ERGO    R115888  12.792   0.779   8.846 -0.0031  0.0413 -0.0858
 1230ERGO    R215889  12.973   0.713   8.648  0.0180  0.0065 -0.0519
 1230ERGO    R315890  12.756   0.734   8.487 -0.0119 -0.2525 -0.0512
 1230ERGO    R415891  12.985   0.793   8.312 -0.0810  0.0889 -0.0367
 1230ERGO    R515892  12.808   0.918   8.342 -0.2524 -0.1501 -0.0146
 1230ERGO    C115893  12.787   0.860   7.965 -0.1668 -0.1063 -0.0270
 1230ERGO    C215894  12.956   0.756   7.734  0.0794  0.2403  0.1146
 1231ERGO   ROH15895   9.876   0.139   9.662  0.0990 -0.0073 -0.0868
 1231ERGO    R115896   9.993   0.161   9.406 -0.0568  0.1530 -0.1455
 1231ERGO    R215897  10.014  -0.054   9.232  0.2622  0.1475 -0.0978
 1231ERGO    R315898   9.886   0.115   9.061 -0.1306 -0.1271 -0.0897
 1231ERGO    R415899  10.038  -0.066   8.888  0.3714  0.2588 -0.0952
 1231ERGO    R515900  10.044   0.152   8.885 -0.1681  0.2951 -0.0517
 1231ERGO    C115901   9.932   0.085   8.527  0.0662  0.0659 -0.0861
 1231ERGO    C215902  10.054  -0.056   8.296  0.0884  0.0576 -0.0890
 1232ERGO   ROH15903  13.818   4.124   9.270 -0.2437  0.0589 -0.0926
 1232ERGO    R115904  13.777   4.063   8.997 -0.0885  0.0420 -0.1120
 1232ERGO    R215905  13.711   4.255   8.809 -0.1483  0.0013 -0.1272
 1232ERGO    R315906  13.929   4.158   8.679 -0.0262  0.1625 -0.0483
 1232ERGO    R415907  13.780   4.305   8.475 -0.0877  0.0282 -0.1113
 1232ERGO    R515908  13.847   4.098   8.462  0.0844  0.0752 -0.0706
 1232ERGO    C115909  14.024   4.243   8.157  0.0621  0.1950 -0.0280
 1232ERGO    C215910  13.985   4.455   7.849  0.1093  0.4127 -0.2459
 1233ERGO   ROH15911   5.897   5.205   9.378  0.1134  0.2210  0.0384
 1233ERGO    R115912   5.776   5.280   9.133  0.0779  0.1337  0.0284
 1233ERGO    R215913   5.898   5.450   8.953  0.0151  0.1392 -0.0113
 1233ERGO    R315914   5.852   5.247   8.779  0.0743  0.0888  0.0321
 1233ERGO    R415915   5.837   5.489   8.615 -0.0167  0.0489 -0.0159
 1233ERGO    R515916   5.686   5.333   8.629  0.0377  0.0014  0.0234
 1233ERGO    C115917   5.758   5.321   8.255  0.0204 -0.0512  0.0220
 1233ERGO    C215918   5.815   5.346   7.876  0.2750 -0.2601 -0.1031
 1234ERGO   ROH15919   6.057  18.296   9.508 -0.0111 -0.1168  0.0103
 1234ERGO    R115920   5.958  18.375   9.255  0.0815 -0.0587 -0.0079
 1234ERGO    R215921   5.991  18.631   9.155  0.0577 -0.0179  0.0947
 1234ERGO    R315922   6.098  18.499   8.943  0.1877  0.0843  0.0945
 1234ERGO    R415923   5.972  18.735   8.826 -0.1493 -0.0924  0.0816
 1234ERGO    R515924   5.939  18.528   8.768  0.1069 -0.1506  0.1226
 1234ERGO    C115925   6.061  18.671   8.436 -0.1477 -0.0399  0.0737
 1234ERGO    C215926   6.366  18.654   8.195  0.1780  0.1625 -0.2270
 1235ERGO   ROH15927   4.239   3.836   8.879 -0.2838  0.0260 -0.0674
 1235ERGO    R115928   4.122   3.773   8.629 -0.1859 -0.1059 -0.0814
 1235ERGO    R215929   4.067   3.965   8.439 -0.3381 -0.1699 -0.1075
 1235ERGO    R315930   4.215   3.803   8.278 -0.1552 -0.0458 -0.0668
 1235ERGO    R415931   4.003   3.907   8.104 -0.0571 -0.0676 -0.1820
 1235ERGO    R515932   4.054   3.697   8.136  0.0002 -0.0548 -0.2321
 1235ERGO    C115933   4.105   3.722   7.759  0.2781  0.1084 -0.1871
 1235ERGO    C215934   3.972   3.760   7.402  0.3614  0.0192  0.0015
 1236ERGO   ROH15935  14.277   0.568   5.861  0.3472 -0.3938 -0.0055
 1236ERGO    R115936  14.222   0.416   6.093  0.3953 -0.3501  0.0356
 1236ERGO    R215937  14.402   0.391   6.302  0.2587  0.0799  0.2188
 1236ERGO    R315938  14.193   0.480   6.451 -0.0328 -0.1780 -0.0244
 1236ERGO    R415939  14.347   0.311   6.633  0.1852  0.3121  0.2638
 1236ERGO    R515940  14.135   0.293   6.589  0.2423 -0.1583  0.1234
 1236ERGO    C115941  14.119   0.348   6.966 -0.1313  0.2053  0.0618
 1236ERGO    C215942  14.070   0.324   7.352 -0.0604  0.2429 -0.0882
 1237ERGO   ROH15943  14.352   4.915   9.437 -0.3575 -0.1120  0.0379
 1237ERGO    R115944  14.377   4.862   9.160 -0.1614 -0.1348  0.0582
 1237ERGO    R215945  14.193   4.953   8.974 -0.1142 -0.2809 -0.0607
 1237ERGO    R315946  14.413   5.058   8.856 -0.1131 -0.1522  0.0525
 1237ERGO    R415947  14.205   5.075   8.651  0.0048 -0.3640 -0.0886
 1237ERGO    R515948  14.401   4.983   8.629  0.0887 -0.2271  0.0641
 1237ERGO    C115949  14.420   5.245   8.352  0.0752 -0.2915  0.0015
 1237ERGO    C215950  14.615   5.425   8.221  0.0520 -0.0432 -0.3278
 1238ERGO   ROH15951   3.327  17.873   8.943 -0.1356  0.2614 -0.1214
 1238ERGO    R115952   3.491  17.825   8.718 -0.0961 -0.1337 -0.0159
 1238ERGO    R215953   3.447  17.614   8.544 -0.4842 -0.0508 -0.0383
 1238ERGO    R315954   3.448  17.811   8.357  0.0946 -0.0395 -0.0413
 1238ERGO    R415955   3.474  17.563   8.204 -0.5290 -0.1101 -0.0324
 1238ERGO    R515956   3.605  17.737   8.193 -0.0561 -0.4562  0.0002
 1238ERGO    C115957   3.490  17.719   7.829 -0.0117 -0.1340 -0.0318
 1238ERGO    C215958   3.696  17.650   7.412  0.4566  0.0464 -0.1033
 1239ERGO   ROH15959  11.308   2.439   5.937  0.1445  0.0146  0.0497
 1239ERGO    R115960  11.359   2.387   6.211  0.0224  0.0113  0.0720
 1239ERGO    R215961  11.606   2.432   6.327 -0.0027 -0.0865  0.1582
 1239ERGO    R315962  11.461   2.581   6.502 -0.0016 -0.0131  0.0977
 1239ERGO    R415963  11.697   2.499   6.654 -0.0147  0.0100  0.1421
 1239ERGO    R515964  11.489   2.471   6.713 -0.0255  0.0499  0.1371
 1239ERGO    C115965  11.613   2.678   7.008 -0.0207  0.1351  0.0761
 1239ERGO    C215966  11.922   2.764   7.309  0.3888  0.0475  0.2631
 1240ERGO   ROH15967  17.602  15.823   9.559  0.1068  0.0278 -0.1366
 1240ERGO    R115968  17.682  15.847   9.288  0.0287 -0.0373 -0.1651
 1240ERGO    R215969  17.638  15.648   9.102 -0.1728 -0.0137 -0.1405
 1240ERGO    R315970  17.517  15.848   8.963 -0.0833  0.0629 -0.1096
 1240ERGO    R415971  17.634  15.676   8.757 -0.0024  0.1356 -0.1319
 1240ERGO    R515972  17.665  15.890   8.779  0.0135  0.1260 -0.0218
 1240ERGO    C115973  17.519  15.880   8.427  0.1806  0.2944 -0.0981
 1240ERGO    C215974  17.562  15.910   8.122 -0.0293 -0.4028 -0.0562
 1241ERGO   ROH15975  12.064   4.880   6.170 -0.2308 -0.3641  0.1956
 1241ERGO    R115976  12.012   4.895   6.448 -0.1387 -0.2989  0.2099
 1241ERGO    R215977  12.191   4.806   6.638 -0.0687 -0.2405  0.1720
 1241ERGO    R315978  12.161   5.058   6.737 -0.0517 -0.2176  0.1195
 1241ERGO    R415979  12.310   4.914   6.944 -0.1162 -0.1987  0.1761
 1241ERGO    R515980  12.125   5.026   6.971 -0.1042 -0.1668  0.1177
 1241ERGO    C115981  12.351   5.213   7.215 -0.1279 -0.1528  0.1292
 1241ERGO    C215982  12.600   5.510   7.237  0.0746 -0.0722 -0.1942
 1242ERGO   ROH15983  15.413   7.214   9.629 -0.0722 -0.1493  0.0015
 1242ERGO    R115984  15.525   7.176   9.372  0.0115 -0.0138  0.0165
 1242ERGO    R215985  15.407   7.014   9.181  0.2013 -0.1081 -0.0231
 1242ERGO    R315986  15.423   7.238   9.028  0.0120 -0.0745  0.0054
 1242ERGO    R415987  15.427   7.017   8.836  0.2481 -0.0521 -0.0197
 1242ERGO    R515988  15.572   7.179   8.850  0.0947  0.0847  0.0197
 1242ERGO    C115989  15.453   7.229   8.491  0.0975  0.0120  0.0089
 1242ERGO    C215990  15.545   7.151   8.095  0.1928  0.0734  0.1196
 1243ERGO   ROH15991  15.309  11.098   9.611 -0.1118 -0.1214 -0.0160
 1243ERGO    R115992  15.286  11.082   9.329 -0.2110 -0.0181 -0.0145
 1243ERGO    R215993  15.463  10.937   9.174 -0.1281  0.2258 -0.1520
 1243ERGO    R315994  15.236  10.819   9.082 -0.0499  0.0391 -0.1100
 1243ERGO    R415995  15.403  10.856   8.844 -0.0464  0.0027 -0.1136
 1243ERGO    R515996  15.197  10.923   8.870 -0.0896 -0.1032 -0.1738
 1243ERGO    C115997  15.154  10.697   8.565  0.0747 -0.3024 -0.0520
 1243ERGO    C215998  15.349  10.554   8.294  0.0051 -0.1035  0.0927
 1244ERGO   ROH15999   6.581  13.209   9.907 -0.0954  0.5141  0.1514
 1244ERGO    R116000   6.554  13.376   9.680  0.0726  0.2844 -0.0443
 1244ERGO    R216001   6.721  13.357   9.460  0.1420 -0.0444  0.0269
 1244ERGO    R316002   6.486  13.331   9.325  0.1740 -0.0686 -0.0220
 1244ERGO    R416003   6.671  13.451   9.131  0.1665  0.0604  0.0535
 1244ERGO    R516004   6.475  13.527   9.188  0.1347 -0.0233  0.0483
 1244ERGO    C116005   6.422  13.481   8.813  0.2109  0.0988  0.0232
 1244ERGO    C216006   6.291  13.546   8.534 -0.1227 -0.1112  0.2494
 1245ERGO   ROH16007  17.113  16.683   9.209  0.5299 -0.1547 -0.1075
 1245ERGO    R116008  16.965  16.754   8.978 -0.0196 -0.3573  0.1657
 1245ERGO    R216009  17.085  16.837   8.744 -0.5841  0.2510  0.0672
 1245ERGO    R316010  16.938  16.636   8.635 -0.1427 -0.0980  0.0822
 1245ERGO    R416011  17.041  16.786   8.405 -0.6361  0.2677  0.0706
 1245ERGO    R516012  16.833  16.736   8.444 -0.5079 -0.2815  0.1731
 1245ERGO    C116013  16.877  16.568   8.105 -0.2523 -0.0500  0.0867
 1245ERGO    C216014  16.862  16.467   7.785  0.0859 -0.0002 -0.2590
 1246ERGO   ROH16015  11.043   9.059   9.539  0.1004  0.2115 -0.1310
 1246ERGO    R116016  11.013   9.177   9.284 -0.0403  0.1380 -0.1484
 1246ERGO    R216017  11.216   9.178   9.096 -0.1047  0.1985 -0.2106
 1246ERGO    R316018  11.027   9.064   8.938 -0.0945  0.0703 -0.1299
 1246ERGO    R416019  11.228   9.168   8.751 -0.2472  0.2385 -0.2178
 1246ERGO    R516020  11.014   9.209   8.748 -0.2851  0.0815 -0.1151
 1246ERGO    C116021  11.058   9.056   8.401 -0.3205  0.1414 -0.1463
 1246ERGO    C216022  11.219   9.142   8.049 -0.6779 -0.0345  0.3058
 1247ERGO   ROH16023   4.450  12.730   6.589 -0.1393 -0.2233 -0.0356
 1247ERGO    R116024   4.262  12.709   6.800 -0.1771 -0.2715 -0.0736
 1247ERGO    R216025   4.207  12.470   6.926  0.0786 -0.2371  0.1138
 1247ERGO    R316026   4.269  12.611   7.150 -0.1567  0.0337  0.0144
 1247ERGO    R416027   4.100  12.390   7.245  0.1463 -0.1391  0.1612
 1247ERGO    R516028   4.069  12.603   7.282 -0.1674 -0.1497 -0.0115
 1247ERGO    C116029   4.096  12.476   7.641 -0.0351  0.1721  0.0956
 1247ERGO    C216030   3.852  12.399   7.920  0.4014 -0.0086 -0.2014
 1248ERGO   ROH16031   4.681   3.990   5.755 -0.0377  0.0737  0.1212
 1248ERGO    R116032   4.678   3.871   6.012  0.0569 -0.0190  0.0806
 1248ERGO    R216033   4.452   3.865   6.171  0.1788  0.1553  0.2683
 1248ERGO    R316034   4.502   3.598   6.176 -0.0891  0.0993  0.1234
 1248ERGO    R416035   4.465   3.672   6.458  0.3361  0.0590  0.1973
 1248ERGO    R516036   4.636   3.566   6.373  0.1256 -0.0953 -0.0482
 1248ERGO    C116037   4.519   3.309   6.629  0.1761 -0.0496  0.0200
 1248ERGO    C216038   4.470   3.208   7.008  0.0220  0.1107  0.0808
 1249ERGO   ROH16039  15.792  14.560   9.533  0.0039  0.1764  0.0269
 1249ERGO    R116040  15.785  14.436   9.279  0.3481  0.2424 -0.0188
 1249ERGO    R216041  15.551  14.404   9.136  0.4161 -0.3878 -0.0061
 1249ERGO    R316042  15.692  14.531   8.941  0.0382  0.1026  0.0218
 1249ERGO    R416043  15.482  14.384   8.797  0.5198 -0.6274 -0.0158
 1249ERGO    R516044  15.697  14.375   8.759  0.5908  0.0932  0.0203
 1249ERGO    C116045  15.574  14.492   8.418  0.2256 -0.3067  0.0047
 1249ERGO    C216046  15.592  14.493   7.978  0.0711  0.0417 -0.1103
 1250ERGO   ROH16047   7.197   1.746   5.826  0.0465  0.1029 -0.0760
 1250ERGO    R116048   7.339   1.794   6.065 -0.0032 -0.0536 -0.0145
 1250ERGO    R216049   7.254   1.976   6.255  0.0411 -0.0662  0.0094
 1250ERGO    R316050   7.275   1.763   6.422 -0.1338 -0.1270 -0.0418
 1250ERGO    R416051   7.249   1.995   6.600  0.0658 -0.1319  0.0143
 1250ERGO    R516052   7.407   1.845   6.605 -0.0552 -0.2723 -0.0256
 1250ERGO    C116053   7.266   1.806   6.958 -0.0841 -0.2273 -0.0310
 1250ERGO    C216054   7.100   2.039   7.184 -0.0043 -0.1224  0.2212
 1251ERGO   ROH16055  16.580  11.369   6.246 -0.2787  0.0337  0.0976
 1251ERGO    R116056  16.587  11.476   6.508 -0.2455 -0.0266  0.1211
 1251ERGO    R216057  16.608  11.318   6.734  0.0383 -0.0656  0.0697
 1251ERGO    R316058  16.820  11.478   6.788 -0.0924  0.1383 -0.0051
 1251ERGO    R416059  16.689  11.437   7.047  0.2016 -0.2335  0.0934
 1251ERGO    R516060  16.740  11.629   6.956 -0.1097 -0.0936  0.2008
 1251ERGO    C116061  16.937  11.657   7.281  0.1740 -0.1400  0.0371
 1251ERGO    C216062  17.223  11.661   7.548 -0.1661 -0.0285  0.3867
 1252ERGO   ROH16063   4.240   7.970   9.951  0.0292  0.1315 -0.0594
 1252ERGO    R116064   4.252   8.079   9.690 -0.0326  0.1089 -0.0714
 1252ERGO    R216065   4.300   7.924   9.466  0.0122  0.1048 -0.0577
 1252ERGO    R316066   4.069   8.037   9.377 -0.0389  0.0046 -0.0545
 1252ERGO    R416067   4.237   8.010   9.137 -0.0490  0.0313 -0.0655
 1252ERGO    R516068   4.140   8.193   9.209 -0.1117  0.0066 -0.0845
 1252ERGO    C116069   3.983   8.166   8.862 -0.1326 -0.1056 -0.0672
 1252ERGO    C216070   4.122   8.289   8.481  0.2527  0.0983  0.0325
 1253ERGO   ROH16071  11.843   0.253   6.041  0.1859 -0.2073 -0.0279
 1253ERGO    R116072  11.861   0.391   6.288 -0.0564 -0.0657 -0.0859
 1253ERGO    R216073  11.638   0.459   6.436 -0.1893 -0.3282 -0.1494
 1253ERGO    R316074  11.769   0.326   6.634 -0.0148 -0.0507 -0.0737
 1253ERGO    R416075  11.604   0.524   6.774 -0.2815 -0.2047 -0.1822
 1253ERGO    R516076  11.819   0.495   6.796 -0.2449  0.0967 -0.1576
 1253ERGO    C116077  11.707   0.438   7.156 -0.1711  0.1276 -0.1302
 1253ERGO    C216078  11.614   0.448   7.424  0.2017  0.2749  0.1733
 1254ERGO   ROH16079  18.395   3.625   9.315 -0.0304  0.0959  0.1186
 1254ERGO    R116080  18.398   3.806   9.098 -0.1684  0.0482  0.0757
 1254ERGO    R216081  18.624   3.851   8.943 -0.1988  0.1867  0.0674
 1254ERGO    R316082  18.457   3.788   8.739 -0.1501  0.0072  0.0815
 1254ERGO    R416083  18.706   3.866   8.608 -0.1959  0.1035  0.0638
 1254ERGO    R516084  18.508   3.947   8.568 -0.2393 -0.0310  0.0216
 1254ERGO    C116085  18.596   3.816   8.221 -0.1484 -0.1133  0.0751
 1254ERGO    C216086  18.541   3.716   7.871 -0.2572  0.0012 -0.3780
 1255ERGO   ROH16087   0.805  15.736   5.840  0.1093 -0.2105 -0.1647
 1255ERGO    R116088   0.797  15.777   6.120  0.0766 -0.2367 -0.1623
 1255ERGO    R216089   0.909  15.600   6.300  0.1570 -0.1940 -0.1730
 1255ERGO    R316090   1.038  15.822   6.389  0.0424 -0.1359 -0.1475
 1255ERGO    R416091   1.056  15.632   6.611  0.2632 -0.2065 -0.2209
 1255ERGO    R516092   0.980  15.836   6.621  0.1265 -0.2593 -0.1170
 1255ERGO    C116093   1.263  15.859   6.875  0.2175 -0.1593 -0.2249
 1255ERGO    C216094   1.271  15.921   7.255 -0.1998  0.2436  0.0248
 1256ERGO   ROH16095   1.876   4.413   9.368  0.1998 -0.1823 -0.0555
 1256ERGO    R116096   1.903   4.514   9.105 -0.1232 -0.0501 -0.0424
 1256ERGO    R216097   2.052   4.385   8.911  0.1117  0.3320 -0.1239
 1256ERGO    R316098   1.821   4.402   8.769  0.0120 -0.1628 -0.0389
 1256ERGO    R416099   2.031   4.385   8.566 -0.0284  0.2088 -0.1168
 1256ERGO    R516100   1.876   4.537   8.580 -0.3334 -0.0908 -0.0948
 1256ERGO    C116101   1.801   4.400   8.232 -0.2036 -0.3276 -0.0329
 1256ERGO    C216102   1.668   4.478   8.026  0.0195 -0.1961 -0.3281
 1257ERGO   ROH16103   8.124   2.502   9.525 -0.1570  0.1555  0.0529
 1257ERGO    R116104   8.173   2.376   9.276 -0.0225  0.1150  0.0986
 1257ERGO    R216105   7.976   2.345   9.085  0.0506 -0.0178  0.0419
 1257ERGO    R316106   8.157   2.471   8.925  0.0481  0.0230  0.0710
 1257ERGO    R416107   7.996   2.308   8.741  0.0803  0.0369  0.0376
 1257ERGO    R516108   8.213   2.307   8.759  0.0766  0.0560  0.0508
 1257ERGO    C116109   8.177   2.405   8.392  0.0953  0.1071  0.0624
 1257ERGO    C216110   8.266   2.245   8.037  0.0264 -0.0962 -0.2612
 1258ERGO   ROH16111  14.377   3.184   9.518 -0.0505  0.0831 -0.0061
 1258ERGO    R116112  14.327   3.311   9.271 -0.0336 -0.0556 -0.0784
 1258ERGO    R216113  14.527   3.431   9.121 -0.0604  0.0238 -0.0290
 1258ERGO    R316114  14.433   3.268   8.925  0.1466 -0.1165 -0.0195
 1258ERGO    R416115  14.512   3.514   8.786 -0.0375 -0.0598 -0.0540
 1258ERGO    R516116  14.318   3.416   8.776  0.0473 -0.2489 -0.0872
 1258ERGO    C116117  14.415   3.409   8.407  0.1700 -0.2402 -0.0596
 1258ERGO    C216118  14.654   3.586   8.253 -0.0103  0.0904 -0.1505
 1259ERGO   ROH16119  11.494   8.227   9.709 -0.0910 -0.0029  0.1986
 1259ERGO    R116120  11.568   8.232   9.436 -0.0835  0.2305  0.2033
 1259ERGO    R216121  11.471   8.049   9.252  0.1871  0.1750  0.1168
 1259ERGO    R316122  11.397   8.273   9.117 -0.1289  0.1353  0.2137
 1259ERGO    R416123  11.425   8.067   8.910  0.1212  0.2419  0.1285
 1259ERGO    R516124  11.521   8.263   8.913 -0.1346  0.3763  0.1919
 1259ERGO    C116125  11.329   8.288   8.584 -0.2139  0.2436  0.2263
 1259ERGO    C216126  11.415   8.243   8.223 -0.3050 -0.1006  0.3200
 1260ERGO   ROH16127   9.653  13.950   6.156  0.2537 -0.0021 -0.1292
 1260ERGO    R116128   9.626  13.814   6.403  0.1791 -0.0226 -0.1479
 1260ERGO    R216129   9.769  13.586   6.464  0.1640 -0.0279 -0.1219
 1260ERGO    R316130   9.843  13.729   6.683  0.0952 -0.0423 -0.0896
 1260ERGO    R416131   9.888  13.448   6.757  0.2882 -0.0293 -0.1722
 1260ERGO    R516132   9.770  13.595   6.868  0.2056 -0.1399 -0.1184
 1260ERGO    C116133  10.026  13.501   7.134  0.2958 -0.0435 -0.1711
 1260ERGO    C216134  10.158  13.285   7.309  0.0323  0.1628 -0.2153
 1261ERGO   ROH16135   3.247  14.913   9.317  0.2238  0.1446  0.0625
 1261ERGO    R116136   3.357  14.955   9.060  0.1535  0.1755  0.0371
 1261ERGO    R216137   3.323  14.775   8.852  0.2494  0.1112  0.0763
 1261ERGO    R316138   3.230  14.994   8.721  0.0709  0.0204  0.0487
 1261ERGO    R416139   3.294  14.802   8.509  0.3340  0.0805  0.0668
 1261ERGO    R516140   3.365  15.008   8.524  0.1241  0.1555  0.0923
 1261ERGO    C116141   3.189  15.024   8.186  0.2156 -0.0226  0.0353
 1261ERGO    C216142   3.137  15.133   7.897  0.2195 -0.0355  0.2686
 1262ERGO   ROH16143   8.555   2.807   5.955 -0.0622 -0.0455 -0.0777
 1262ERGO    R116144   8.685   2.853   6.202 -0.2109 -0.1484  0.0199
 1262ERGO    R216145   8.745   3.106   6.294  0.0877 -0.2030 -0.0269
 1262ERGO    R316146   8.607   3.024   6.514 -0.2309  0.0863 -0.1105
 1262ERGO    R416147   8.796   3.226   6.614  0.1976 -0.3431  0.0097
 1262ERGO    R516148   8.771   3.022   6.689 -0.3168 -0.3099 -0.0197
 1262ERGO    C116149   8.696   3.220   7.007 -0.0375 -0.1531 -0.0474
 1262ERGO    C216150   8.834   3.398   7.376  0.3217  0.0910 -0.1466
 1263ERGO   ROH16151   3.284  14.008   9.561  0.0116  0.0583 -0.1108
 1263ERGO    R116152   3.350  13.962   9.290  0.1337  0.1622 -0.1003
 1263ERGO    R216153   3.188  13.814   9.121  0.3996 -0.1082 -0.1267
 1263ERGO    R316154   3.202  14.036   8.966  0.0593 -0.0815 -0.1244
 1263ERGO    R416155   3.177  13.815   8.775  0.4182 -0.1258 -0.1272
 1263ERGO    R516156   3.331  13.969   8.775  0.1799  0.1201 -0.1167
 1263ERGO    C116157   3.182  14.025   8.428  0.1097 -0.1109 -0.1251
 1263ERGO    C216158   3.396  14.022   8.019 -0.3594 -0.1040  0.1299
 1264ERGO   ROH16159   6.236   2.555   5.872 -0.0358  0.0345  0.1262
 1264ERGO    R116160   6.272   2.403   6.108  0.0928 -0.0352  0.0615
 1264ERGO    R216161   6.453   2.472   6.304  0.0413  0.0288  0.0806
 1264ERGO    R316162   6.236   2.457   6.466  0.0595 -0.2144  0.0875
 1264ERGO    R416163   6.456   2.536   6.644 -0.0592  0.2861  0.0366
 1264ERGO    R516164   6.321   2.366   6.671  0.2163  0.0731  0.1581
 1264ERGO    C116165   6.253   2.558   6.994 -0.1007  0.2077  0.0175
 1264ERGO    C216166   6.245   2.685   7.279  0.2319  0.0122  0.4110
 1265ERGO   ROH16167  13.576  15.614   9.722 -0.2635 -0.0893  0.0603
 1265ERGO    R116168  13.459  15.451   9.521 -0.2491 -0.0983  0.0610
 1265ERGO    R216169  13.197  15.483   9.438 -0.1833  0.0131 -0.0804
 1265ERGO    R316170  13.312  15.503   9.192 -0.0563 -0.1439 -0.0369
 1265ERGO    R416171  13.030  15.445   9.138 -0.1397  0.2420 -0.1370
 1265ERGO    R516172  13.202  15.335   9.062 -0.2497 -0.0032 -0.0728
 1265ERGO    C116173  13.040  15.441   8.733  0.0049  0.2280 -0.1289
 1265ERGO    C216174  12.879  15.422   8.446  0.2253  0.0037  0.1778
 1266ERGO   ROH16175  14.072  14.340   9.461 -0.2793 -0.1483  0.1017
 1266ERGO    R116176  13.944  14.260   9.222 -0.4867  0.1922  0.0915
 1266ERGO    R216177  13.822  14.439   9.050  0.1064  0.5521  0.0202
 1266ERGO    R316178  13.984  14.323   8.865 -0.1982 -0.0099  0.0843
 1266ERGO    R416179  13.770  14.447   8.709  0.1785  0.6029  0.0103
 1266ERGO    R516180  13.834  14.239   8.699 -0.4425  0.3832  0.0901
 1266ERGO    C116181  13.891  14.342   8.336 -0.0655  0.1048  0.0648
 1266ERGO    C216182  14.001  14.222   7.996 -0.0888  0.0566  0.1895
 1267ERGO   ROH16183  18.660  17.590   9.354  0.0218 -0.1176 -0.1414
 1267ERGO    R116184  18.704  17.598   9.075 -0.0069 -0.0779 -0.1452
 1267ERGO    R216185  18.955  17.624   8.964 -0.0029 -0.1955 -0.1695
 1267ERGO    R316186  18.884  17.399   8.829 -0.1483 -0.1257 -0.2114
 1267ERGO    R416187  19.023  17.565   8.630  0.0643 -0.2286 -0.1495
 1267ERGO    R516188  18.824  17.478   8.610 -0.0043 -0.0572 -0.2266
 1267ERGO    C116189  18.997  17.319   8.309 -0.0331 -0.1823 -0.1773
 1267ERGO    C216190  19.062  17.359   8.007 -0.0714  0.2241  0.1129
 1268ERGO   ROH16191  15.850  15.014   6.306  0.0453  0.1333 -0.0100
 1268ERGO    R116192  16.016  15.186   6.457  0.1285  0.0319  0.0142
 1268ERGO    R216193  15.916  15.396   6.605  0.2413  0.1326 -0.0558
 1268ERGO    R316194  16.053  15.277   6.807  0.0858  0.0640  0.0113
 1268ERGO    R416195  16.057  15.563   6.873  0.0571  0.0502  0.0952
 1268ERGO    R516196  16.230  15.431   6.858  0.0617  0.0407  0.1829
 1268ERGO    C116197  16.268  15.549   7.219 -0.1961 -0.0622  0.2460
 1268ERGO    C216198  16.149  15.734   7.547 -0.4472  0.0007 -0.2350
 1269ERGO   ROH16199   8.547   5.816   9.717 -0.1950  0.1748  0.0260
 1269ERGO    R116200   8.642   5.817   9.450 -0.1695  0.0617  0.0337
 1269ERGO    R216201   8.479   5.765   9.233 -0.1581  0.0068  0.0357
 1269ERGO    R316202   8.573   6.004   9.146 -0.1127 -0.0391 -0.0410
 1269ERGO    R416203   8.443   5.886   8.912 -0.2769 -0.0135  0.0410
 1269ERGO    R516204   8.647   5.962   8.922 -0.2445 -0.0900 -0.0737
 1269ERGO    C116205   8.510   6.182   8.642 -0.3033 -0.0684 -0.0278
 1269ERGO    C216206   8.459   6.426   8.238  0.3082  0.2725  0.0705
 1270ERGO   ROH16207   8.085  16.405   5.984  0.0667  0.2656  0.0064
 1270ERGO    R116208   8.030  16.416   6.261  0.0332  0.1817  0.0031
 1270ERGO    R216209   8.118  16.222   6.438 -0.1005  0.0581 -0.0636
 1270ERGO    R316210   8.225  16.435   6.569  0.0018 -0.0544  0.0397
 1270ERGO    R416211   8.175  16.236   6.778 -0.2330 -0.0766 -0.0347
 1270ERGO    R516212   8.106  16.443   6.776 -0.0808 -0.0240 -0.0086
 1270ERGO    C116213   8.308  16.445   7.099 -0.2143 -0.2605  0.0791
 1270ERGO    C216214   8.268  16.526   7.368 -0.1029 -0.1680  0.0878
 1271ERGO   ROH16215   0.649   8.294   6.246 -0.1657 -0.0259 -0.0532
 1271ERGO    R116216   0.575   8.277   6.519 -0.1314 -0.0283 -0.0446
 1271ERGO    R216217   0.385   8.099   6.610  0.0168 -0.1605  0.0051
 1271ERGO    R316218   0.584   8.023   6.779  0.0898  0.0308  0.0086
 1271ERGO    R416219   0.336   7.954   6.920  0.1481 -0.0189  0.0939
 1271ERGO    R516220   0.500   8.075   6.997  0.1042  0.1076 -0.0023
 1271ERGO    C116221   0.495   7.797   7.259  0.2932  0.2433  0.1490
 1271ERGO    C216222   0.240   7.659   7.562 -0.0288 -0.1954  0.5523
 1272ERGO   ROH16223   3.406   9.724   6.459 -0.1118 -0.3153 -0.0172
 1272ERGO    R116224   3.375   9.681   6.737 -0.1463 -0.0134  0.0298
 1272ERGO    R216225   3.575   9.574   6.895 -0.2868 -0.1858  0.1012
 1272ERGO    R316226   3.534   9.798   7.042  0.0790  0.0227 -0.1012
 1272ERGO    R416227   3.560   9.584   7.240 -0.2689  0.1629  0.0949
 1272ERGO    R516228   3.396   9.726   7.224 -0.0382  0.4170 -0.0283
 1272ERGO    C116229   3.513   9.800   7.579  0.0849  0.5617 -0.0987
 1272ERGO    C216230   3.291   9.835   7.853  0.5360 -0.0240  0.1432
 1273ERGO   ROH16231   2.535  15.529   9.442 -0.0901 -0.1915 -0.0189
 1273ERGO    R116232   2.578  15.419   9.185  0.0315 -0.1272 -0.0274
 1273ERGO    R216233   2.463  15.524   8.957 -0.1103 -0.2528 -0.0184
 1273ERGO    R316234   2.720  15.532   8.869 -0.1199  0.0655 -0.0276
 1273ERGO    R416235   2.560  15.496   8.626 -0.0756 -0.2809 -0.0057
 1273ERGO    R516236   2.727  15.372   8.691  0.1021 -0.0146  0.0522
 1273ERGO    C116237   2.858  15.488   8.352 -0.0644  0.0016 -0.0068
 1273ERGO    C216238   2.921  15.541   7.956  0.2978 -0.1948  0.2201
 1274ERGO   ROH16239   6.865   3.844   9.567 -0.2964 -0.3161 -0.2036
 1274ERGO    R116240   7.008   3.805   9.326  0.0484 -0.0830 -0.0432
 1274ERGO    R216241   6.884   3.747   9.086  0.4185 -0.3868 -0.1705
 1274ERGO    R316242   7.023   3.963   8.999  0.0855 -0.1195 -0.0593
 1274ERGO    R416243   6.974   3.806   8.758  0.3681 -0.0957 -0.1351
 1274ERGO    R516244   7.166   3.878   8.828  0.2484  0.1844 -0.0814
 1274ERGO    C116245   7.157   4.043   8.485  0.0263  0.3247 -0.0100
 1274ERGO    C216246   7.152   4.169   8.114 -0.0478  0.1470 -0.1589
 1275ERGO   ROH16247   8.229   4.873   9.659  0.0115  0.2515 -0.0447
 1275ERGO    R116248   8.277   4.891   9.380  0.0135  0.1520 -0.0519
 1275ERGO    R216249   8.248   4.676   9.209  0.0114  0.0894  0.0217
 1275ERGO    R316250   8.083   4.846   9.076  0.0138  0.0456 -0.0353
 1275ERGO    R416251   8.283   4.766   8.878  0.0758  0.0750  0.0252
 1275ERGO    R516252   8.229   4.969   8.932  0.0216  0.0642 -0.0060
 1275ERGO    C116253   8.150   4.978   8.559  0.1155  0.0255 -0.0263
 1275ERGO    C216254   8.130   5.236   8.294  0.1307  0.0604 -0.4842
 1276ERGO   ROH16255  12.515  14.873   6.020 -0.0539 -0.0092  0.0794
 1276ERGO    R116256  12.553  15.092   6.196  0.2510 -0.0227  0.0354
 1276ERGO    R216257  12.402  15.128   6.424  0.1074  0.3754 -0.1134
 1276ERGO    R316258  12.646  15.138   6.545  0.0318 -0.1025  0.1060
 1276ERGO    R416259  12.454  15.206   6.757 -0.0321  0.4903 -0.1174
 1276ERGO    R516260  12.628  15.323   6.697  0.3060  0.0546 -0.0435
 1276ERGO    C116261  12.713  15.261   7.064 -0.1842  0.1085  0.0863
 1276ERGO    C216262  12.761  15.459   7.337 -0.2091  0.1688  0.1768
 1277ERGO   ROH16263  13.739  16.851   5.943  0.1080 -0.1773  0.1531
 1277ERGO    R116264  13.744  16.828   6.225 -0.0547 -0.0277  0.1688
 1277ERGO    R216265  13.937  16.950   6.381 -0.0279 -0.1122  0.1957
 1277ERGO    R316266  13.722  17.055   6.509 -0.0016  0.1482  0.0358
 1277ERGO    R416267  13.935  17.052   6.711 -0.2261 -0.4167  0.2939
 1277ERGO    R516268  13.736  16.966   6.731 -0.4149 -0.0917 -0.0217
 1277ERGO    C116269  13.731  17.210   7.024 -0.3169 -0.3492  0.2010
 1277ERGO    C216270  13.686  17.288   7.480 -0.2004  0.0531  0.1266
 1278ERGO   ROH16271   4.382  15.781   9.676 -0.0272  0.2927 -0.1025
 1278ERGO    R116272   4.404  15.826   9.398 -0.2357  0.0055 -0.1709
 1278ERGO    R216273   4.640  15.785   9.258 -0.2375  0.2036 -0.2369
 1278ERGO    R316274   4.483  15.627   9.103 -0.0794 -0.2230  0.0215
 1278ERGO    R416275   4.751  15.599   8.990 -0.1181  0.2271 -0.2038
 1278ERGO    R516276   4.570  15.654   8.882 -0.3369 -0.2041 -0.0811
 1278ERGO    C116277   4.669  15.342   8.687  0.0997 -0.1598  0.0579
 1278ERGO    C216278   4.787  15.012   8.563 -0.1692 -0.1636  0.2449
 1279ERGO   ROH16279  16.467  16.356   5.977  0.1946  0.3440  0.0184
 1279ERGO    R116280  16.344  16.383   6.231  0.0722  0.2172 -0.0278
 1279ERGO    R216281  16.416  16.227   6.447  0.0710  0.2166 -0.0390
 1279ERGO    R316282  16.450  16.468   6.569 -0.1251  0.2084  0.0406
 1279ERGO    R416283  16.437  16.274   6.789  0.4707  0.0410 -0.0338
 1279ERGO    R516284  16.316  16.454   6.767  0.1560 -0.1160  0.2285
 1279ERGO    C116285  16.483  16.527   7.102  0.5195 -0.0686  0.0440
 1279ERGO    C216286  16.681  16.597   7.298  0.5230  0.5992 -0.4228
 1280ERGO   ROH16287   8.928   6.169   6.456  0.0396 -0.0701 -0.0240
 1280ERGO    R116288   8.977   6.285   6.710 -0.0130 -0.0189 -0.0359
 1280ERGO    R216289   8.774   6.353   6.884 -0.0537 -0.0076 -0.0821
 1280ERGO    R316290   8.913   6.197   7.057 -0.0633  0.0323 -0.0313
 1280ERGO    R416291   8.806   6.414   7.223 -0.0817  0.0707 -0.0936
 1280ERGO    R516292   9.015   6.352   7.209 -0.0769  0.0700 -0.0602
 1280ERGO    C116293   8.956   6.302   7.583 -0.1071  0.1538 -0.0526
 1280ERGO    C216294   8.887   6.213   7.907 -0.0040  0.0361  0.1519
 1281ERGO   ROH16295  12.304  16.109   9.660  0.0039 -0.2210 -0.1926
 1281ERGO    R116296  12.192  16.197   9.416  0.0406 -0.0611 -0.1531
 1281ERGO    R216297  12.293  16.412   9.275  0.1544 -0.0611 -0.0728
 1281ERGO    R316298  12.304  16.232   9.071  0.0431  0.0127 -0.1452
 1281ERGO    R416299  12.352  16.492   8.943  0.2597  0.0324 -0.0320
 1281ERGO    R516300  12.201  16.345   8.887  0.1530  0.1696 -0.1134
 1281ERGO    C116301  12.396  16.369   8.560  0.2166  0.1562 -0.0764
 1281ERGO    C216302  12.397  16.289   8.287  0.2566 -0.3586 -0.2117
 1282ERGO   ROH16303  10.620   7.563   9.604  0.2188 -0.0333  0.0859
 1282ERGO    R116304  10.568   7.496   9.334  0.3233 -0.2109  0.1093
 1282ERGO    R216305  10.505   7.685   9.143 -0.1322 -0.3849  0.0810
 1282ERGO    R316306  10.713   7.572   9.009  0.1059  0.0465  0.0679
 1282ERGO    R416307  10.546   7.692   8.800 -0.3966 -0.6273  0.0396
 1282ERGO    R516308  10.614   7.485   8.809  0.1934 -0.4486  0.2216
 1282ERGO    C116309  10.765   7.591   8.474 -0.3270 -0.3634  0.0032
 1282ERGO    C216310  10.682   7.530   8.151 -0.1249 -0.2883  0.0271
 1283ERGO   ROH16311   5.429  11.279   6.410 -0.0333 -0.0367 -0.0633
 1283ERGO    R116312   5.559  11.246   6.659  0.1595 -0.0295 -0.1605
 1283ERGO    R216313   5.430  11.149   6.883  0.2749  0.1677  0.0002
 1283ERGO    R316314   5.634  10.969   6.883  0.1360  0.0078 -0.1088
 1283ERGO    R416315   5.496  10.925   7.137  0.0913 -0.0676 -0.1550
 1283ERGO    R516316   5.708  10.964   7.110  0.1196 -0.2139 -0.1104
 1283ERGO    C116317   5.726  10.626   7.286 -0.1461 -0.3546 -0.3478
 1283ERGO    C216318   5.660  10.315   7.551 -0.3008 -0.3111 -0.2375
 1284ERGO   ROH16319  15.795  17.412   9.084  0.0287  0.4946 -0.0881
 1284ERGO    R116320  15.637  17.251   8.913  0.0455  0.4091 -0.0239
 1284ERGO    R216321  15.418  17.349   8.777 -0.0535  0.2961  0.0495
 1284ERGO    R316322  15.548  17.248   8.560 -0.0800  0.3504  0.0082
 1284ERGO    R416323  15.271  17.283   8.471 -0.1604  0.0742  0.1462
 1284ERGO    R516324  15.389  17.100   8.459 -0.0022  0.1771  0.1365
 1284ERGO    C116325  15.308  17.150   8.090 -0.2475 -0.0038  0.1637
 1284ERGO    C216326  15.216  17.341   7.794  0.1453 -0.1997 -0.2166
 1285ERGO   ROH16327   3.060  10.770   6.514 -0.0648 -0.2066 -0.0658
 1285ERGO    R116328   2.922  10.610   6.703 -0.1100 -0.1316 -0.0353
 1285ERGO    R216329   3.004  10.585   6.965 -0.0751 -0.1638 -0.0501
 1285ERGO    R316330   2.750  10.664   7.019 -0.0263 -0.0360 -0.0052
 1285ERGO    R416331   2.854  10.569   7.276 -0.1180 -0.3539 -0.0792
 1285ERGO    R516332   2.670  10.504   7.178 -0.1547 -0.1344 -0.1636
 1285ERGO    C116333   2.528  10.635   7.508 -0.0972 -0.3445 -0.0541
 1285ERGO    C216334   2.438  10.497   7.810 -0.0741 -0.0836 -0.0925
 1286ERGO   ROH16335  14.792   5.007   9.581  0.0632 -0.3031 -0.0828
 1286ERGO    R116336  14.825   5.013   9.300 -0.1743 -0.0435 -0.1078
 1286ERGO    R216337  14.711   5.208   9.141  0.0911  0.3884  0.2281
 1286ERGO    R316338  14.967   5.241   9.055  0.0951 -0.0481  0.0351
 1286ERGO    R416339  14.802   5.286   8.816 -0.0477  0.3580  0.1793
 1286ERGO    R516340  14.968   5.147   8.834 -0.2738  0.0289 -0.0168
 1286ERGO    C116341  15.094   5.364   8.547 -0.1248 -0.0694 -0.0302
 1286ERGO    C216342  15.082   5.599   8.257 -0.0508 -0.2793 -0.4099
 1287ERGO   ROH16343   2.734  16.579   6.135 -0.1726  0.0615 -0.2942
 1287ERGO    R116344   2.814  16.744   6.350 -0.0763 -0.1259 -0.1835
 1287ERGO    R216345   2.720  17.002   6.382  0.1907 -0.0354 -0.1000
 1287ERGO    R316346   2.651  16.912   6.629 -0.0062 -0.0805 -0.1699
 1287ERGO    R416347   2.629  17.204   6.647  0.5243 -0.0415  0.0246
 1287ERGO    R516348   2.744  17.074   6.780  0.2745 -0.3460 -0.0463
 1287ERGO    C116349   2.510  17.236   7.034  0.5337 -0.0874  0.0314
 1287ERGO    C216350   2.359  17.439   7.277  0.0275 -0.0065 -0.2070
 1288ERGO   ROH16351   6.757   1.845   9.134  0.1537 -0.0849  0.1071
 1288ERGO    R116352   6.965   1.844   8.942  0.0705 -0.0899  0.0161
 1288ERGO    R216353   6.942   1.716   8.699 -0.0437 -0.0793  0.0187
 1288ERGO    R316354   7.009   1.960   8.600 -0.0730 -0.0784  0.0018
 1288ERGO    R416355   6.999   1.785   8.365 -0.0418 -0.0924  0.0165
 1288ERGO    R516356   7.165   1.913   8.425 -0.0625 -0.0674  0.0109
 1288ERGO    C116357   7.096   2.055   8.078 -0.0681 -0.0991 -0.0008
 1288ERGO    C216358   7.005   2.172   7.712 -0.4115  0.0779 -0.1863
 1289ERGO   ROH16359  12.738   5.486   9.725 -0.1284 -0.0513 -0.0975
 1289ERGO    R116360  12.861   5.422   9.478 -0.1410  0.0875 -0.1403
 1289ERGO    R216361  12.747   5.250   9.295  0.0007 -0.0657 -0.0855
 1289ERGO    R316362  12.782   5.460   9.125 -0.3220 -0.0291 -0.1135
 1289ERGO    R416363  12.779   5.224   8.952  0.1496 -0.0769 -0.0716
 1289ERGO    R516364  12.933   5.377   8.959 -0.1208  0.2050 -0.0534
 1289ERGO    C116365  12.831   5.405   8.592 -0.0665 -0.0490 -0.0897
 1289ERGO    C216366  12.797   5.391   8.200 -0.2357  0.0273  0.1714
 1290ERGO   ROH16367   6.119   7.957   9.794 -0.4238 -0.1097 -0.0351
 1290ERGO    R116368   6.273   7.958   9.557 -0.2035 -0.2892  0.1019
 1290ERGO    R216369   6.237   7.772   9.355 -0.3662 -0.1460 -0.0080
 1290ERGO    R316370   6.209   7.994   9.200  0.1748 -0.0187  0.0555
 1290ERGO    R416371   6.229   7.773   9.010 -0.3812 -0.0225 -0.0074
 1290ERGO    R516372   6.350   7.953   9.012  0.0726 -0.3151  0.0404
 1290ERGO    C116373   6.197   7.981   8.663  0.1180  0.1689  0.0524
 1290ERGO    C216374   6.013   8.009   8.351 -0.1188  0.1565  0.0992
 1291ERGO   ROH16375   5.848  12.164   6.682  0.0450  0.2752 -0.1666
 1291ERGO    R116376   5.928  12.258   6.936  0.0989  0.1291 -0.1288
 1291ERGO    R216377   5.889  12.518   7.018  0.0668  0.0694  0.0504
 1291ERGO    R316378   5.766  12.399   7.230  0.1534 -0.0930  0.0109
 1291ERGO    R416379   5.932  12.611   7.349  0.0295 -0.0368  0.0854
 1291ERGO    R516380   5.932  12.399   7.402  0.1646 -0.0591  0.0001
 1291ERGO    C116381   5.842  12.553   7.739  0.0892 -0.2511  0.0688
 1291ERGO    C216382   5.728  12.800   8.042 -0.2422 -0.1720 -0.1391
 1292ERGO   ROH16383   5.917   9.327  10.075  0.0001 -0.0033 -0.0309
 1292ERGO    R116384   5.913   9.231   9.808 -0.0186 -0.0284 -0.0209
 1292ERGO    R216385   5.680   9.214   9.660  0.0015  0.1477 -0.0691
 1292ERGO    R316386   5.821   9.363   9.482  0.1635  0.0117 -0.0577
 1292ERGO    R416387   5.678   9.166   9.318  0.0202  0.1140 -0.0651
 1292ERGO    R516388   5.892   9.205   9.316  0.0585 -0.0696 -0.0296
 1292ERGO    C116389   5.809   9.277   8.951  0.1832 -0.0334 -0.0521
 1292ERGO    C216390   5.811   9.213   8.609  0.2223 -0.0668 -0.1053
 1293ERGO   ROH16391  15.180   0.996   9.233  0.0788  0.0968  0.1571
 1293ERGO    R116392  15.256   1.035   8.963  0.1173 -0.0273  0.1481
 1293ERGO    R216393  15.216   0.843   8.768  0.0993 -0.1028  0.2155
 1293ERGO    R316394  15.088   1.046   8.641  0.1519 -0.1252  0.1288
 1293ERGO    R416395  15.077   0.821   8.452  0.1322 -0.1716  0.2063
 1293ERGO    R516396  15.152   1.022   8.411  0.1697 -0.2068  0.1486
 1293ERGO    C116397  14.876   0.999   8.149  0.2008 -0.2326  0.1197
 1293ERGO    C216398  14.669   0.924   7.823 -0.3097  0.1127  0.3771
 1294ERGO   ROH16399   3.121   2.629   9.336  0.0366 -0.1329 -0.1512
 1294ERGO    R116400   3.070   2.699   9.066  0.1182  0.0001 -0.1356
 1294ERGO    R216401   3.270   2.714   8.876  0.1660 -0.0413 -0.1088
 1294ERGO    R316402   3.109   2.542   8.741  0.0833  0.0951 -0.1813
 1294ERGO    R416403   3.310   2.625   8.544  0.2870 -0.1742 -0.0580
 1294ERGO    R516404   3.094   2.635   8.521  0.3259  0.0441 -0.2107
 1294ERGO    C116405   3.182   2.412   8.224  0.2798 -0.1235 -0.0964
 1294ERGO    C216406   3.211   2.476   7.927  0.1612  0.0059 -0.1741
 1295ERGO   ROH16407  14.907  15.341   6.183  0.0518 -0.0200 -0.0262
 1295ERGO    R116408  14.913  15.515   6.406  0.1592  0.1351 -0.1476
 1295ERGO    R216409  14.995  15.432   6.657 -0.0100  0.2267 -0.0599
 1295ERGO    R316410  15.166  15.642   6.635  0.2188  0.0342 -0.1572
 1295ERGO    R416411  15.218  15.531   6.901  0.0186  0.1673 -0.0618
 1295ERGO    R516412  15.170  15.738   6.854  0.2505  0.1867 -0.2242
 1295ERGO    C116413  15.508  15.786   7.023  0.2500 -0.0479 -0.1542
 1295ERGO    C216414  15.760  15.831   7.209  0.1211  0.2118 -0.3049
 1296ERGO   ROH16415   3.444  12.926   6.403  0.0859 -0.1608  0.0115
 1296ERGO    R116416   3.303  13.076   6.597 -0.0455 -0.3082  0.0316
 1296ERGO    R216417   3.271  12.991   6.858  0.2249 -0.2682  0.0795
 1296ERGO    R316418   3.378  13.233   6.916 -0.1155 -0.0765 -0.0631
 1296ERGO    R416419   3.209  13.170   7.146  0.2122 -0.3358  0.1189
 1296ERGO    R516420   3.202  13.352   7.026 -0.2098 -0.3550  0.0970
 1296ERGO    C116421   3.273  13.503   7.369 -0.1149 -0.1952  0.0081
 1296ERGO    C216422   3.452  13.716   7.583 -0.0575  0.5259  0.2451
 1297ERGO   ROH16423  17.347   4.525   9.303 -0.1476 -0.3802 -0.0157
 1297ERGO    R116424  17.340   4.452   9.029 -0.2319 -0.2173 -0.0578
 1297ERGO    R216425  17.115   4.487   8.872 -0.2153  0.0658 -0.0213
 1297ERGO    R316426  17.288   4.622   8.712 -0.1120  0.0107  0.0418
 1297ERGO    R416427  17.093   4.504   8.527 -0.2181  0.2557 -0.0130
 1297ERGO    R516428  17.310   4.484   8.517 -0.2308  0.0877 -0.0296
 1297ERGO    C116429  17.243   4.641   8.177 -0.1227  0.3145  0.0512
 1297ERGO    C216430  17.251   4.750   7.982 -0.0592 -0.1579  0.0823
 1298ERGO   ROH16431   4.579  17.734   6.052 -0.1272 -0.0705  0.1672
 1298ERGO    R116432   4.433  17.726   6.293 -0.2665  0.0374  0.0878
 1298ERGO    R216433   4.545  17.645   6.533 -0.4966 -0.1989  0.1205
 1298ERGO    R316434   4.453  17.886   6.620 -0.2234 -0.1036  0.1545
 1298ERGO    R416435   4.410  17.704   6.846 -0.3940 -0.0779  0.1427
 1298ERGO    R516436   4.261  17.832   6.752 -0.2674  0.0951  0.1740
 1298ERGO    C116437   4.246  17.964   7.110 -0.0778  0.0818  0.1875
 1298ERGO    C216438   4.282  17.878   7.364 -0.0571 -0.0914 -0.0688
 1299ERGO   ROH16439  16.999   9.617   6.049  0.1882 -0.0765 -0.0026
 1299ERGO    R116440  16.925   9.684   6.314  0.1591  0.0320 -0.0385
 1299ERGO    R216441  16.680   9.615   6.422  0.0884  0.2074 -0.0868
 1299ERGO    R316442  16.834   9.505   6.617 -0.0316  0.1596 -0.0178
 1299ERGO    R416443  16.558   9.477   6.714 -0.0933  0.1627 -0.1815
 1299ERGO    R516444  16.725   9.568   6.821 -0.1459  0.1313 -0.0676
 1299ERGO    C116445  16.632   9.293   7.068 -0.3114  0.0920 -0.1718
 1299ERGO    C216446  16.624   9.088   7.440 -0.1992  0.0900  0.0515
 1300ERGO   ROH16447   6.463   3.511   9.567  0.0806 -0.0667  0.0152
 1300ERGO    R116448   6.561   3.525   9.302  0.0662  0.0587  0.0162
 1300ERGO    R216449   6.557   3.308   9.131  0.2611  0.0786 -0.0120
 1300ERGO    R316450   6.425   3.481   8.967  0.1031 -0.0185  0.0106
 1300ERGO    R416451   6.513   3.264   8.791  0.3420  0.1010 -0.0261
 1300ERGO    R516452   6.550   3.477   8.763  0.1316  0.1479  0.0218
 1300ERGO    C116453   6.362   3.399   8.440  0.2408  0.0229 -0.0131
 1300ERGO    C216454   6.200   3.395   8.198 -0.1381 -0.1458  0.0496
 1301ERGO   ROH16455   6.956   5.110   9.494 -0.0543 -0.0722  0.0138
 1301ERGO    R116456   6.792   5.086   9.265  0.0405 -0.0452 -0.0565
 1301ERGO    R216457   6.864   5.188   9.019  0.1344 -0.0026 -0.0082
 1301ERGO    R316458   6.817   4.934   8.935  0.1815  0.0086 -0.0716
 1301ERGO    R416459   6.828   5.095   8.688  0.3075  0.0488 -0.0436
 1301ERGO    R516460   6.667   4.960   8.750  0.2755  0.0359 -0.1471
 1301ERGO    C116461   6.763   4.801   8.416  0.4525  0.0891 -0.1238
 1301ERGO    C216462   6.610   4.707   8.070  0.0933 -0.0381  0.1473
 1302ERGO   ROH16463   5.622   2.280   9.317  0.0164  0.0825  0.0189
 1302ERGO    R116464   5.535   2.352   9.057  0.0103  0.0506  0.0110
 1302ERGO    R216465   5.612   2.214   8.830 -0.0070  0.0107  0.0244
 1302ERGO    R316466   5.344   2.196   8.789 -0.0099  0.0217  0.0440
 1302ERGO    R416467   5.463   2.157   8.524 -0.0429  0.1120  0.0232
 1302ERGO    R516468   5.310   2.302   8.577 -0.0361  0.0896  0.0856
 1302ERGO    C116469   5.125   2.107   8.307 -0.0665  0.1813  0.0410
 1302ERGO    C216470   4.931   1.860   8.179 -0.4841 -0.0001  0.0587
 1303ERGO   ROH16471  17.146   1.646   8.985 -0.0483 -0.0219  0.0338
 1303ERGO    R116472  17.007   1.787   8.782  0.0215  0.1306  0.0911
 1303ERGO    R216473  17.088   2.035   8.691  0.2751  0.0288  0.0380
 1303ERGO    R316474  17.082   1.912   8.449  0.0121  0.0193  0.0462
 1303ERGO    R416475  17.113   2.197   8.387  0.0569  0.0098  0.0082
 1303ERGO    R516476  16.960   2.063   8.309 -0.0642  0.0584  0.1509
 1303ERGO    C116477  17.122   2.176   7.982 -0.3170 -0.0103 -0.0015
 1303ERGO    C216478  17.242   2.125   7.799  0.2105 -0.3250  0.0323
 1304ERGO   ROH16479  16.422   2.972   6.181  0.2207  0.1518  0.1301
 1304ERGO    R116480  16.569   2.934   6.420  0.1442  0.3570  0.2119
 1304ERGO    R216481  16.542   3.100   6.639 -0.3544  0.2155  0.2693
 1304ERGO    R316482  16.492   2.866   6.769  0.0428  0.0455  0.1335
 1304ERGO    R416483  16.409   3.077   6.957 -0.3031 -0.1967  0.2663
 1304ERGO    R516484  16.548   2.913   6.998 -0.0216  0.0059  0.1589
 1304ERGO    C116485  16.285   2.844   7.265  0.0999 -0.5963  0.1371
 1304ERGO    C216486  16.114   2.693   7.392  0.0079 -0.3037 -0.4887
 1305ERGO   ROH16487  16.969   5.706   5.804 -0.1283 -0.0682 -0.0996
 1305ERGO    R116488  17.146   5.663   6.020 -0.1631 -0.1364 -0.0842
 1305ERGO    R216489  17.235   5.867   6.183  0.1395 -0.1176 -0.2613
 1305ERGO    R316490  17.139   5.708   6.381 -0.0660  0.1738 -0.1187
 1305ERGO    R416491  17.322   5.892   6.517  0.4325 -0.1489 -0.3324
 1305ERGO    R516492  17.326   5.675   6.527 -0.0269 -0.1606 -0.2394
 1305ERGO    C116493  17.282   5.757   6.897  0.4100  0.1064 -0.2399
 1305ERGO    C216494  17.318   5.932   7.278  0.0107 -0.0340 -0.3307
 1306ERGO   ROH16495   8.430  18.643   9.372  0.0917  0.3948 -0.1082
 1306ERGO    R116496   8.439  18.678   9.092 -0.0482  0.1621 -0.1448
 1306ERGO    R216497   8.608  18.532   8.929  0.0468  0.1956 -0.0776
 1306ERGO    R316498   8.377  18.474   8.797  0.0570 -0.1618  0.0527
 1306ERGO    R416499   8.587  18.437   8.597 -0.0053  0.3588 -0.1222
 1306ERGO    R516500   8.410  18.562   8.577 -0.2623  0.0398  0.0793
 1306ERGO    C116501   8.359  18.327   8.280 -0.0260  0.1182 -0.0258
 1306ERGO    C216502   8.300  18.152   7.896  0.2199 -0.1240  0.2483
 1307ERGO   ROH16503   9.739  16.923   9.611 -0.1155 -0.2231 -0.1145
 1307ERGO    R116504   9.811  17.030   9.359 -0.0520 -0.0979 -0.0447
 1307ERGO    R216505   9.961  16.888   9.175 -0.0952 -0.0484 -0.1204
 1307ERGO    R316506   9.752  16.945   9.010 -0.0606  0.1383 -0.1018
 1307ERGO    R416507   9.980  16.905   8.830 -0.0878  0.0588 -0.1151
 1307ERGO    R516508   9.848  17.078   8.836  0.0206  0.1383 -0.0561
 1307ERGO    C116509   9.795  16.968   8.475 -0.0508  0.2964 -0.0944
 1307ERGO    C216510   9.743  16.895   8.065 -0.0306  0.1283 -0.0278
 1308ERGO   ROH16511  15.877   2.697   6.158  0.0338 -0.0980 -0.0972
 1308ERGO    R116512  15.698   2.559   6.329 -0.1007  0.0179 -0.1437
 1308ERGO    R216513  15.782   2.368   6.509 -0.2666 -0.0038 -0.0902
 1308ERGO    R316514  15.649   2.524   6.688 -0.2496  0.0877 -0.1559
 1308ERGO    R416515  15.767   2.308   6.849 -0.1596  0.2154 -0.0449
 1308ERGO    R516516  15.557   2.368   6.845 -0.1745  0.1696 -0.0272
 1308ERGO    C116517  15.634   2.419   7.215 -0.0814  0.4288 -0.0802
 1308ERGO    C216518  15.899   2.226   7.570 -0.1040  0.0079  0.0952
 1309ERGO   ROH16519  17.000   3.518   9.326  0.1982  0.0617 -0.1266
 1309ERGO    R116520  17.032   3.486   9.047  0.1616  0.1189 -0.1384
 1309ERGO    R216521  16.821   3.432   8.878  0.1418  0.1148 -0.1201
 1309ERGO    R316522  16.912   3.652   8.746  0.0875  0.1565 -0.0864
 1309ERGO    R416523  16.772   3.495   8.542  0.4102  0.0005 -0.1824
 1309ERGO    R516524  16.977   3.570   8.531  0.3577  0.1621 -0.0066
 1309ERGO    C116525  16.829   3.738   8.222  0.5155 -0.0268 -0.1871
 1309ERGO    C216526  16.731   3.644   7.979  0.0113 -0.1088  0.1395
 1310ERGO   ROH16527   7.543   8.106   9.661 -0.2261  0.2825 -0.0522
 1310ERGO    R116528   7.628   8.216   9.415 -0.1529  0.2096 -0.0615
 1310ERGO    R216529   7.746   8.063   9.216 -0.0966  0.1456  0.0096
 1310ERGO    R316530   7.548   8.168   9.063 -0.0568  0.1052 -0.0670
 1310ERGO    R416531   7.734   8.049   8.871 -0.0376  0.0450  0.0122
 1310ERGO    R516532   7.660   8.254   8.870 -0.0246  0.0388 -0.0691
 1310ERGO    C116533   7.541   8.139   8.526  0.0340 -0.0512 -0.0582
 1310ERGO    C216534   7.701   8.133   8.225  0.3625 -0.1813 -0.0731
 1311ERGO   ROH16535  15.821   4.007   5.656  0.2481  0.2490 -0.0236
 1311ERGO    R116536  15.762   3.888   5.907 -0.0266  0.4183 -0.0036
 1311ERGO    R216537  15.957   3.775   6.066 -0.2949 -0.1643 -0.0677
 1311ERGO    R316538  15.856   3.944   6.254  0.2599  0.1527 -0.0339
 1311ERGO    R416539  15.949   3.710   6.406 -0.5682 -0.2496 -0.0877
 1311ERGO    R516540  15.750   3.799   6.413 -0.2822  0.4580 -0.0930
 1311ERGO    C116541  15.850   3.831   6.780 -0.2066 -0.0018 -0.0676
 1311ERGO    C216542  15.920   3.872   7.034 -0.0787  0.0116  0.0892
 1312ERGO   ROH16543   8.495   8.576   9.739 -0.0574 -0.1717 -0.0149
 1312ERGO    R116544   8.325   8.729   9.573 -0.0315 -0.0479  0.0712
 1312ERGO    R216545   8.405   8.966   9.456  0.0495 -0.0576  0.1081
 1312ERGO    R316546   8.326   8.843   9.227 -0.0756  0.0377  0.0991
 1312ERGO    R416547   8.388   9.118   9.146  0.0454  0.0247  0.1482
 1312ERGO    R516548   8.202   9.011   9.109 -0.0202  0.1302  0.1717
 1312ERGO    C116549   8.305   9.091   8.751 -0.0743  0.1620  0.1633
 1312ERGO    C216550   8.474   9.172   8.449 -0.0161  0.1801  0.1176
 1313ERGO   ROH16551   7.366  11.425   9.691  0.0492  0.4267 -0.0829
 1313ERGO    R116552   7.175  11.536   9.514  0.0116  0.2701 -0.1435
 1313ERGO    R216553   7.218  11.553   9.241  0.0493  0.2313 -0.1423
 1313ERGO    R316554   6.980  11.421   9.229  0.1315  0.0829 -0.1508
 1313ERGO    R416555   7.011  11.544   8.964  0.1225 -0.0093 -0.1910
 1313ERGO    R516556   6.840  11.564   9.097  0.0775 -0.0577 -0.2450
 1313ERGO    C116557   6.668  11.415   8.792  0.2423 -0.2886 -0.2272
 1313ERGO    C216558   6.321  11.397   8.705 -0.0343 -0.0300 -0.1078
 1314ERGO   ROH16559  10.736   2.191   9.523  0.1870 -0.3532 -0.0732
 1314ERGO    R116560  10.639   2.294   9.277  0.1740 -0.1305  0.0229
 1314ERGO    R216561  10.795   2.310   9.050  0.0917 -0.1545 -0.0386
 1314ERGO    R316562  10.591   2.170   8.939 -0.0892  0.0928 -0.0246
 1314ERGO    R416563  10.724   2.301   8.712  0.1523 -0.1958 -0.0503
 1314ERGO    R516564  10.512   2.311   8.762  0.1537  0.1333 -0.1019
 1314ERGO    C116565  10.491   2.164   8.411  0.0176  0.0123 -0.0441
 1314ERGO    C216566  10.425   2.314   8.036  0.3599  0.2660 -0.2567
 1315ERGO   ROH16567   7.146   7.067   9.517 -0.0380  0.2025 -0.1427
 1315ERGO    R116568   7.002   6.952   9.302 -0.0160  0.1459 -0.1272
 1315ERGO    R216569   6.779   7.071   9.191 -0.0272  0.0975 -0.1559
 1315ERGO    R316570   6.920   7.045   8.960 -0.0167  0.0742 -0.1470
 1315ERGO    R416571   6.665   7.167   8.879 -0.0046  0.0890 -0.1669
 1315ERGO    R516572   6.754   6.985   8.797 -0.0133  0.0772 -0.1523
 1315ERGO    C116573   6.730   7.197   8.480  0.0185  0.0622 -0.1649
 1315ERGO    C216574   6.854   7.537   8.285 -0.3793  0.0779 -0.0506
 1316ERGO   ROH16575   5.973   1.993   9.519 -0.1632 -0.2005  0.0648
 1316ERGO    R116576   5.996   1.882   9.260  0.0252 -0.0346  0.0075
 1316ERGO    R216577   5.782   1.865   9.086  0.0732 -0.2139 -0.0393
 1316ERGO    R316578   5.950   1.998   8.918 -0.0607  0.0934  0.0623
 1316ERGO    R416579   5.794   1.822   8.743  0.1474  0.0454 -0.0713
 1316ERGO    R516580   6.011   1.835   8.754  0.1327  0.2788 -0.0519
 1316ERGO    C116581   5.958   1.922   8.386  0.0649  0.4850  0.0054
 1316ERGO    C216582   5.858   1.881   7.961 -0.2077 -0.0256  0.0898
 1317ERGO   ROH16583   0.797   9.500   9.444  0.0692 -0.0959  0.0211
 1317ERGO    R116584   0.773   9.675   9.223 -0.0680 -0.1050  0.0285
 1317ERGO    R216585   0.941   9.662   9.004 -0.0856  0.0076  0.0114
 1317ERGO    R316586   0.708   9.644   8.866 -0.0893 -0.1359  0.0342
 1317ERGO    R416587   0.914   9.676   8.660 -0.1227 -0.0025  0.0134
 1317ERGO    R516588   0.734   9.798   8.684 -0.1996 -0.1129  0.0337
 1317ERGO    C116589   0.680   9.667   8.330 -0.1479 -0.1432  0.0360
 1317ERGO    C216590   0.776   9.697   7.944 -0.1146 -0.2591 -0.2887
 1318ERGO   ROH16591   3.903  13.910   6.611 -0.1055 -0.0584 -0.2185
 1318ERGO    R116592   4.081  14.085   6.747 -0.0853 -0.0827 -0.2167
 1318ERGO    R216593   4.062  14.360   6.728 -0.1538 -0.0846 -0.0843
 1318ERGO    R316594   4.053  14.345   6.999 -0.0282 -0.2013 -0.0835
 1318ERGO    R416595   4.052  14.632   6.940 -0.2346 -0.1677  0.0216
 1318ERGO    R516596   4.189  14.528   7.073 -0.1057 -0.1392 -0.0750
 1318ERGO    C116597   4.038  14.777   7.319 -0.1637 -0.3256  0.0839
 1318ERGO    C216598   3.802  14.800   7.529  0.0205 -0.4001  0.2932
 1319ERGO   ROH16599   7.414   7.289   6.377  0.0085  0.0666  0.1124
 1319ERGO    R116600   7.444   7.319   6.656 -0.0963  0.0421  0.1268
 1319ERGO    R216601   7.304   7.166   6.838  0.0321 -0.1615  0.0589
 1319ERGO    R316602   7.551   7.110   6.935  0.0756  0.1033  0.1081
 1319ERGO    R416603   7.368   7.035   7.151  0.0946 -0.2551  0.0070
 1319ERGO    R516604   7.539   7.169   7.167 -0.0800 -0.0400  0.1387
 1319ERGO    C116605   7.638   6.906   7.424  0.1720 -0.0610  0.0229
 1319ERGO    C216606   7.747   6.595   7.660 -0.1232  0.3067  0.2536
 1320ERGO   ROH16607   0.899   0.949   9.541  0.1727 -0.1445  0.0663
 1320ERGO    R116608   0.858   1.059   9.283 -0.0624 -0.1725  0.0899
 1320ERGO    R216609   1.067   1.114   9.110 -0.1860  0.1933  0.0532
 1320ERGO    R316610   0.924   0.957   8.939  0.0303 -0.0188  0.0604
 1320ERGO    R416611   1.121   1.091   8.769 -0.1622  0.2743  0.0512
 1320ERGO    R516612   0.905   1.088   8.740 -0.1670 -0.0394  0.0604
 1320ERGO    C116613   1.018   0.931   8.411  0.0547  0.1225  0.0566
 1320ERGO    C216614   0.947   1.003   8.084 -0.1827  0.3624  0.6216
 1321ERGO   ROH16615   0.551  10.509   9.726  0.0221  0.1816  0.0385
 1321ERGO    R116616   0.582  10.643   9.478 -0.0474  0.1540  0.0152
 1321ERGO    R216617   0.751  10.552   9.280  0.0416  0.2370  0.0557
 1321ERGO    R316618   0.527  10.566   9.127  0.0493  0.0425  0.0230
 1321ERGO    R416619   0.750  10.590   8.937  0.0622  0.2346  0.0548
 1321ERGO    R516620   0.582  10.728   8.958 -0.0627  0.0916  0.0302
 1321ERGO    C116621   0.540  10.625   8.592  0.0815  0.0507  0.0238
 1321ERGO    C216622   0.692  10.678   8.150 -0.0699  0.0011  0.1146
 1322ERGO   ROH16623  10.154   2.058   6.204 -0.0207 -0.1632 -0.0315
 1322ERGO    R116624  10.286   1.922   6.414 -0.1418 -0.1274  0.0693
 1322ERGO    R216625  10.523   2.011   6.523 -0.0489 -0.2684 -0.0128
 1322ERGO    R316626  10.385   1.996   6.756 -0.0560  0.0479  0.0075
 1322ERGO    R416627  10.654   2.082   6.835  0.0156 -0.1031 -0.0765
 1322ERGO    R516628  10.544   1.912   6.915 -0.1219  0.0549  0.0764
 1322ERGO    C116629  10.600   2.110   7.236  0.0464  0.2900 -0.0945
 1322ERGO    C216630  10.733   2.035   7.563 -0.1318 -0.0106  0.1755
 1323ERGO   ROH16631  18.332  14.256   6.189  0.0583 -0.0772  0.1872
 1323ERGO    R116632  18.361  14.454   6.390 -0.0537 -0.1093  0.2357
 1323ERGO    R216633  18.320  14.401   6.658  0.1540 -0.2465  0.2423
 1323ERGO    R316634  18.570  14.504   6.683  0.0555  0.0289  0.1358
 1323ERGO    R416635  18.488  14.442   6.957  0.3104 -0.2483  0.1559
 1323ERGO    R516636  18.562  14.633   6.884  0.0392 -0.1109  0.2271
 1323ERGO    C116637  18.821  14.563   7.155  0.3090  0.0091  0.0055
 1323ERGO    C216638  18.898  14.510   7.472 -0.0720  0.0311 -0.0205
 1324ERGO   ROH16639   6.895  16.491   5.886  0.0001 -0.0641  0.0414
 1324ERGO    R116640   7.063  16.494   6.114  0.1038 -0.1926 -0.0316
 1324ERGO    R216641   7.118  16.725   6.255  0.3092 -0.2409 -0.0288
 1324ERGO    R316642   7.029  16.579   6.466  0.3117 -0.2098 -0.0062
 1324ERGO    R416643   7.201  16.785   6.585  0.2081 -0.1103 -0.0264
 1324ERGO    R516644   7.216  16.570   6.615  0.2798 -0.0961  0.0423
 1324ERGO    C116645   7.166  16.683   6.976  0.1516 -0.0051 -0.0038
 1324ERGO    C216646   6.983  16.893   7.224  0.0576 -0.2379  0.4149
 1325ERGO   ROH16647  10.471  15.204   6.371 -0.0104  0.0819  0.0198
 1325ERGO    R116648  10.338  15.423   6.492  0.0002  0.0908  0.0152
 1325ERGO    R216649  10.249  15.417   6.753  0.0361  0.1157  0.0272
 1325ERGO    R316650  10.397  15.645   6.774  0.0323  0.1220 -0.0156
 1325ERGO    R416651  10.223  15.647   7.010  0.1455  0.0794  0.0711
 1325ERGO    R516652  10.244  15.806   6.863  0.0638  0.1007  0.0802
 1325ERGO    C116653  10.346  15.994   7.179  0.2058  0.0644  0.0564
 1325ERGO    C216654  10.480  16.140   7.474 -0.1155  0.1741  0.0277
 1326ERGO   ROH16655   2.942   7.120   6.427 -0.1599 -0.0181 -0.0788
 1326ERGO    R116656   2.926   6.943   6.648 -0.1015  0.0149 -0.0468
 1326ERGO    R216657   3.132   6.915   6.830 -0.0134 -0.0250 -0.1441
 1326ERGO    R316658   2.936   6.972   7.011  0.0938  0.0624 -0.0559
 1326ERGO    R416659   3.137   6.821   7.163  0.0367 -0.1268 -0.1745
 1326ERGO    R516660   2.924   6.776   7.148  0.0009  0.0329 -0.1105
 1326ERGO    C116661   2.956   6.819   7.526  0.1665 -0.1039 -0.1093
 1326ERGO    C216662   3.070   6.568   7.734  0.0385  0.1516 -0.0801
 1327ERGO   ROH16663   0.746   5.921   9.222 -0.0454 -0.0572 -0.0800
 1327ERGO    R116664   0.729   5.928   8.940  0.0694 -0.1457 -0.0904
 1327ERGO    R216665   0.699   6.164   8.799 -0.1242 -0.2104 -0.1617
 1327ERGO    R316666   0.919   6.075   8.667  0.0308 -0.0060 -0.0419
 1327ERGO    R416667   0.732   6.153   8.455  0.0992 -0.1272 -0.1442
 1327ERGO    R516668   0.832   5.960   8.475  0.2452 -0.0465 -0.1162
 1327ERGO    C116669   0.958   6.063   8.131  0.3747  0.1132 -0.0215
 1327ERGO    C216670   0.990   6.025   7.813 -0.0872 -0.1270  0.0156
 1328ERGO   ROH16671   3.868  18.643   9.008  0.2493 -0.1211  0.1230
 1328ERGO    R116672   4.010  18.570   8.774  0.2360 -0.0525  0.0935
 1328ERGO    R216673   3.892  18.567   8.524  0.1369 -0.2709  0.1385
 1328ERGO    R316674   4.101  18.729   8.460 -0.0632 -0.0648 -0.0008
 1328ERGO    R416675   4.033  18.591   8.210  0.1199 -0.3695  0.1225
 1328ERGO    R516676   4.230  18.600   8.304  0.1045 -0.0385  0.1192
 1328ERGO    C116677   4.311  18.757   7.966 -0.0779 -0.2333 -0.0177
 1328ERGO    C216678   4.168  18.897   7.646 -0.1150 -0.0614 -0.0350
 1329ERGO   ROH16679  12.543   5.968   9.629  0.0473  0.3472 -0.0776
 1329ERGO    R116680  12.608   5.848   9.381 -0.0999  0.0230  0.0360
 1329ERGO    R216681  12.432   5.685   9.244 -0.4353  0.3725  0.0414
 1329ERGO    R316682  12.480   5.858   9.040  0.1263  0.1336 -0.0486
 1329ERGO    R416683  12.348   5.628   8.914 -0.7139  0.4960  0.0877
 1329ERGO    R516684  12.539   5.717   8.856 -0.3929 -0.1775  0.0003
 1329ERGO    C116685  12.344   5.758   8.530 -0.3489  0.3436  0.0304
 1329ERGO    C216686  12.339   5.654   8.249  0.0128  0.2663 -0.1039
 1330ERGO   ROH16687  12.361  11.763   9.677 -0.4452 -0.1180  0.0465
 1330ERGO    R116688  12.285  11.899   9.440 -0.0558  0.0851  0.0302
 1330ERGO    R216689  12.470  12.003   9.263  0.2536 -0.3231  0.0968
 1330ERGO    R316690  12.332  11.853   9.082 -0.0430  0.0038  0.0426
 1330ERGO    R416691  12.453  12.069   8.924  0.3623 -0.1574  0.1225
 1330ERGO    R516692  12.242  12.014   8.929  0.2517  0.2395  0.1073
 1330ERGO    C116693  12.313  11.967   8.557  0.1473  0.2458  0.0864
 1330ERGO    C216694  12.314  11.814   8.321 -0.0960  0.2534 -0.1186
 1331ERGO   ROH16695   2.402   3.147   5.648 -0.1378 -0.2691 -0.0860
 1331ERGO    R116696   2.390   3.265   5.905 -0.0510 -0.1379 -0.1403
 1331ERGO    R216697   2.152   3.298   6.042  0.0020 -0.1359 -0.0450
 1331ERGO    R316698   2.283   3.163   6.238  0.1344  0.0036 -0.0360
 1331ERGO    R416699   2.063   3.298   6.376  0.0495 -0.1399 -0.0326
 1331ERGO    R516700   2.274   3.309   6.428  0.0484  0.0336 -0.0638
 1331ERGO    C116701   2.134   3.170   6.754  0.2015 -0.0113 -0.0169
 1331ERGO    C216702   2.011   3.126   7.179 -0.1029  0.0097 -0.0548
 1332ERGO   ROH16703  14.475   4.735   5.932 -0.0102 -0.0487  0.1239
 1332ERGO    R116704  14.455   4.526   6.122 -0.2346  0.0263  0.1860
 1332ERGO    R216705  14.638   4.492   6.326 -0.1504 -0.2280  0.0720
 1332ERGO    R316706  14.416   4.499   6.483 -0.0426  0.1807  0.2201
 1332ERGO    R416707  14.640   4.482   6.672  0.0610 -0.2777  0.0707
 1332ERGO    R516708  14.467   4.350   6.664 -0.2069  0.0532  0.1644
 1332ERGO    C116709  14.433   4.482   7.020  0.2853  0.0770  0.2090
 1332ERGO    C216710  14.553   4.363   7.364  0.2721 -0.4626  0.3982
 1333ERGO   ROH16711  10.111  12.797   9.777  0.0738  0.1303  0.0275
 1333ERGO    R116712  10.343  12.732   9.630  0.0239 -0.1303  0.0597
 1333ERGO    R216713  10.345  12.540   9.431 -0.1988 -0.0366 -0.0363
 1333ERGO    R316714  10.447  12.742   9.281  0.1330 -0.1027  0.0928
 1333ERGO    R416715  10.398  12.525   9.090 -0.3542  0.1395 -0.0698
 1333ERGO    R516716  10.586  12.632   9.119 -0.1336 -0.2396 -0.0480
 1333ERGO    C116717  10.525  12.706   8.750 -0.1334  0.1799  0.0318
 1333ERGO    C216718  10.396  12.967   8.407  0.0235 -0.0598 -0.0240
 1334ERGO   ROH16719  18.077   2.231   9.523 -0.0156 -0.1967 -0.1390
 1334ERGO    R116720  18.075   2.439   9.331 -0.1097 -0.1874 -0.1296
 1334ERGO    R216721  18.283   2.619   9.304 -0.3050  0.0809  0.0618
 1334ERGO    R316722  18.278   2.537   9.045  0.0223  0.0787  0.0527
 1334ERGO    R416723  18.286   2.829   9.030 -0.2646  0.0830  0.0646
 1334ERGO    R516724  18.141   2.698   8.934 -0.0399 -0.0640 -0.0747
 1334ERGO    C116725  18.282   2.875   8.627  0.0659  0.0822  0.0577
 1334ERGO    C216726  18.388   2.944   8.294  0.2709 -0.2921 -0.1419
 1335ERGO   ROH16727  11.182   1.404   6.105 -0.0167  0.0267 -0.0143
 1335ERGO    R116728  11.154   1.373   6.385 -0.2214  0.1444 -0.0192
 1335ERGO    R216729  10.908   1.358   6.509 -0.3201 -0.1258 -0.2287
 1335ERGO    R316730  11.009   1.127   6.610 -0.0844  0.0648 -0.0178
 1335ERGO    R416731  10.784   1.193   6.786 -0.2052 -0.0536 -0.1340
 1335ERGO    R516732  10.989   1.153   6.848 -0.1760  0.2265 -0.0438
 1335ERGO    C116733  10.806   0.880   7.043  0.0831  0.1673  0.1191
 1335ERGO    C216734  10.763   0.638   7.200  0.2789 -0.0824  0.3177
 1336ERGO   ROH16735   9.139   4.470   9.441  0.1016  0.1031  0.1119
 1336ERGO    R116736   9.149   4.628   9.206  0.2815  0.0341  0.0711
 1336ERGO    R216737   9.331   4.583   9.004  0.0733 -0.3896 -0.0332
 1336ERGO    R316738   9.108   4.573   8.849 -0.0519  0.0291  0.1067
 1336ERGO    R416739   9.330   4.573   8.658 -0.1596 -0.4516 -0.0330
 1336ERGO    R516740   9.161   4.710   8.660  0.1077 -0.1055  0.0513
 1336ERGO    C116741   9.120   4.558   8.312 -0.4127 -0.0947  0.0984
 1336ERGO    C216742   9.169   4.348   8.015 -0.1372 -0.0111 -0.0948
 1337ERGO   ROH16743   8.950  16.455   5.851 -0.0869  0.1881 -0.0917
 1337ERGO    R116744   8.930  16.477   6.132 -0.0974  0.1010 -0.0863
 1337ERGO    R216745   8.991  16.268   6.303 -0.1568  0.0360 -0.1553
 1337ERGO    R316746   9.157  16.452   6.416 -0.1215 -0.0421 -0.0760
 1337ERGO    R416747   9.202  16.206   6.569 -0.4918 -0.0236  0.1045
 1337ERGO    R516748   9.150  16.402   6.650 -0.4191  0.0718 -0.0484
 1337ERGO    C116749   9.481  16.342   6.830 -0.6536 -0.1316  0.3300
 1337ERGO    C216750   9.824  16.346   6.989 -0.0551  0.2188 -0.3220
 1338ERGO   ROH16751   5.388  12.467   9.848  0.2057  0.0861 -0.1420
 1338ERGO    R116752   5.273  12.493   9.591 -0.0235  0.1177 -0.0386
 1338ERGO    R216753   5.272  12.731   9.452  0.0508  0.0832 -0.0994
 1338ERGO    R316754   5.388  12.581   9.257 -0.2680 -0.0721 -0.1767
 1338ERGO    R416755   5.339  12.842   9.131  0.3379  0.1307 -0.0254
 1338ERGO    R516756   5.275  12.648   9.056 -0.1037  0.3119 -0.1512
 1338ERGO    C116757   5.488  12.766   8.762  0.2058  0.0127 -0.0549
 1338ERGO    C216758   5.745  12.743   8.541 -0.3082 -0.1149  0.1723
 1339ERGO   ROH16759   8.378  12.808   6.406  0.0186 -0.2927  0.0667
 1339ERGO    R116760   8.346  12.845   6.685  0.1400 -0.3447  0.0873
 1339ERGO    R216761   8.549  12.793   6.865  0.3506 -0.0048 -0.0465
 1339ERGO    R316762   8.500  13.049   6.944 -0.0290 -0.0797 -0.0156
 1339ERGO    R416763   8.625  12.922   7.177  0.2593  0.0936 -0.0638
 1339ERGO    R516764   8.435  13.029   7.173  0.0799 -0.2024  0.0086
 1339ERGO    C116765   8.624  13.237   7.431 -0.1502  0.0805 -0.0449
 1339ERGO    C216766   8.717  13.108   7.867 -0.2789  0.1870  0.2980
 1340ERGO   ROH16767  14.395  13.287   9.574  0.2804 -0.3053 -0.1349
 1340ERGO    R116768  14.415  13.400   9.315  0.2898 -0.1922 -0.0854
 1340ERGO    R216769  14.599  13.312   9.129  0.1886 -0.2197 -0.1706
 1340ERGO    R316770  14.378  13.283   8.972  0.1324 -0.0024 -0.1356
 1340ERGO    R416771  14.589  13.370   8.788  0.1406 -0.0116 -0.1352
 1340ERGO    R516772  14.393  13.462   8.815  0.1968  0.0854 -0.0331
 1340ERGO    C116773  14.376  13.377   8.443  0.0600  0.3135 -0.0818
 1340ERGO    C216774  14.252  13.365   8.131 -0.0217  0.1864  0.1985
 1341ERGO   ROH16775  15.224   0.117   9.434 -0.2057  0.0392  0.0709
 1341ERGO    R116776  15.374   0.067   9.200 -0.1998  0.2171  0.0358
 1341ERGO    R216777  15.434  -0.188   9.113  0.1183  0.2857  0.0465
 1341ERGO    R316778  15.320  -0.102   8.882 -0.0607  0.1120  0.0662
 1341ERGO    R416779  15.464  -0.346   8.807  0.1456  0.2234  0.0805
 1341ERGO    R516780  15.483  -0.150   8.714 -0.0796  0.2190  0.0144
 1341ERGO    C116781  15.374  -0.357   8.412 -0.0067  0.0241  0.1190
 1341ERGO    C216782  15.458  -0.564   8.171  0.0274 -0.0189 -0.1455
 1342ERGO   ROH16783   8.676   8.741   5.999  0.0666 -0.0549  0.0147
 1342ERGO    R116784   8.580   8.728   6.265  0.0258 -0.0582 -0.0001
 1342ERGO    R216785   8.706   8.580   6.462  0.0252 -0.0203  0.0304
 1342ERGO    R316786   8.704   8.816   6.596 -0.0459 -0.0113  0.0139
 1342ERGO    R416787   8.744   8.613   6.804  0.1305  0.0278  0.0147
 1342ERGO    R516788   8.590   8.767   6.801  0.0527 -0.0513  0.0582
 1342ERGO    C116789   8.764   8.854   7.129  0.1252  0.0643 -0.0100
 1342ERGO    C216790   8.726   8.699   7.544  0.0986 -0.1578  0.1284
 1343ERGO   ROH16791  12.312  13.219   9.820 -0.1747  0.1436  0.1423
 1343ERGO    R116792  12.172  13.165   9.580 -0.0741  0.1022  0.0917
 1343ERGO    R216793  12.083  13.366   9.411 -0.0011  0.0748  0.0156
 1343ERGO    R316794  12.223  13.225   9.225  0.0791  0.0384  0.1035
 1343ERGO    R416795  11.984  13.316   9.083  0.1034 -0.0704  0.0051
 1343ERGO    R516796  12.056  13.112   9.097  0.1441 -0.0457  0.0983
 1343ERGO    C116797  12.058  13.156   8.718  0.2395 -0.1891  0.0816
 1343ERGO    C216798  11.935  12.942   8.443  0.1543  0.1406 -0.3282
 1344ERGO   ROH16799   5.542   3.405   9.225  0.2149  0.0617 -0.1447
 1344ERGO    R116800   5.429   3.358   8.970  0.1468  0.1245 -0.1262
 1344ERGO    R216801   5.256   3.536   8.849  0.1795  0.1919 -0.0711
 1344ERGO    R316802   5.434   3.520   8.644  0.1307  0.1558 -0.1114
 1344ERGO    R416803   5.184   3.606   8.518  0.0645  0.0151 -0.0853
 1344ERGO    R516804   5.306   3.435   8.461  0.1066  0.0268 -0.0383
 1344ERGO    C116805   5.310   3.631   8.134 -0.0483 -0.1217 -0.1313
 1344ERGO    C216806   5.172   3.814   8.030 -0.0516  0.1081  0.0360
 1345ERGO   ROH16807  16.404  14.268   6.496 -0.0181 -0.3091 -0.0314
 1345ERGO    R116808  16.647  14.225   6.634  0.0443 -0.0024 -0.0391
 1345ERGO    R216809  16.796  14.432   6.742 -0.2250  0.1866 -0.0211
 1345ERGO    R316810  16.775  14.285   6.969 -0.0284  0.1343 -0.0350
 1345ERGO    R416811  16.973  14.492   7.033 -0.0536  0.1860 -0.1233
 1345ERGO    R516812  16.998  14.277   7.056  0.0319  0.1892 -0.1818
 1345ERGO    C116813  17.056  14.388   7.416  0.2304  0.1365 -0.1959
 1345ERGO    C216814  17.110  14.510   7.800  0.4043  0.0584  0.4989
 1346W        W16815  12.021  17.742  13.986  0.0466  0.2012 -0.3377
 1347W        W16816   2.886  10.745   3.349  0.2021 -0.2242  0.0694
 1348W        W16817  11.932  11.692   2.168  0.0007 -0.0738  0.0147
 1349W        W16818  13.823  15.721   0.437 -0.2924  0.1352 -0.0201
 1350W        W16819   4.920   7.362  15.300 -0.2199 -0.2093 -0.1869
 1351W        W16820   8.298  17.059  11.505  0.0344 -0.2544  0.0291
 1352W        W16821  14.586   4.782  11.166 -0.2013  0.1035 -0.0249
 1353W        W16822  13.137   0.099  15.476  0.0768 -0.0759  0.3200
 1354W        W16823  12.762   3.595  10.533 -0.0537  0.4491  0.0452
 1355W        W16824  14.556  13.096   3.214  0.1685 -0.3680  0.1104
 1356W        W16825  14.036  10.606   2.126 -0.3684  0.1671  0.2075
 1357W        W16826   5.201  15.754   2.012 -0.0836  0.0471  0.0410
 1358W        W16827  14.424  12.533   4.589  0.0422  0.2342 -0.4341
 1359W        W16828   6.059   8.942  13.270 -0.0180  0.1688  0.0294
 1360W        W16829  15.273  13.732   2.784  0.6787 -0.0059 -0.0063
 1361W        W16830   9.011   7.675   0.173  0.0779  0.1122  0.3906
 1362W        W16831   2.382  13.718  15.432 -0.1078  0.3553  0.0892
 1363W        W16832   5.072   8.989  13.864  0.0110  0.1431  0.0113
 1364W        W16833  13.734   5.143   1.502 -0.4406  0.1217 -0.1575
 1365W        W16834  18.194  10.436  14.875  0.0896  0.1289 -0.3853
 1366W        W16835   9.069   2.402  15.504  0.2461  0.2589  0.1361
 1367W        W16836   4.541  12.198  11.629  0.1740 -0.0123 -0.0689
 1368W        W16837   4.037   8.399   0.113 -0.1534  0.3797  0.2723
 1369W        W16838  16.866   0.325  13.726 -0.3342 -0.1332  0.1048
 1370W        W16839   4.710   9.982   3.474  0.0216 -0.0353 -0.2015
 1371W        W16840  17.175   4.317   1.105  0.0508 -0.2578  0.1491
 1372W        W16841   1.342   3.488   0.126 -0.0888  0.1120 -0.1851
 1373W        W16842   4.867  14.019   0.882 -0.3905 -0.0403  0.0340
 1374W        W16843   0.455   0.976  13.214  0.2673 -0.0477 -0.1756
 1375W        W16844   2.546  11.475   1.715  0.3163  0.1421 -0.1103
 1376W        W16845  10.619  10.550   1.307 -0.1589  0.0389  0.0606
 1377W        W16846   2.033   2.949  10.234 -0.0845 -0.0698  0.1380
 1378W        W16847   3.525   9.042   4.660 -0.2673 -0.4300  0.4034
 1379W        W16848  17.619   5.862   3.792  0.1142  0.1767 -0.2600
 1380W        W16849  13.964   2.116  13.439 -0.1458 -0.3860 -0.2115
 1381W        W16850   6.576   6.429   4.278 -0.1614  0.0078  0.1518
 1382W        W16851  10.752  10.940   1.656  0.0847  0.1940 -0.2241
 1383W        W16852   9.918   1.193  15.371 -0.0981 -0.1323 -0.0374
 1384W        W16853   8.171   1.691  12.410  0.0063  0.2239  0.1101
 1385W        W16854  11.951   3.582   2.808 -0.1728 -0.2537 -0.1816
 1386W        W16855   2.443   3.152   0.004  0.1316 -0.0730  0.1368
 1387W        W16856  18.579  14.366  14.648  0.0910 -0.1398 -0.1304
 1388W        W16857   8.054   1.116   2.934  0.0302  0.0612 -0.0951
 1389W        W16858   9.531  14.157  13.799 -0.1086 -0.3004  0.1057
 1390W        W16859   5.515   6.851  11.281  0.1370  0.0875  0.0507
 1391W        W16860   0.206   8.306  10.917 -0.0107 -0.1067 -0.0498
 1392W        W16861   4.841   1.927   4.512  0.0619  0.2252 -0.1751
 1393W        W16862  10.684  13.541  14.112  0.4295  0.3695  0.0138
 1394W        W16863   8.800   1.035   5.830 -0.2331  0.0692  0.2030
 1395W        W16864   7.279   9.660  11.545 -0.0260  0.1509  0.0341
 1396W        W16865   1.932   3.682  10.404 -0.4940 -0.0786  0.2421
 1397W        W16866  14.002   1.783  14.841 -0.0236  0.2772  0.1117
 1398W        W16867   9.385  14.115  15.015 -0.0262 -0.2358  0.0464
 1399W        W16868  15.396  15.131  14.761  0.3013 -0.0091  0.2329
 1400W        W16869  13.693   6.912  13.110  0.1261 -0.0479  0.3255
 1401W        W16870  13.433  14.428  12.946 -0.1455 -0.2520 -0.2212
 1402W        W16871   8.741   4.954   2.954 -0.0022 -0.3241  0.0879
 1403W        W16872  10.280  11.378  15.549 -0.1855  0.0302  0.3830
 1404W        W16873   7.461   4.882  15.574  0.0522  0.1541 -0.1204
 1405W        W16874   0.404   7.632  12.282 -0.2136  0.0373  0.4910
 1406W        W16875  14.462   8.044  14.203 -0.1279 -0.1187  0.3023
 1407W        W16876  13.993   3.301   3.927  0.0789 -0.1239  0.0887
 1408W        W16877   4.043   2.168   4.775 -0.0018  0.0394 -0.2635
 1409W        W16878   5.077  15.442  14.268  0.0408 -0.0915  0.0033
 1410W        W16879   6.275  12.931  11.640 -0.0023 -0.4880  0.1239
 1411W        W16880  13.393  15.191  14.959 -0.0996  0.0925 -0.0039
 1412W        W16881   0.431   3.555  13.869  0.0391  0.3310 -0.0542
 1413W        W16882   3.504  12.715   0.752 -0.3277 -0.1418  0.2105
 1414W        W16883  17.087  16.228   4.750  0.0294 -0.0241 -0.1486
 1415W        W16884   7.672   1.950   4.394 -0.1957  0.0917  0.1208
 1416W        W16885  18.203   3.273   4.198 -0.0070  0.0537 -0.0053
 1417W        W16886   3.745  12.349  13.881  0.0545  0.2259  0.0065
 1418W        W16887  10.513   2.074   1.695 -0.4696  0.2285 -0.1577
 1419W        W16888  17.733  16.714   0.911 -0.0315 -0.0874  0.1849
 1420W        W16889   2.549   1.991  11.535  0.1505 -0.1923 -0.3943
 1421W        W16890  12.638  11.195   0.628 -0.0548 -0.2218 -0.2155
 1422W        W16891   9.266   1.975  11.099  0.2283 -0.1291  0.4203
 1423W        W16892   4.749  12.306   5.614 -0.0276  0.1241 -0.0216
 1424W        W16893  12.523   7.605   5.381 -0.2094  0.1202 -0.0740
 1425W        W16894   4.319  18.188  11.928  0.4561  0.2438 -0.1303
 1426W        W16895   6.842  11.000   2.621  0.4443  0.1117  0.0887
 1427W        W16896   7.153   5.440   2.905  0.1645 -0.2406  0.1346
 1428W        W16897   9.173  11.925   0.470 -0.2023  0.2740 -0.1779
 1429W        W16898  18.698  12.434  11.989 -0.1508 -0.0068  0.3926
 1430W        W16899  16.925  13.073  12.845  0.2592 -0.1282  0.1053
 1431W        W16900  10.418   2.292  11.084 -0.1804 -0.1813 -0.2770
 1432W        W16901  12.540  10.078   1.690  0.4951  0.1358  0.1132
 1433W        W16902  14.162   6.779   5.168 -0.2237 -0.0208 -0.0710
 1434W        W16903   0.077  11.173   0.417  0.0990  0.1352 -0.0726
 1435W        W16904  16.706  16.857   1.331  0.2807 -0.1306  0.0555
 1436W        W16905  16.099  15.308  13.204 -0.0850  0.1524  0.0915
 1437W        W16906  10.625  16.412   5.622 -0.3364  0.1018 -0.0761
 1438W        W16907   3.476  11.588   3.077  0.0923 -0.0114 -0.0550
 1439W        W16908   5.055   7.593   3.185  0.1575 -0.2717  0.0426
 1440W        W16909   7.383   8.920   2.275 -0.0495 -0.2833 -0.0463
 1441W        W16910   1.035   1.586  15.780  0.1489  0.0778  0.0045
 1442W        W16911  15.882   1.925  11.401 -0.3322  0.2232  0.0048
 1443W        W16912   6.698   3.114  14.302 -0.2328 -0.3236 -0.1184
 1444W        W16913  14.792   6.005  15.174  0.0723  0.1579  0.0217
 1445W        W16914  16.850  17.722  13.955 -0.0123 -0.1092  0.2978
 1446W        W16915  14.674   6.515   3.218  0.0848  0.0015 -0.0437
 1447W        W16916   5.993   3.925  13.259 -0.2273  0.1733 -0.2160
 1448W        W16917   7.635   3.192   2.340  0.2143  0.0061 -0.3619
 1449W        W16918   7.139  13.553   3.040  0.2799 -0.0309  0.2483
 1450W        W16919   0.538   5.571   0.486 -0.1415  0.1469 -0.0766
 1451W        W16920   0.699  15.160  12.546 -0.0998 -0.1010 -0.1781
 1452W        W16921  13.352  12.538  14.098 -0.1309 -0.2786 -0.1090
 1453W        W16922   2.913  16.685  12.292  0.1293  0.0209  0.2029
 1454W        W16923  17.517  12.311  13.850  0.1910 -0.1834 -0.6447
 1455W        W16924   7.094   5.269  13.948  0.2482  0.1003 -0.2395
 1456W        W16925   4.432   3.399  12.465 -0.1421  0.2248  0.0737
 1457W        W16926  14.644   6.631  14.021  0.0744 -0.0288  0.1013
 1458W        W16927   7.528  12.431  12.975  0.0615 -0.1362  0.1338
 1459W        W16928  10.817   7.077  14.322 -0.0233 -0.1326  0.1793
 1460W        W16929   8.539   1.810  13.247  0.0771 -0.1433  0.1102
 1461W        W16930  10.686   1.332  13.232  0.0862 -0.1473 -0.1878
 1462W        W16931   1.148  18.168   2.791  0.1686  0.0883  0.2583
 1463W        W16932  14.201  11.009  14.665 -0.0580  0.2040  0.2825
 1464W        W16933  17.444  16.994   5.159 -0.2063 -0.1774 -0.2669
 1465W        W16934  15.584   5.851   1.101  0.0691 -0.0667  0.1293
 1466W        W16935  10.677   7.417   2.132  0.2064 -0.2183 -0.0699
 1467W        W16936   5.607  13.758  15.236  0.0466 -0.0397  0.1196
 1468W        W16937   7.842  12.411  14.440  0.0093 -0.1438  0.3381
 1469W        W16938   4.535  18.645   1.309 -0.3396  0.0932  0.3330
 1470W        W16939   2.977   8.559   2.005 -0.0946  0.0562 -0.0155
 1471W        W16940   6.022   4.522  14.777 -0.1581 -0.0798 -0.2420
 1472W        W16941   4.114  16.737   2.914  0.2328 -0.0198  0.1061
 1473W        W16942   4.314  15.427  14.901  0.3183  0.1164 -0.0779
 1474W        W16943   3.613  15.413   3.583 -0.3351  0.1789  0.0964
 1475W        W16944   7.526  12.204  11.566  0.0164  0.3799 -0.4108
 1476W        W16945   7.525  13.587   3.726 -0.3579  0.1655 -0.0775
 1477W        W16946   0.937  15.318  11.329 -0.0541  0.1762 -0.2150
 1478W        W16947  18.075  12.884  14.946  0.0218 -0.0280  0.3218
 1479W        W16948   8.530   2.186   4.037 -0.1168  0.0160  0.1662
 1480W        W16949  15.332   5.443   3.076  0.1895 -0.0751 -0.0026
 1481W        W16950  14.591  17.126   3.815  0.0395  0.0827 -0.2977
 1482W        W16951   9.203  13.088   1.009  0.1261  0.1193 -0.3188
 1483W        W16952  15.953   2.145   0.083 -0.0260  0.0289 -0.4515
 1484W        W16953  13.116   1.386   3.437 -0.0753 -0.2796  0.4735
 1485W        W16954   6.416   1.093  12.286  0.2825 -0.1372 -0.1521
 1486W        W16955  14.126   5.761  11.054 -0.1264 -0.0921  0.0958
 1487W        W16956   6.322  11.227   2.538 -0.0867 -0.3959  0.2121
 1488W        W16957  14.620  17.529   1.613  0.1565 -0.0340  0.2131
 1489W        W16958   7.217   3.871   1.616 -0.0004  0.2310  0.1977
 1490W        W16959  14.521  11.753  14.966  0.0261  0.0013 -0.2109
 1491W        W16960  11.909  10.602   1.496 -0.1958  0.1624  0.0993
 1492W        W16961  15.848  16.209   5.264 -0.2791  0.1818 -0.0462
 1493W        W16962   6.381  12.840  14.053  0.0961 -0.0111  0.1488
 1494W        W16963   2.472   9.284   4.417 -0.1395  0.0429 -0.0875
 1495W        W16964   4.961  10.648  13.677 -0.1619  0.3977 -0.0257
 1496W        W16965  17.210   5.664   2.150  0.3406 -0.1278  0.2569
 1497W        W16966  10.403  18.165   5.616 -0.4195 -0.5269 -0.0065
 1498W        W16967   9.930   5.811   0.875  0.1585 -0.2367 -0.2004
 1499W        W16968   9.124   6.261  13.213 -0.0169 -0.0201  0.1606
 1500W        W16969   1.022   8.777   1.598  0.0458 -0.4389  0.2848
 1501W        W16970  14.577   3.712   5.277 -0.1784  0.0250 -0.0456
 1502W        W16971  13.693   3.563   4.242  0.1605 -0.0348  0.1701
 1503W        W16972   8.501   7.932  14.047 -0.3026 -0.1866  0.0301
 1504W        W16973   2.151   9.367  11.142 -0.3563  0.3585 -0.2783
 1505W        W16974  13.901   8.986   4.109  0.1764  0.3931  0.0195
 1506W        W16975   7.908   5.679  15.339  0.0901  0.1788  0.0148
 1507W        W16976   2.197  15.219   1.809  0.3148 -0.4937 -0.0907
 1508W        W16977  10.128  12.887   5.115  0.0101  0.3085  0.0819
 1509W        W16978  12.842   0.113  13.000 -0.0100  0.3398 -0.2363
 1510W        W16979   4.365  10.432   5.198 -0.1910 -0.0323 -0.1967
 1511W        W16980   5.370   9.746   3.855  0.1158  0.0959  0.2610
 1512W        W16981   0.221   9.269  13.826 -0.2817  0.0879 -0.5793
 1513W        W16982   4.835   3.972   3.331 -0.2124  0.0070  0.1166
 1514W        W16983  10.182  16.706   1.036  0.0552 -0.0132  0.0526
 1515W        W16984  16.372  14.306  15.359  0.0722 -0.1933 -0.1854
 1516W        W16985   0.575  17.589  15.486  0.3611  0.2231 -0.0373
 1517W        W16986   9.674  10.974   3.200  0.2544 -0.2593 -0.0894
 1518W        W16987   5.062   6.506   4.532 -0.2544  0.1197  0.2013
 1519W        W16988   8.250   6.869   1.255  0.1627 -0.2349 -0.1316
 1520W        W16989  17.801   4.220   0.367 -0.2134 -0.1393 -0.1478
 1521W        W16990   6.696  16.856  12.816 -0.2834  0.1896 -0.1382
 1522W        W16991  18.414   7.693  15.310  0.0610 -0.1353 -0.2128
 1523W        W16992   5.247  10.064   1.222  0.0335  0.0586 -0.3354
 1524W        W16993   4.261   7.223  11.137  0.0459  0.1774  0.0901
 1525W        W16994   8.681  12.899  11.716  0.1396  0.2340 -0.2360
 1526W        W16995   7.114   5.594   2.406  0.0474  0.2444 -0.0034
 1527W        W16996   6.746   7.430  14.045  0.2424  0.1411 -0.1061
 1528W        W16997   9.482   1.438   4.740 -0.0420 -0.0838 -0.0005
 1529W        W16998   4.234  17.070  13.623 -0.1045  0.3334 -0.2092
 1530W        W16999   4.772   3.633   2.973 -0.1442 -0.2279 -0.2522
 1531W        W17000   1.988  17.260   1.356  0.2032 -0.2803 -0.0161
 1532W        W17001  13.536   0.357   2.208  0.3084  0.1624  0.0116
 1533W        W17002  12.985  15.270   2.652 -0.1531 -0.0438  0.3265
 1534W        W17003   7.705   7.804   0.995  0.2618  0.0383 -0.1141
 1535W        W17004   5.265  15.968  15.059  0.0376 -0.1110 -0.1508
 1536W        W17005   0.375  16.578   5.646 -0.4887  0.1581  0.0081
 1537W        W17006  10.945  12.026  15.475 -0.1673  0.3171  0.0510
 1538W        W17007  10.836  12.117  14.144  0.1317  0.1695 -0.1980
 1539W        W17008  16.715   9.792  13.803  0.0122  0.1303  0.0771
 1540W        W17009  12.686   5.385   2.812  0.1050 -0.5229  0.1139
 1541W        W17010  15.154   5.639   2.094 -0.1690  0.0375 -0.3216
 1542W        W17011  18.622  13.599  14.618 -0.2577 -0.3077  0.1070
 1543W        W17012  17.889  17.150  13.870 -0.0129  0.0140  0.3136
 1544W        W17013   6.136   6.878  11.342 -0.2068 -0.2433  0.3231
 1545W        W17014   0.543  11.837   0.614 -0.0659 -0.0427  0.3010
 1546W        W17015  13.831   7.843  12.510  0.1397  0.1325  0.1492
 1547W        W17016   4.429   9.442   1.411  0.1314 -0.0004  0.4038
 1548W        W17017   1.039   3.062  12.146 -0.0771 -0.0659  0.2232
 1549W        W17018   6.138  14.046   0.139  0.2074  0.1347  0.1365
 1550W        W17019  10.682  11.930   2.649 -0.1979 -0.0154 -0.1706
 1551W        W17020   9.927  11.161  13.081 -0.0627  0.0088 -0.3339
 1552W        W17021  15.256  11.356   1.392 -0.1713 -0.4439 -0.0843
 1553W        W17022   3.655  13.904   1.589 -0.2512 -0.0194  0.1316
 1554W        W17023  17.054  12.128  15.168  0.2173 -0.1691 -0.2381
 1555W        W17024  13.717  15.328  13.843  0.0424  0.1320  0.0911
 1556W        W17025   2.610  12.012  14.365  0.0151 -0.0407  0.2000
 1557W        W17026  10.628   2.634   1.009 -0.0216 -0.0088 -0.1583
 1558W        W17027   1.967  17.033  12.694  0.0382 -0.3023  0.1543
 1559W        W17028   8.501   4.094   1.791  0.0971  0.2477 -0.1140
 1560W        W17029  14.576   9.319  12.388 -0.2808  0.3940  0.1145
 1561W        W17030  12.322   5.903  12.609 -0.0581 -0.0182 -0.0793
 1562W        W17031   9.601   0.097  13.074  0.2987 -0.2342  0.2060
 1563W        W17032   6.005   3.934  12.735 -0.2415  0.1475 -0.0403
 1564W        W17033  14.771   1.082   2.114 -0.1485  0.0715 -0.2274
 1565W        W17034   9.040   3.506   3.541 -0.1635 -0.1970 -0.4149
 1566W        W17035  17.942   9.760  10.521 -0.2032  0.1446  0.3176
 1567W        W17036  12.040  18.200   5.367  0.1963  0.1119  0.0472
 1568W        W17037  17.756  16.470  10.682 -0.1873 -0.3086  0.1097
 1569W        W17038  13.710   3.654   3.737  0.0584 -0.1352  0.1830
 1570W        W17039  10.178   4.863  11.897  0.2269 -0.0935  0.0644
 1571W        W17040   0.873  17.055   3.974  0.1670 -0.1934  0.2303
 1572W        W17041  12.297   1.581   0.621 -0.0461 -0.0008 -0.0468
 1573W        W17042   6.838  11.137   1.290  0.0958  0.3778  0.3379
 1574W        W17043  16.466  10.127   4.860 -0.1505  0.0524  0.1186
 1575W        W17044  18.516  10.153   1.794  0.0558  0.1211 -0.1751
 1576W        W17045   8.259   9.431  13.165  0.2838  0.0819  0.0834
 1577W        W17046   4.329   7.409  12.540  0.1781 -0.0656 -0.0231
 1578W        W17047  16.255  10.410   9.828  0.1720  0.1410  0.0124
 1579W        W17048  13.341  14.593   4.594  0.2546 -0.0651  0.1686
 1580W        W17049  16.995  12.937   1.710  0.1223 -0.0660 -0.0864
 1581W        W17050  15.442   9.218  11.011  0.0735 -0.2175  0.0212
 1582W        W17051  12.251  13.191  12.841  0.0375  0.0001  0.0304
 1583W        W17052  10.827   5.536  12.091  0.0146  0.0682 -0.0823
 1584W        W17053  10.068   5.307  11.593  0.1882  0.5682 -0.1726
 1585W        W17054  14.403   6.398   4.496 -0.0860 -0.0559 -0.1193
 1586W        W17055  11.580  10.116  12.633 -0.0929  0.0467  0.3097
 1587W        W17056  14.358   5.511   3.013 -0.1901 -0.2042  0.2420
 1588W        W17057   4.004   2.875   3.889  0.1562  0.1082  0.0981
 1589W        W17058  16.106   9.882   4.637  0.0315 -0.2232  0.0026
 1590W        W17059  10.645   6.846   1.045  0.1376 -0.3409 -0.1364
 1591W        W17060  12.938   4.219   0.689 -0.0325 -0.0635  0.1108
 1592W        W17061  14.640   7.092  14.302 -0.3483  0.1224  0.3539
 1593W        W17062  11.569  14.909   3.230 -0.2129 -0.1552  0.0347
 1594W        W17063  11.514  12.734   3.492 -0.0264 -0.1117  0.1675
 1595W        W17064   6.197   2.938  14.995 -0.0621 -0.2306 -0.1936
 1596W        W17065   7.833  14.971  15.307  0.0974 -0.3267 -0.1138
 1597W        W17066   2.915  17.679   0.827 -0.2749  0.3103 -0.2211
 1598W        W17067   2.855  11.890   2.448 -0.1102 -0.0600 -0.1939
 1599W        W17068   0.398   8.973  15.416  0.0565  0.1538  0.0687
 1600W        W17069  16.944  18.022  11.656  0.1883 -0.0315 -0.1712
 1601W        W17070  17.979   5.527   5.116 -0.0660 -0.0601  0.4318
 1602W        W17071   1.880   4.201  11.093  0.0808  0.2772  0.1885
 1603W        W17072   7.262  16.431   3.664 -0.7603  0.0020 -0.0808
 1604W        W17073   7.762  10.075   0.324 -0.0214  0.1643 -0.0047
 1605W        W17074  13.252   0.488   3.087 -0.0245  0.2991 -0.1337
 1606W        W17075  12.861  14.344   5.515  0.2033  0.3513  0.0710
 1607W        W17076  17.313  13.484   0.593 -0.0095 -0.0078 -0.0622
 1608W        W17077   6.357  18.275  13.337  0.2512  0.0805 -0.2396
 1609W        W17078   8.414  16.052   1.501 -0.1776  0.0393 -0.1828
 1610W        W17079   6.698   1.949  15.002  0.0012  0.0229  0.2030
 1611W        W17080   9.474  15.128  15.497 -0.0052 -0.0411 -0.1499
 1612W        W17081  16.437  12.819  12.386 -0.1457 -0.1417 -0.2343
 1613W        W17082  13.440   8.831   4.268  0.0661  0.0635  0.0237
 1614W        W17083  17.817  11.089  14.204 -0.0476  0.1925 -0.1870
 1615W        W17084   7.074  10.308  13.717  0.3017  0.1143 -0.0597
 1616W        W17085  12.833  18.267  14.085  0.1190 -0.1618 -0.0610
 1617W        W17086  18.655   7.727   0.997  0.1232  0.0561  0.0913
 1618W        W17087   5.408   3.393   4.121  0.1446  0.0690 -0.0039
 1619W        W17088  18.168   1.849  13.534 -0.0593  0.2277  0.1517
 1620W        W17089   8.911  15.174  11.081  0.1869  0.0236  0.0919
 1621W        W17090   6.844   6.368   5.702 -0.2134 -0.0810 -0.1073
 1622W        W17091  17.628   0.936   0.603  0.0721 -0.0596 -0.0858
 1623W        W17092  13.756   1.081  12.532  0.0877  0.1146  0.3124
 1624W        W17093  17.161  18.447   3.663  0.2926  0.0109 -0.4261
 1625W        W17094   8.880  13.853   0.453 -0.4579 -0.4630  0.2455
 1626W        W17095  18.629   1.591  12.719  0.1278 -0.0639 -0.2001
 1627W        W17096   6.276  10.499   4.375 -0.4290  0.2004  0.1218
 1628W        W17097   6.988   4.577  14.851 -0.2069 -0.4525  0.2094
 1629W        W17098  10.023   7.162  11.181 -0.0716 -0.1123 -0.0808
 1630W        W17099  17.302  11.660  15.536 -0.0262 -0.0339  0.0826
 1631W        W17100  15.292   8.029   9.661 -0.1623 -0.1158  0.0834
 1632W        W17101  12.837  17.887  15.494  0.0794  0.2498  0.0177
 1633W        W17102   4.336  11.127   1.891  0.2589 -0.2470  0.0424
 1634W        W17103   6.815   3.586   0.157 -0.0731 -0.3685  0.1934
 1635W        W17104   0.546  13.891  12.933 -0.2920  0.2657  0.3744
 1636W        W17105  14.811  17.049  14.216  0.2552  0.0290 -0.1715
 1637W        W17106   8.359  17.963  13.208  0.0460  0.3231  0.2004
 1638W        W17107  12.551  18.188   2.454 -0.2714  0.0800 -0.0560
 1639W        W17108  16.563   7.164   1.305 -0.6907 -0.2377  0.4045
 1640W        W17109  15.925   2.010   4.192  0.0108  0.0029  0.1317
 1641W        W17110   4.755   7.017   1.696 -0.3644 -0.0867 -0.0786
 1642W        W17111  10.808   7.786   2.544 -0.1013 -0.0516 -0.0358
 1643W        W17112  15.829  12.736  15.019 -0.1053  0.1900 -0.2665
 1644W        W17113   5.769   7.749  14.728  0.0147 -0.0225 -0.0037
 1645W        W17114  11.813  15.723   4.901  0.0783 -0.0930 -0.0726
 1646W        W17115  17.015   7.931   1.182  0.1198  0.1847  0.0714
 1647W        W17116   3.924   6.968   0.187 -0.1417 -0.3749 -0.0312
 1648W        W17117   1.979  10.716   2.039  0.1782  0.2113 -0.1138
 1649W        W17118  14.929  17.691   5.570  0.2041 -0.1879 -0.0892
 1650W        W17119  13.418   6.842  14.502 -0.1004 -0.0660  0.1519
 1651W        W17120   2.245   6.698   4.002  0.0908  0.0922 -0.0238
 1652W        W17121  11.324  17.597   6.198 -0.2829  0.2967 -0.3890
 1653W        W17122   6.197  10.396  10.397 -0.0180  0.0864  0.2183
 1654W        W17123   3.419  11.686   4.825  0.1413 -0.1381  0.1212
 1655W        W17124  11.253  17.385   0.044  0.0324  0.0908  0.0578
 1656W        W17125   8.810  12.513  14.176  0.3349  0.1171  0.0437
 1657W        W17126   4.787   4.898  10.674 -0.1572  0.1845 -0.2735
 1658W        W17127  12.441  14.723   5.494 -0.0550 -0.0078 -0.2031
 1659W        W17128   2.985  11.217   3.158  0.4186 -0.0373 -0.0623
 1660W        W17129  12.357  17.831  13.553  0.4550  0.0194  0.0990
 1661W        W17130   9.407   2.077  12.219 -0.0705 -0.1841  0.0207
 1662W        W17131  10.480   5.354  11.191  0.1042 -0.0097 -0.2030
 1663W        W17132   2.914   6.914  12.472 -0.1727  0.0816  0.2347
 1664W        W17133  12.019   8.834  14.434  0.2773  0.0074  0.0804
 1665W        W17134  17.770   5.924   4.286 -0.1709 -0.3603  0.3036
 1666W        W17135  12.786  12.212  10.428 -0.0764 -0.0702  0.2600
 1667W        W17136  14.997   2.213   0.193  0.4642 -0.1108  0.3930
 1668W        W17137   0.916  12.007   2.313 -0.0488 -0.2751  0.0793
 1669W        W17138   4.507  17.721  12.049  0.0965  0.0671 -0.0812
 1670W        W17139  10.817   1.974  11.230 -0.0275 -0.1582  0.1749
 1671W        W17140   2.013  12.350   4.968  0.0907  0.1310  0.0857
 1672W        W17141   0.133  10.296   2.333 -0.0315  0.3571 -0.1687
 1673W        W17142  13.552   2.409  15.151 -0.2794  0.1526  0.2810
 1674W        W17143   9.760   4.257  13.550 -0.1893  0.1397  0.1377
 1675W        W17144  16.407   8.437  12.723  0.0411  0.1840  0.2672
 1676W        W17145  14.093   0.914   4.931 -0.0004 -0.1438  0.2114
 1677W        W17146  17.215   4.890  10.651  0.0780 -0.2953 -0.3080
 1678W        W17147  10.117  12.966  15.288  0.1941  0.2811 -0.0089
 1679W        W17148  10.511   5.928  11.940  0.2828  0.0934 -0.0154
 1680W        W17149   6.279   7.843  12.338  0.2282 -0.0903 -0.0072
 1681W        W17150   6.912  18.160  13.950 -0.2309  0.2543  0.0325
 1682W        W17151  16.586  17.480  12.684  0.2614  0.0248 -0.2158
 1683W        W17152  10.501   0.662   5.924  0.3161  0.0676 -0.0276
 1684W        W17153  13.222  16.593   5.161 -0.0435 -0.1758  0.0259
 1685W        W17154   6.059   2.437  12.881 -0.0707  0.0167  0.0560
 1686W        W17155   4.704   4.387   0.614  0.0425  0.0393 -0.2152
 1687W        W17156  15.125  11.862   4.199  0.0548  0.3402  0.1437
 1688W        W17157   9.527   4.036  12.152 -0.1676  0.1646 -0.2673
 1689W        W17158  15.269  10.159  14.965 -0.1179  0.0726  0.0165
 1690W        W17159   2.494   8.546   2.784 -0.0285  0.2294 -0.0547
 1691W        W17160  10.050   0.375  14.857 -0.0664  0.2331  0.1283
 1692W        W17161   6.215  18.046  14.943  0.1702  0.1142 -0.1562
 1693W        W17162   3.428   2.701  14.650  0.0150 -0.2052  0.1890
 1694W        W17163   7.054   3.905   5.097 -0.1666  0.0283  0.2655
 1695W        W17164   0.221  17.007  11.116  0.2129 -0.1283 -0.2124
 1696W        W17165   5.578  14.908  14.661 -0.1635  0.2772  0.1190
 1697W        W17166  16.045  16.281   5.732 -0.0625 -0.1427  0.2963
 1698W        W17167   4.042   3.226   2.361  0.1906 -0.0316 -0.2207
 1699W        W17168  14.863   5.262   1.781  0.4159 -0.3551 -0.1170
 1700W        W17169   6.999  10.939  11.545 -0.0835 -0.1481  0.1413
 1701W        W17170  10.780   8.978  13.077  0.0780  0.0398  0.1628
 1702W        W17171   1.624  16.008  11.288 -0.0088 -0.0081 -0.0019
 1703W        W17172   2.707   3.781  13.266 -0.0201  0.1737  0.0223
 1704W        W17173  16.870  14.147  13.625  0.0119  0.1895  0.1390
 1705W        W17174  14.415  12.637   4.110  0.0544 -0.2528  0.2127
 1706W        W17175   3.723   5.823  12.014 -0.2489 -0.1862  0.0675
 1707W        W17176   7.053   3.710  15.281  0.0926  0.3488  0.0584
 1708W        W17177  11.748   9.714  14.024 -0.2688 -0.4644  0.0161
 1709W        W17178   4.373   8.826  12.538 -0.1045 -0.6252 -0.0182
 1710W        W17179  15.994   9.415   4.723  0.2864  0.0362  0.0794
 1711W        W17180   0.231   0.871  11.555 -0.1926 -0.0839  0.0733
 1712W        W17181  16.927  13.388  14.228  0.1876 -0.1945  0.2283
 1713W        W17182  11.034   8.297  11.335 -0.1620  0.0050  0.4078
 1714W        W17183  16.279   6.260   3.518 -0.0682  0.0711  0.0590
 1715W        W17184   2.528   8.192  11.503  0.0973 -0.0337  0.0465
 1716W        W17185   1.458   0.457   2.477  0.1351 -0.3568 -0.1325
 1717W        W17186  16.157  12.458  11.463  0.0781  0.1329  0.2589
 1718W        W17187   2.639  18.346   2.893  0.1064  0.0639 -0.6226
 1719W        W17188  18.291   2.467   0.050  0.1643 -0.1800  0.2268
 1720W        W17189  11.169   7.034  12.123 -0.0250 -0.4088 -0.1961
 1721W        W17190  12.704   4.918  13.832 -0.1868 -0.2371  0.0108
 1722W        W17191  14.831  11.118   4.646  0.1705  0.0598 -0.1984
 1723W        W17192  18.528   3.711  12.902 -0.1782  0.0378  0.2923
 1724W        W17193   9.883  10.398  10.476  0.0139  0.0110 -0.0934
 1725W        W17194  16.223  15.685  11.304  0.0117  0.1758  0.2295
 1726W        W17195  17.424  10.543  11.545  0.2266  0.0448  0.1018
 1727W        W17196   7.402   1.042  11.260  0.1667 -0.0146  0.1312
 1728W        W17197   9.066  17.222   4.145 -0.0238 -0.1517 -0.3294
 1729W        W17198  13.592   7.779   2.572 -0.1790  0.1839 -0.1487
 1730W        W17199   0.735  12.442  14.111  0.1313  0.1522  0.1628
 1731W        W17200  14.375  16.210  13.893  0.0815 -0.0035  0.1638
 1732W        W17201   9.667   6.341   1.960 -0.0337  0.0806 -0.3260
 1733W        W17202  10.359  11.314   0.306  0.0271 -0.3399  0.2898
 1734W        W17203  11.371   6.080   5.210  0.3926  0.2227  0.0358
 1735W        W17204   8.368  10.212  11.408  0.0662  0.1097  0.0164
 1736W        W17205   6.449   3.425  15.037  0.2870  0.0029  0.1396
 1737W        W17206  18.484   9.705  13.134 -0.0309  0.1287 -0.0614
 1738W        W17207   8.420  13.971   2.700  0.1298 -0.0135 -0.3456
 1739W        W17208   7.018  15.033  13.543  0.1327  0.2243  0.1997
 1740W        W17209  15.313   4.812   2.511  0.0649 -0.0613 -0.1897
 1741W        W17210  17.228   9.836  13.771  0.1187  0.1189  0.1453
 1742W        W17211   7.006  15.249   4.632  0.0593  0.0729  0.2171
 1743W        W17212  10.584  13.845   2.163  0.0364  0.0005  0.0897
 1744W        W17213   1.915  13.905   0.820  0.2381  0.2683 -0.0982
 1745W        W17214  11.752  13.905  12.164  0.2114 -0.0673 -0.0398
 1746W        W17215  14.429   3.529   1.963 -0.2789  0.1480  0.0618
 1747W        W17216   1.237  10.976  11.279 -0.1370 -0.0808 -0.0662
 1748W        W17217  11.184  15.477   2.203  0.2390  0.3208 -0.2347
 1749W        W17218  10.147   5.106  12.513 -0.1755  0.0190  0.1068
 1750W        W17219  11.610  13.659  11.733  0.1045 -0.1691  0.3040
 1751W        W17220   7.553   9.241   4.546 -0.3091  0.1423 -0.1507
 1752W        W17221  15.351  11.003   1.051  0.0511  0.0320  0.0757
 1753W        W17222  14.818  10.751  10.807 -0.0576 -0.0026  0.2187
 1754W        W17223  16.603  11.743   2.096  0.2634  0.0172  0.1337
 1755W        W17224   7.455  12.585  12.431  0.1536 -0.2547 -0.1392
 1756W        W17225   5.821   6.892  15.348  0.0070 -0.3932 -0.1833
 1757W        W17226  17.444   8.976   5.185 -0.1850 -0.0302  0.1904
 1758W        W17227  11.316  13.831  14.810  0.3558  0.1948  0.1996
 1759W        W17228   6.016   9.787  14.443 -0.1781 -0.1459 -0.1346
 1760W        W17229   6.576   2.875  13.769 -0.1689 -0.0423  0.0193
 1761W        W17230   2.978  14.674   4.326 -0.0415  0.0865 -0.1040
 1762W        W17231  13.393  16.952   4.498  0.2616 -0.1126  0.0469
 1763W        W17232   5.569   0.866  13.523  0.1275 -0.2874 -0.0689
 1764W        W17233   5.211  11.189  15.255  0.2432  0.1217 -0.1684
 1765W        W17234   0.711  14.133   4.645  0.0988 -0.3067 -0.1058
 1766W        W17235  12.301  10.075   2.162  0.0070  0.2036  0.1563
 1767W        W17236  16.100  13.549  11.724 -0.0611  0.2352  0.2378
 1768W        W17237   9.409   8.463   0.575 -0.1448 -0.2108  0.0542
 1769W        W17238  12.115   7.328   3.510 -0.2679  0.0368  0.0931
 1770W        W17239   3.756  18.078   1.835  0.0580  0.2802  0.0687
 1771W        W17240   9.469  15.364   2.554  0.1112  0.2890 -0.2100
 1772W        W17241   3.347   1.852   2.341 -0.0353  0.0669 -0.2879
 1773W        W17242  14.168  15.328   1.583 -0.1045 -0.5291  0.0915
 1774W        W17243   9.765  16.069   1.339  0.1714 -0.0915 -0.0568
 1775W        W17244  10.438   2.563  12.520 -0.2247  0.0137 -0.0940
 1776W        W17245   2.218   6.071   4.734 -0.2290  0.2701  0.0779
 1777W        W17246   3.110  14.975  15.073  0.1168 -0.0202  0.0129
 1778W        W17247   2.783   6.991   4.036 -0.1753  0.1201 -0.0355
 1779W        W17248   4.411   1.061   3.147  0.2009  0.2434  0.1359
 1780W        W17249   1.748   9.811   3.132  0.3259 -0.0558  0.0273
 1781W        W17250  18.088   9.594  12.737  0.0787  0.1007  0.1138
 1782W        W17251  12.020   0.722  14.513 -0.0758 -0.0958 -0.0750
 1783W        W17252  14.488   6.054  11.265  0.0763  0.1586 -0.0232
 1784W        W17253  18.019  10.503  12.850 -0.2104 -0.2414  0.0471
 1785W        W17254   3.144  15.335  10.689 -0.1901  0.3097  0.0272
 1786W        W17255  13.994  16.935  11.493 -0.4002  0.1716  0.2263
 1787W        W17256   6.823  11.904   1.501  0.1434 -0.1364  0.2441
 1788W        W17257  15.721   1.769  12.866 -0.0217  0.0127  0.0888
 1789W        W17258  16.448   5.743   0.752  0.1685 -0.0157  0.1868
 1790W        W17259   9.190   9.270   4.552 -0.2481 -0.2900 -0.3228
 1791W        W17260   2.259  11.198  12.928 -0.0073 -0.4554 -0.0339
 1792W        W17261   7.627   5.989  14.337 -0.0675  0.0310  0.1206
 1793W        W17262   4.354  11.144  13.275 -0.1793 -0.3453 -0.0519
 1794W        W17263  18.006  14.449  14.006 -0.2562 -0.1500 -0.1026
 1795W        W17264  17.802   2.738  13.253  0.0660  0.1391 -0.1323
 1796W        W17265  18.042   2.420   4.192  0.1100 -0.1194 -0.0132
 1797W        W17266  14.033  18.335   3.402 -0.0102 -0.0835  0.1125
 1798W        W17267  15.114   8.232   4.180 -0.0384  0.0683 -0.0084
 1799W        W17268  14.678   7.025   0.691  0.1538 -0.0857 -0.1465
 1800W        W17269  15.361  13.162  14.894  0.2948  0.2153  0.2749
 1801W        W17270   5.976   7.601   2.279  0.1098  0.0070  0.1371
 1802W        W17271  11.463   2.374   2.538  0.0514 -0.0804 -0.0469
 1803W        W17272  14.522  12.269  13.342 -0.0160  0.2785 -0.0228
 1804W        W17273  13.545   6.139  11.562 -0.2967 -0.3239  0.4033
 1805W        W17274   1.786  17.457   1.785 -0.1828  0.3696 -0.1929
 1806W        W17275   5.220   7.292  11.092  0.1780 -0.1323 -0.0976
 1807W        W17276  18.125   1.825   0.021  0.0499  0.0190  0.1889
 1808W        W17277   6.979   7.573   1.653 -0.0339  0.2562  0.0429
 1809W        W17278  18.492   2.876  14.449  0.0455 -0.0690  0.3591
 1810W        W17279  14.638  12.393  15.161  0.3797  0.0593  0.0704
 1811W        W17280  17.695   3.618   2.971 -0.1938  0.0979  0.0968
 1812W        W17281   4.859   9.981   0.716 -0.1708  0.3603  0.2371
 1813W        W17282   4.350  16.813   5.774  0.1568 -0.3626  0.0501
 1814W        W17283   4.356  13.903  11.100  0.1332  0.1016 -0.2224
 1815W        W17284   3.925   2.784  14.277 -0.0562 -0.0656 -0.3276
 1816W        W17285   2.157   7.664   0.657  0.1497  0.2348 -0.1488
 1817W        W17286   0.382  13.392   2.124 -0.2740  0.1950 -0.0422
 1818W        W17287   9.450   7.085  14.777  0.2901 -0.1121  0.1037
 1819W        W17288   7.658   5.289  15.147  0.2472  0.0763  0.2108
 1820W        W17289   3.637  11.170   3.992 -0.1766 -0.0250 -0.1277
 1821W        W17290   6.248   1.223   2.771  0.1216 -0.0857  0.4179
 1822W        W17291   6.200   5.728  11.129  0.2902 -0.3336 -0.0280
 1823W        W17292  10.269  10.760   4.456  0.1789  0.1433  0.0116
 1824W        W17293  17.359   1.247   5.173 -0.0338 -0.2313  0.0135
 1825W        W17294  14.312  16.876  12.037  0.0508  0.0864  0.1686
 1826W        W17295  16.182  17.256   1.610 -0.0006 -0.2307 -0.3201
 1827W        W17296  14.272   6.420   0.283 -0.1178 -0.2073  0.2612
 1828W        W17297   1.060   5.218   5.089  0.0106 -0.0883 -0.1501
 1829W        W17298  15.671  10.048   4.323 -0.0576 -0.0552  0.0512
 1830W        W17299  10.501   0.599   0.495  0.3648  0.0395  0.1318
 1831W        W17300  17.847  12.740   6.189 -0.0765  0.3492 -0.0309
 1832W        W17301   1.287   0.268  10.284 -0.0944  0.1132 -0.0186
 1833W        W17302   3.302  11.167  10.055 -0.2620 -0.4306  0.2820
 1834W        W17303   6.859   4.173  14.452 -0.3029  0.0529  0.1717
 1835W        W17304  11.053   6.588   1.206 -0.1407 -0.1136 -0.1375
 1836W        W17305  12.295  12.489  12.117  0.0110 -0.0869  0.1418
 1837W        W17306  15.867  12.779  10.487  0.0837  0.2340 -0.0974
 1838W        W17307  15.388  16.773   3.132  0.0214 -0.2748 -0.2380
 1839W        W17308  17.888   0.599   0.922  0.0382  0.0735  0.1225
 1840W        W17309   7.152   0.426  12.059  0.2432 -0.2355  0.1020
 1841W        W17310  10.512  11.677   1.150 -0.1630  0.3081  0.1268
 1842W        W17311  10.637  14.958  11.903 -0.0181 -0.0101  0.0875
 1843W        W17312   3.268  12.151   1.221  0.1322  0.1557  0.1252
 1844W        W17313   4.279  18.346   9.728 -0.0547  0.3694  0.0642
 1845W        W17314   1.678   6.833   1.279  0.1224  0.3729  0.2092
 1846W        W17315   4.523   2.641   0.666  0.1067 -0.2707 -0.2107
 1847W        W17316   6.742  11.139   3.108 -0.1065 -0.0042  0.1182
 1848W        W17317  15.927   1.677  15.092  0.0571 -0.2415 -0.0344
 1849W        W17318  13.508  12.371   4.243  0.1415  0.3085 -0.2300
 1850W        W17319   3.760  16.045   0.709 -0.1581  0.0685 -0.5748
 1851W        W17320   9.312   9.617   1.972  0.1496  0.5014  0.1920
 1852W        W17321   4.278  13.604  11.683 -0.1802  0.1715  0.0298
 1853W        W17322  10.041  17.395  12.345 -0.2384  0.4012  0.1523
 1854W        W17323   2.058  17.377   0.901 -0.4174  0.1612  0.1986
 1855W        W17324   3.495  10.622   0.356  0.1281 -0.0230  0.1114
 1856W        W17325   0.115   4.489   3.359  0.0253 -0.0954 -0.5484
 1857W        W17326  14.157  11.964   5.028  0.1118  0.3220 -0.1095
 1858W        W17327  13.958  14.628  12.798  0.0208  0.1711 -0.1020
 1859W        W17328   8.815  18.421  14.355 -0.0125  0.0707  0.0209
 1860W        W17329  17.953   8.715   3.568  0.1525  0.0949 -0.1135
 1861W        W17330   3.469   7.259   4.895  0.2316  0.0062 -0.0818
 1862W        W17331   2.597   5.148   1.809  0.0656  0.0650  0.3714
 1863W        W17332   0.943  10.898  12.773  0.1674  0.0172  0.3817
 1864W        W17333  10.954  17.314   4.095  0.1566 -0.0400 -0.1426
 1865W        W17334   6.025   1.121   1.523 -0.1432  0.2263  0.1355
 1866W        W17335   3.883   5.120   2.821 -0.2529  0.2552 -0.2520
 1867W        W17336   4.247  18.036   1.965  0.1213 -0.1383 -0.1761
 1868W        W17337   1.022  18.190  12.739  0.1863  0.4326 -0.1096
 1869W        W17338  11.085  16.146   3.677  0.2736 -0.1976 -0.4675
 1870W        W17339  10.606  12.799  13.411  0.0648  0.1415  0.0047
 1871W        W17340  14.195   9.328   1.615 -0.1757  0.4354  0.1125
 1872W        W17341  10.861  12.180   1.862  0.0755  0.2220  0.1070
 1873W        W17342   0.069   7.842  11.906  0.1343 -0.2142  0.0604
 1874W        W17343  14.836   3.676  14.688  0.0570 -0.2346  0.1594
 1875W        W17344   7.727   1.499  12.637 -0.1039 -0.0276  0.2688
 1876W        W17345   2.064  10.114  13.202  0.3707 -0.2439  0.1902
 1877W        W17346  17.744   8.647  15.475  0.0603  0.0335  0.1420
 1878W        W17347  15.274  17.078   1.978 -0.0465  0.4686  0.0617
 1879W        W17348   8.079  16.694   0.861 -0.1446  0.0584 -0.1111
 1880W        W17349  14.544   0.218   4.829 -0.0563 -0.0756 -0.2792
 1881W        W17350   5.414   3.336   5.515  0.3076  0.0014  0.0475
 1882W        W17351   6.258  17.793  11.350  0.1988  0.2695 -0.0966
 1883W        W17352  13.875  18.228  10.991  0.2152  0.0335  0.0267
 1884W        W17353   2.718  10.507  13.846  0.0938  0.1804 -0.0335
 1885W        W17354   0.101  10.643  11.918  0.1979  0.6196  0.2486
 1886W        W17355  17.686   3.594  10.006  0.1000  0.1147 -0.1063
 1887W        W17356   6.632  18.687  10.648  0.2192 -0.3223  0.1646
 1888W        W17357  10.394  12.731  15.658 -0.1279 -0.3709  0.1641
 1889W        W17358   6.340  13.877   3.349  0.2995  0.1539  0.0977
 1890W        W17359  13.987  10.660   4.713  0.1463  0.0324 -0.1390
 1891W        W17360  14.558   3.861   4.502  0.1887  0.0002  0.3790
 1892W        W17361   0.728  16.819  12.969 -0.2177 -0.1979  0.3550
 1893W        W17362   2.141  10.171   0.322  0.1390 -0.0823 -0.0323
 1894W        W17363  16.813  15.834  15.244  0.3711 -0.0003  0.2875
 1895W        W17364  10.570   4.262   5.335 -0.2871  0.1160 -0.0156
 1896W        W17365   6.878  15.481   5.024 -0.0058  0.0839  0.1409
 1897W        W17366  18.307  14.760  14.829 -0.0401 -0.2544  0.0940
 1898W        W17367   4.227   3.389   9.882  0.0458  0.1634  0.1383
 1899W        W17368   9.317   1.067   5.167 -0.0296 -0.0398  0.1060
 1900W        W17369   5.828   4.896   3.936 -0.0913  0.2380  0.0328
 1901W        W17370   5.026   2.500   3.107 -0.2325  0.3269  0.3404
 1902W        W17371  10.462   3.101   1.713 -0.0426  0.1448 -0.2787
 1903W        W17372   0.485  16.628   0.037 -0.1944  0.0338 -0.2936
 1904W        W17373   8.046   5.513  13.620 -0.0972  0.0741  0.0321
 1905W        W17374   9.370  10.919  11.841  0.0225 -0.2344 -0.0726
 1906W        W17375   4.402  10.192   3.817 -0.2316 -0.2944 -0.0731
 1907W        W17376   9.159   8.094  13.129  0.0074 -0.0174  0.2098
 1908W        W17377  17.959  16.018   3.723 -0.0391 -0.0631 -0.2450
 1909W        W17378  10.668   3.692  11.262 -0.1169 -0.0364  0.2711
 1910W        W17379  14.352  11.039  15.590  0.0029 -0.1156  0.0359
 1911W        W17380   0.121  11.717   4.298  0.1454 -0.3349 -0.2114
 1912W        W17381   5.238   9.673  11.227  0.2817 -0.1374 -0.1552
 1913W        W17382   5.279  11.494   5.427 -0.2050 -0.1445 -0.3291
 1914W        W17383  16.002  16.885  13.764  0.1947  0.3623  0.3452
 1915W        W17384   2.693  14.933  10.581 -0.1452 -0.3127 -0.0232
 1916W        W17385  16.556  11.397  14.867 -0.1733  0.2880  0.1120
 1917W        W17386  15.717   4.189  11.483  0.0080 -0.0418 -0.1448
 1918W        W17387   5.200   5.834  13.948 -0.2530 -0.0603 -0.0298
 1919W        W17388  12.403   1.744   0.082 -0.2223  0.3013  0.0297
 1920W        W17389   7.425   6.359  12.022  0.2886  0.1330  0.1897
 1921W        W17390   3.675   8.534   5.395 -0.0559  0.0709 -0.2151
 1922W        W17391   3.329   6.902  13.304  0.2503 -0.3399  0.0270
 1923W        W17392  13.882   5.939   2.425 -0.1296 -0.0916 -0.2149
 1924W        W17393   9.407  14.879  10.980 -0.1807 -0.1479 -0.0677
 1925W        W17394   2.403  14.155   2.941 -0.1847 -0.1743  0.0717
 1926W        W17395  17.959   6.701   5.599  0.0821 -0.0034 -0.2490
 1927W        W17396  17.478  16.466   4.456 -0.2398  0.1451  0.1208
 1928W        W17397   5.133  12.585   3.867  0.0357 -0.4393 -0.0012
 1929W        W17398  17.100   5.349   0.272  0.2943 -0.0089  0.3153
 1930W        W17399   8.248  10.002  12.982 -0.2255  0.2734 -0.2938
 1931W        W17400   2.185   1.276   4.172 -0.0058 -0.0417 -0.3357
 1932W        W17401   7.454  17.049   0.761  0.1276 -0.0119 -0.1486
 1933W        W17402  12.495   7.389   0.423 -0.2197 -0.1979 -0.0061
 1934W        W17403  14.703   3.935  13.129 -0.0146 -0.3302  0.0264
 1935W        W17404  17.783   2.870  10.100 -0.0482 -0.0303 -0.2638
 1936W        W17405  18.613   1.725   3.212  0.0609  0.0528  0.0111
 1937W        W17406  12.093  11.504   4.418  0.2180  0.0896  0.2893
 1938W        W17407   6.875   2.882   3.591  0.0667  0.0930 -0.0376
 1939W        W17408   4.268  11.620   4.632 -0.2046 -0.1278 -0.1101
 1940W        W17409  15.711   5.282  12.483  0.0062 -0.0074 -0.0091
 1941W        W17410  12.591  13.064   1.703 -0.1360 -0.3402  0.0397
 1942W        W17411   0.896  12.622   3.123  0.1698 -0.0073 -0.0483
 1943W        W17412   7.418  10.103  11.290 -0.1678 -0.0935  0.1520
 1944W        W17413  16.400   3.092  12.846 -0.1277 -0.0576 -0.1134
 1945W        W17414   9.036  13.410   4.952  0.3244 -0.0700  0.0454
 1946W        W17415   2.629   7.527   4.667 -0.2807  0.1169 -0.1434
 1947W        W17416   4.463   0.451   1.262 -0.2187 -0.0230  0.0922
 1948W        W17417  17.880  14.600  14.543 -0.0363  0.0106  0.2029
 1949W        W17418  14.771   5.640  13.404 -0.0218 -0.4394 -0.1556
 1950W        W17419  13.685  15.486   4.236 -0.0345  0.0939 -0.0615
 1951W        W17420  11.741   0.778  12.165  0.0587  0.1194  0.0767
 1952W        W17421   9.132   6.119  13.709 -0.0330  0.0329 -0.2621
 1953W        W17422   8.396  10.943   0.401 -0.2019  0.1144 -0.1763
 1954W        W17423  13.372   2.597   1.963 -0.2770  0.0844 -0.3216
 1955W        W17424   3.332   8.217   0.588  0.1326 -0.2125  0.2302
 1956W        W17425  10.846   4.211   4.023  0.2251  0.1074  0.1211
 1957W        W17426   7.748   1.496   5.128  0.2319  0.0067  0.1344
 1958W        W17427  15.408   2.419   1.695  0.1622 -0.1960  0.4155
 1959W        W17428   1.714  10.409  12.868 -0.0595 -0.0365 -0.1225
 1960W        W17429   7.969   0.812   0.630  0.1124 -0.0531 -0.1607
 1961W        W17430  17.125   4.794   2.222  0.1036 -0.1915  0.1455
 1962W        W17431   7.285  10.884   0.161 -0.0729 -0.1925  0.1109
 1963W        W17432  12.757   7.650  13.419 -0.3552 -0.4248  0.1847
 1964W        W17433   2.212  14.294   6.069  0.2035 -0.1860  0.0514
 1965W        W17434  11.035  17.940  14.587  0.1238  0.3369 -0.0672
 1966W        W17435   6.747   2.842   5.036  0.0880  0.2642 -0.2406
 1967W        W17436  11.771  16.979   3.820  0.0731  0.1845  0.0091
 1968W        W17437   7.148  18.162  15.034  0.0115  0.0529 -0.0088
 1969W        W17438   0.612   7.146  13.332  0.0832 -0.1366  0.0350
 1970W        W17439  17.236   1.137  11.842 -0.0209 -0.0438  0.2521
 1971W        W17440   6.393   6.699   1.363 -0.0084  0.0701  0.3318
 1972W        W17441   5.698  15.447  12.039  0.0155 -0.4619 -0.1493
 1973W        W17442   5.327   7.742   2.753 -0.3505  0.0670 -0.1731
 1974W        W17443  13.737  11.346  14.476 -0.0640 -0.2440 -0.1809
 1975W        W17444  10.933   5.870  14.739  0.3263 -0.0799  0.1587
 1976W        W17445  10.837   7.731  15.145  0.0779 -0.0631  0.0132
 1977W        W17446   9.896   9.207  11.609 -0.0298 -0.1255 -0.1014
 1978W        W17447   3.591  12.113   4.049  0.3427  0.1616  0.2783
 1979W        W17448   0.415  13.328  15.474 -0.2006  0.4079  0.0019
 1980W        W17449   6.391  10.672   0.777  0.2366  0.1248 -0.0408
 1981W        W17450  16.045  14.235   0.725 -0.0487  0.4015 -0.2023
 1982W        W17451   1.232  10.905   4.234 -0.1666 -0.0697  0.1955
 1983W        W17452   4.972  14.097   1.491 -0.1350  0.1579  0.1442
 1984W        W17453  10.658  18.152  14.215  0.1437  0.0464 -0.0135
 1985W        W17454  14.931  18.291  15.686  0.0660 -0.2195  0.2310
 1986W        W17455   0.565   8.701   4.142  0.1637 -0.0522  0.1934
 1987W        W17456   8.120   0.706  12.476 -0.2335  0.1315 -0.3067
 1988W        W17457   9.722  12.089   3.174 -0.0757 -0.1240 -0.1908
 1989W        W17458  12.590   3.478   0.475  0.0867 -0.1771  0.2976
 1990W        W17459   1.489  14.752   3.191 -0.0898 -0.0108  0.3431
 1991W        W17460   1.012  16.859  11.064 -0.0979  0.1823  0.0457
 1992W        W17461   4.037   4.724  10.648 -0.0402  0.0984 -0.1930
 1993W        W17462  12.925   9.803  10.799  0.1310 -0.0369  0.2703
 1994W        W17463   0.518   8.935   1.139  0.5142  0.0615 -0.0828
 1995W        W17464   8.421  11.066   5.028  0.3731  0.1826  0.1760
 1996W        W17465   0.292   8.244  14.506 -0.0979 -0.2462  0.2295
 1997W        W17466  12.115  18.354  12.626 -0.2506  0.2026  0.3391
 1998W        W17467  16.087   1.130  14.978 -0.1656 -0.2712  0.2164
 1999W        W17468   3.305  17.632   4.387  0.2462 -0.1740 -0.1969
 2000W        W17469   1.664   5.360  12.803 -0.2103  0.0034  0.0351
 2001W        W17470  15.110  17.731   4.828  0.3822  0.2899  0.3254
 2002W        W17471  14.874   0.956   4.206 -0.2549  0.2723 -0.5413
 2003W        W17472   9.845  15.255   4.961  0.1503  0.0583  0.5360
 2004W        W17473   2.930  13.656  11.973  0.2193  0.2552  0.0184
 2005W        W17474   7.074  13.598  10.868  0.1761  0.2121  0.1703
 2006W        W17475  12.376   7.324   1.158 -0.0663 -0.0032 -0.2541
 2007W        W17476  10.972  17.736   0.200  0.2632  0.1879  0.0375
 2008W        W17477   3.286   8.190  11.053  0.0020  0.1445  0.0727
 2009W        W17478  16.663   1.296  13.457 -0.4062 -0.1800 -0.2512
 2010W        W17479   5.249  14.299   4.316  0.1045  0.5233  0.0953
 2011W        W17480  11.838   7.785  14.872 -0.3051  0.0434  0.1639
 2012W        W17481  18.279   3.808  10.673  0.5281 -0.0866  0.1854
 2013W        W17482  12.091  10.013   1.361  0.0022 -0.0624  0.2279
 2014W        W17483   9.294   2.555   5.199  0.2850 -0.1422  0.3200
 2015W        W17484  14.887   5.959  12.715 -0.3434  0.0882  0.1340
 2016W        W17485  11.353   4.168  13.325 -0.0779 -0.0520  0.2387
 2017W        W17486  17.476   3.909   1.147 -0.1034 -0.0199 -0.1554
 2018W        W17487  16.376   0.945   2.474 -0.2362 -0.0048  0.2312
 2019W        W17488   8.415  11.603   0.439 -0.3415 -0.1220  0.0689
 2020W        W17489   8.847  15.170  12.416 -0.1016  0.3331 -0.2568
 2021W        W17490  10.186  13.507   2.316 -0.1748  0.2484  0.2099
 2022W        W17491  12.000   5.282  11.881  0.0412 -0.4686 -0.0690
 2023W        W17492  13.375  16.273   1.248 -0.1467  0.0831  0.2462
 2024W        W17493  17.671  13.014  14.655  0.0479 -0.1923  0.0170
 2025W        W17494   8.085   0.339   1.625 -0.0406  0.1452  0.1298
 2026W        W17495  13.976  14.599  11.171  0.0956 -0.1684  0.4215
 2027W        W17496  15.299  16.383   5.125 -0.0034  0.2979 -0.1859
 2028W        W17497  15.621  18.554   5.734 -0.2376  0.7172 -0.2416
 2029W        W17498  12.912  13.240  15.407 -0.0090  0.0588  0.0505
 2030W        W17499   6.805   1.641   1.440 -0.1525  0.0007  0.2525
 2031W        W17500  14.234  16.518   1.434 -0.0926 -0.0703  0.1101
 2032W        W17501  17.509  17.234   2.900 -0.1690  0.4142 -0.1575
 2033W        W17502  16.128  15.873  12.339  0.0596 -0.0797  0.1698
 2034W        W17503  14.182  16.414   5.483  0.2644  0.2269 -0.0713
 2035W        W17504   7.086   9.114   2.736  0.1161 -0.0408 -0.1208
 2036W        W17505   8.713  16.464   0.839 -0.0362 -0.2049 -0.0758
 2037W        W17506  18.099  13.725  11.775 -0.2961  0.0014 -0.1288
 2038W        W17507   9.006   5.764   5.773  0.0299 -0.2760 -0.2043
 2039W        W17508  11.341   9.839  12.237  0.0057 -0.0773  0.0302
 2040W        W17509   8.251   9.549   2.015  0.3666 -0.1096  0.0773
 2041W        W17510   9.467   2.447  13.934  0.0855 -0.1321 -0.1786
 2042W        W17511  15.000   1.441   4.670 -0.1376  0.4391  0.0715
 2043W        W17512  12.129  15.220  15.232 -0.0021 -0.4465  0.2359
 2044W        W17513   8.150   1.701   2.411  0.0486 -0.0376  0.1143
 2045W        W17514  13.357   1.167   1.757  0.4873  0.0554 -0.0177
 2046W        W17515  11.520   3.656  13.280 -0.0846  0.0816  0.4991
 2047W        W17516  18.256   3.571   2.656  0.1654  0.0424  0.1244
 2048W        W17517  11.269  17.933   3.680  0.2776  0.0843  0.3529
 2049W        W17518   1.312   7.750   2.938 -0.1330  0.0433 -0.1619
 2050W        W17519   4.259   6.117  14.908  0.3435 -0.1729 -0.0644
 2051W        W17520   7.905   9.898  13.368  0.5151 -0.2975 -0.2765
 2052W        W17521  10.823  11.808   3.093 -0.1211  0.2820 -0.0044
 2053W        W17522  17.129  10.834   3.067  0.2733 -0.0172 -0.1936
 2054W        W17523   3.266  12.589  13.799 -0.0765  0.2466  0.0845
 2055W        W17524  10.542  14.767   3.133 -0.0558 -0.0191 -0.1014
 2056W        W17525   0.439  14.496  12.151  0.3116 -0.0917 -0.0104
 2057W        W17526  14.346  13.669  10.727 -0.4525 -0.2724  0.1652
 2058W        W17527   5.648   4.167   4.546 -0.0080 -0.1543  0.2206
 2059W        W17528   6.681  13.131   4.306  0.2313  0.2236  0.2301
 2060W        W17529   6.725   5.078  15.048  0.0911 -0.0334 -0.0856
 2061W        W17530  18.580  18.249  13.884  0.1086  0.1929 -0.2755
 2062W        W17531   2.461   2.934   4.879 -0.0380 -0.0876 -0.1662
 2063W        W17532   7.071  12.888  12.215 -0.1899 -0.0013  0.0414
 2064W        W17533   0.172  15.184  10.590 -0.1936  0.2793 -0.1523
 2065W        W17534  15.114  17.920  10.572 -0.2929  0.0349  0.2158
 2066W        W17535   9.181   2.568  12.341 -0.0551  0.0217 -0.4208
 2067W        W17536   4.494   6.823  12.599  0.0513 -0.2020  0.2296
 2068W        W17537   3.084  13.004  15.231 -0.1314 -0.0215  0.3195
 2069W        W17538  18.088   2.284   0.492  0.4097 -0.1514 -0.0261
 2070W        W17539   5.492  13.162  14.518  0.0342  0.1305 -0.3312
 2071W        W17540   3.450  18.346   4.159  0.3896  0.0250 -0.2394
 2072W        W17541  14.296  10.587  11.045 -0.1072  0.4711  0.0180
 2073W        W17542  17.561   1.013  14.891 -0.0392  0.4070 -0.0615
 2074W        W17543   4.345  14.766   4.894  0.4782 -0.2780  0.4636
 2075W        W17544   8.415   8.554  14.062  0.1109 -0.1282 -0.0549
 2076W        W17545  10.931   8.077  10.637 -0.3699 -0.2522  0.0960
 2077W        W17546   2.813   5.079  12.478 -0.2833  0.0184 -0.0719
 2078W        W17547   7.604   3.046  12.664 -0.0368  0.0063 -0.1084
 2079W        W17548  10.510   0.875  11.175 -0.0062  0.0790  0.0641
 2080W        W17549  14.571   7.485   0.839 -0.2115 -0.2481 -0.0665
 2081W        W17550   2.009  11.623   1.847  0.0634  0.0789 -0.0691
 2082W        W17551   4.869  10.352   1.657 -0.0732  0.2932  0.3576
 2083W        W17552   7.665   6.774  12.244 -0.0807  0.2259 -0.0450
 2084W        W17553   8.755  13.589  14.467  0.1133 -0.2281 -0.1502
 2085W        W17554   1.428   3.758  15.422 -0.1072  0.1445 -0.1171
 2086W        W17555  12.216   1.930   3.045  0.3900 -0.0095 -0.0632
 2087W        W17556   9.634   2.927   1.349 -0.0506  0.0589 -0.1739
 2088W        W17557   3.139   8.280  11.603  0.3131 -0.2432  0.2170
 2089W        W17558   4.466  10.334   5.834  0.2096 -0.2785  0.2200
 2090W        W17559  10.889  13.854   1.587 -0.1451 -0.0615 -0.0213
 2091W        W17560   1.575   1.008   0.641 -0.0982  0.0465  0.0070
 2092W        W17561  15.519   1.363   4.696  0.0651 -0.1052 -0.4243
 2093W        W17562  17.097  10.277   1.214  0.0092 -0.0114  0.2143
 2094W        W17563   7.753   0.300   0.120 -0.2334  0.2742 -0.0821
 2095W        W17564   6.564   6.893  14.937 -0.3867 -0.2616  0.2315
 2096W        W17565   7.298   3.911  14.782 -0.1182  0.0974 -0.2145
 2097W        W17566   6.090  11.968   4.739  0.1074 -0.0020  0.1829
 2098W        W17567  18.127   9.115   3.094 -0.0242  0.1831 -0.1951
 2099W        W17568  10.647  14.100   0.923  0.0797 -0.0369  0.0795
 2100W        W17569   7.600  13.547  12.209  0.1311 -0.3455  0.1210
 2101W        W17570   6.569   4.586  15.134 -0.1893 -0.1146  0.3203
 2102W        W17571   4.321   7.827  11.360  0.1437 -0.1057 -0.1109
 2103W        W17572   7.885   0.278  14.543  0.0023  0.0789  0.0444
 2104W        W17573   2.755   5.264  11.240  0.2108 -0.1799 -0.2088
 2105W        W17574   3.564  14.626   3.581  0.5125  0.2682 -0.6298
 2106W        W17575   3.683   0.824   0.939  0.3981  0.0149 -0.4016
 2107W        W17576   6.248   2.966   2.889  0.3343  0.2717 -0.0165
 2108W        W17577  11.943   0.137  15.236  0.0410  0.2244 -0.1217
 2109W        W17578   4.168  16.709   3.614  0.2572  0.0131  0.2496
 2110W        W17579  11.377   2.169   3.576 -0.0013  0.1933 -0.1396
 2111W        W17580   3.873   8.944   4.215  0.3521  0.2631 -0.1488
 2112W        W17581  10.032   6.787  14.809 -0.0819  0.0351 -0.0141
 2113W        W17582   1.937   1.127   2.132 -0.0882  0.0599 -0.3118
 2114W        W17583  14.646   3.313   1.542  0.2783  0.0066  0.3932
 2115W        W17584   8.470  18.276   3.768  0.1334  0.1988  0.1400
 2116W        W17585   6.381   9.461   5.014 -0.1856 -0.4197 -0.0828
 2117W        W17586   0.227   3.110  14.742  0.4125 -0.0422 -0.1796
 2118W        W17587  12.554  12.531  11.651 -0.1152  0.1809 -0.0186
 2119W        W17588   8.385  17.161   9.560 -0.0256 -0.0752 -0.4322
 2120W        W17589   7.635   2.193   1.477 -0.0695 -0.0161 -0.0812
 2121W        W17590   1.505   6.704  14.203 -0.0048  0.0291 -0.0318
 2122W        W17591  15.377   9.057   6.056  0.2034 -0.0897  0.5252
 2123W        W17592   2.074  17.545  14.655  0.1408 -0.1594  0.0725
 2124W        W17593  13.949   1.098  12.014  0.1691  0.0915 -0.1468
 2125W        W17594  13.347   3.800  15.127 -0.1295 -0.3286 -0.1513
 2126W        W17595   7.158   4.966   3.050 -0.3542 -0.1449  0.0496
 2127W        W17596   9.877  10.095   3.043 -0.1992  0.0061  0.4743
 2128W        W17597  11.556  15.301   3.685 -0.0751 -0.2178 -0.1379
 2129W        W17598  14.824   8.529  13.118 -0.0248  0.0755 -0.1029
 2130W        W17599  10.854   2.678   4.294  0.3590 -0.1113  0.2237
 2131W        W17600  17.977   5.591   3.519  0.1018 -0.0780 -0.1309
 2132W        W17601   8.696   1.969  15.392  0.2036  0.2214 -0.0010
 2133W        W17602   2.757   3.163  10.459 -0.1202  0.0308 -0.1614
 2134W        W17603  15.789   7.205   4.382  0.1106  0.0816 -0.3260
 2135W        W17604  11.375   7.304   6.054 -0.0692  0.1884 -0.0179
 2136W        W17605   4.368   6.264  11.008  0.1113 -0.1604  0.1702
 2137W        W17606   5.600   4.856  10.475  0.1411  0.1194  0.0021
 2138W        W17607  10.295   4.548   3.000  0.0497  0.2548 -0.0525
 2139W        W17608  11.825  14.173   1.679 -0.2338 -0.3020 -0.0193
 2140W        W17609  10.152  14.703   3.429 -0.0810 -0.0174  0.2347
 2141W        W17610  10.820   6.085   1.485  0.0956  0.0166  0.0458
 2142W        W17611  15.681  17.510  11.154  0.2313  0.0039  0.0138
 2143W        W17612  16.556  10.208  11.815  0.3278  0.1601 -0.2021
 2144W        W17613   2.032   9.594   0.527  0.0434 -0.1595 -0.0959
 2145W        W17614  11.957   6.974   3.888  0.1855 -0.2316 -0.2642
 2146W        W17615  17.363  16.178   0.417  0.0330  0.0018  0.2168
 2147W        W17616  10.688  15.796   3.748  0.0577 -0.2167 -0.0578
 2148W        W17617  13.813  16.275   2.552  0.0216  0.3083 -0.0261
 2149W        W17618  18.130   0.000  10.820  0.1689  0.0499  0.0197
 2150W        W17619  11.243   0.777  14.173 -0.0034  0.1505  0.3154
 2151W        W17620  14.199  17.557   4.423 -0.0916 -0.4636  0.2081
 2152W        W17621  14.427   7.099  12.555 -0.2132 -0.3212  0.2163
 2153W        W17622  15.261   3.193   2.030 -0.0518  0.0082  0.4034
 2154W        W17623   6.918   0.528   3.137  0.1753 -0.0936  0.1689
 2155W        W17624  14.505   7.468  12.232 -0.1378 -0.2464  0.0739
 2156W        W17625   0.145  12.290  13.443 -0.0399  0.0983  0.0900
 2157W        W17626   2.585   5.728   4.851 -0.2099 -0.0976 -0.2944
 2158W        W17627  11.370   1.093  11.494  0.0322 -0.1725  0.0975
 2159W        W17628   7.969  12.015   2.209 -0.0230  0.0453  0.1343
 2160W        W17629  12.701   9.129  12.957  0.3227  0.0576  0.0051
 2161W        W17630   3.674  13.931  13.662  0.1540  0.2097 -0.1621
 2162W        W17631  15.438  12.700   2.216  0.0887  0.0455  0.1078
 2163W        W17632   4.732   5.786  14.642 -0.2020 -0.1955 -0.1590
 2164W        W17633  17.571  12.445   5.780  0.2394  0.3099 -0.1063
 2165W        W17634  10.975  13.006   0.426  0.0020  0.1069  0.0861
 2166W        W17635   6.512  18.243  12.501 -0.0054 -0.0351 -0.1793
 2167W        W17636   7.431  11.699   0.551 -0.1141  0.0058  0.2157
 2168W        W17637  13.962  13.646   2.420  0.0908 -0.2750 -0.1035
 2169W        W17638   5.463  11.123  14.361  0.0970 -0.0589 -0.0038
 2170W        W17639   9.884   4.238   2.377  0.0643  0.0356  0.0214
 2171W        W17640   0.074   5.761   3.195  0.5194  0.0376  0.0584
 2172W        W17641  17.701  18.056   0.234  0.0773 -0.1258  0.0261
 2173W        W17642  17.166  17.929  14.332 -0.0309  0.3599 -0.1591
 2174W        W17643   3.709   1.813  11.961 -0.2881 -0.2039  0.1563
 2175W        W17644  17.781   9.476   3.325 -0.3347  0.0696 -0.0651
 2176W        W17645   0.134   9.544   4.290  0.3478 -0.0949  0.2258
 2177W        W17646  13.420   5.787   1.035 -0.0438 -0.0842 -0.0802
 2178W        W17647  16.637   3.938   4.143  0.0903  0.3486 -0.1855
 2179W        W17648  18.069   7.630  12.882  0.0664  0.2283 -0.0985
 2180W        W17649   9.928   7.395  14.318 -0.3882  0.1931  0.1858
 2181W        W17650   5.598   6.621  15.770  0.1076  0.1144 -0.0332
 2182W        W17651  16.460   2.515   3.572  0.1376  0.1582  0.0670
 2183W        W17652  18.543   6.808   2.820  0.2655  0.0051  0.3182
 2184W        W17653   8.082   9.738   5.760 -0.0164  0.0834 -0.0595
 2185W        W17654   1.673   1.983  11.874  0.1025  0.0904 -0.0179
 2186W        W17655  17.683  17.947  15.307 -0.0816 -0.1943  0.1726
 2187W        W17656  10.592  17.600  12.015  0.1291 -0.2106 -0.0573
 2188W        W17657   3.820   5.009  11.031 -0.0854  0.0539  0.3138
 2189W        W17658  15.313   9.317  13.153  0.1102 -0.2868 -0.2367
 2190W        W17659  17.064  13.566   1.845 -0.2804  0.4232  0.3556
 2191W        W17660   3.951  13.423   0.831 -0.0310  0.2805 -0.2288
 2192W        W17661   8.650  15.656   1.758 -0.1536 -0.0316 -0.0746
 2193W        W17662   2.301   9.085   3.326 -0.0431  0.2555  0.0080
 2194W        W17663   6.916  14.035  13.904  0.3078 -0.1685  0.2370
 2195W        W17664  12.094  12.680  15.080 -0.0843  0.2024 -0.1397
 2196W        W17665   3.755  16.121   5.614  0.2992  0.2110 -0.0392
 2197W        W17666  15.373   2.285  12.723  0.0329  0.2630 -0.2082
 2198W        W17667  13.166   2.768  10.788  0.1466 -0.0327  0.2244
 2199W        W17668   5.784   7.278  11.350  0.0880  0.2943  0.0663
 2200W        W17669   7.113   1.179   4.081 -0.1547 -0.1027 -0.0359
 2201W        W17670   2.224   0.393  12.832  0.0928 -0.0997  0.0422
 2202W        W17671  15.638  11.678   1.358  0.3676 -0.0461  0.1712
 2203W        W17672  17.387   0.709   0.977 -0.0000  0.3064 -0.1936
 2204W        W17673  10.396  15.734   2.544  0.1524  0.0638  0.1293
 2205W        W17674  11.157   9.293  15.037  0.1598  0.1489  0.0764
 2206W        W17675  14.766   1.026   3.170 -0.1905 -0.2292  0.1032
 2207W        W17676  14.301   7.545  14.158 -0.1156  0.0579 -0.1571
 2208W        W17677   1.253   5.561  13.657  0.0750  0.0814  0.1984
 2209W        W17678  12.070   5.720   5.795  0.4151  0.3225  0.0982
 2210W        W17679  16.664   3.294  14.331 -0.0711  0.2779 -0.0851
 2211W        W17680   4.266   2.314  10.474  0.0370  0.1117  0.2188
 2212W        W17681   5.781  15.463   4.190 -0.3701  0.2110 -0.0295
 2213W        W17682   1.472   3.450  12.903 -0.3645 -0.0040  0.0455
 2214W        W17683  16.184   4.374   3.503 -0.1256 -0.1922  0.1694
 2215W        W17684   6.625   9.333   5.556  0.3166  0.1642  0.0063
 2216W        W17685  15.660   3.546   4.321 -0.1498 -0.1628 -0.0981
 2217W        W17686   0.460  13.135  13.588  0.0595  0.0204  0.0151
 2218W        W17687   3.779   9.791  11.997  0.0566 -0.1494 -0.0854
 2219W        W17688  17.483  17.152   2.296  0.0496  0.0048 -0.0149
 2220W        W17689   1.186  14.080  13.613 -0.0694 -0.0719 -0.4319
 2221W        W17690  13.072   7.754   5.760  0.0859  0.1999  0.0499
 2222W        W17691   8.663   8.416  12.240  0.0316 -0.1437 -0.1565
 2223W        W17692  12.308  13.838  14.824 -0.1468  0.3535  0.0776
 2224W        W17693   5.316   5.961  10.288 -0.2151 -0.2480  0.0321
 2225W        W17694  11.426   9.636   2.774  0.3724 -0.2671 -0.1352
 2226W        W17695   3.688   4.500   0.949 -0.1138 -0.2876  0.0409
 2227W        W17696   4.264  11.580   0.718 -0.5575 -0.1139  0.1377
 2228W        W17697   9.883   4.698  15.036 -0.2038 -0.1124 -0.5942
 2229W        W17698   6.456   2.002   5.006  0.0723  0.3717 -0.3456
 2230W        W17699  10.018  17.671  11.297 -0.0539 -0.1294  0.2337
 2231W        W17700   1.564  10.013  11.300 -0.0900  0.0587 -0.1407
 2232W        W17701   0.232   9.272  14.507 -0.3572 -0.0619 -0.1623
 2233W        W17702  16.071  12.556   4.924  0.1434 -0.4725 -0.1546
 2234W        W17703   6.240   3.348  10.842  0.1122  0.3237 -0.2180
 2235W        W17704   3.276   6.338   2.296 -0.1093  0.2039  0.0718
 2236W        W17705  12.577   5.091  12.526  0.1113  0.0043  0.3036
 2237W        W17706   5.600  18.594   1.515 -0.0569 -0.3684  0.0060
 2238W        W17707  11.773   6.257   3.157  0.0326 -0.0190 -0.4098
 2239W        W17708   9.225   2.889   2.987  0.1553 -0.1501 -0.2984
 2240W        W17709   5.510  10.758  12.370 -0.0991 -0.0467  0.0636
 2241W        W17710  18.601   4.180  13.003  0.2184  0.1128 -0.0125
 2242W        W17711   5.961   7.360   3.264 -0.0301 -0.2150  0.3063
 2243W        W17712  11.955  17.723  12.127  0.0221 -0.1275 -0.0565
 2244W        W17713   3.445  11.635   3.792 -0.2276 -0.0270 -0.2217
 2245W        W17714   7.291   9.928   0.099  0.2646  0.2748  0.0010
 2246W        W17715   2.477   8.247  13.197  0.0472  0.0292 -0.1539
 2247W        W17716   8.326   4.742  12.359  0.0281  0.1158 -0.0591
 2248W        W17717   5.208  12.493  11.286 -0.2421 -0.3256  0.2859
 2249W        W17718  10.109  16.977  10.188 -0.1652 -0.1590 -0.0935
 2250W        W17719  14.714   3.288  14.378  0.0439  0.0137  0.1885
 2251W        W17720  13.236   0.405  13.726  0.1640 -0.1490  0.1827
 2252W        W17721  16.894   7.084   3.409  0.2656  0.2406 -0.0188
 2253W        W17722   9.294   5.597   4.764 -0.0785  0.0298 -0.0105
 2254W        W17723  15.784   8.631   5.736 -0.2042 -0.3575 -0.1104
 2255W        W17724   1.404   4.615   0.025  0.0648  0.0013  0.1112
 2256W        W17725  10.924   6.859  12.509 -0.0325  0.0240 -0.0803
 2257W        W17726   6.046  16.386  11.235  0.0623  0.5165 -0.2555
 2258W        W17727  12.868  15.878  13.218 -0.0845  0.2183 -0.0836
 2259W        W17728   8.329   6.484   2.061 -0.1868  0.1843  0.2602
 2260W        W17729  13.089   9.369   3.010 -0.1716  0.3179  0.1549
 2261W        W17730  10.008   3.433   3.518  0.0447 -0.1706 -0.3096
 2262W        W17731  12.544  14.556  12.750 -0.0727 -0.1200 -0.0198
 2263W        W17732   7.909  11.569  14.106 -0.0605 -0.0156  0.0294
 2264W        W17733   6.146  11.622  14.763  0.0124 -0.3012 -0.2933
 2265W        W17734   8.882  13.813  11.974  0.1126 -0.0699 -0.0988
 2266W        W17735  16.116   4.485  15.481 -0.1285 -0.0568 -0.0552
 2267W        W17736   9.104  16.551  14.305 -0.0419 -0.2947 -0.3045
 2268W        W17737   2.704  16.757   2.877  0.0151  0.1445  0.1725
 2269W        W17738   0.309   9.652   4.855  0.0438  0.2581 -0.0095
 2270W        W17739  15.222  16.283   4.563  0.1684  0.1572 -0.2070
 2271W        W17740   0.733   2.817  11.827 -0.0482 -0.1735 -0.2973
 2272W        W17741  13.888  18.637   2.952 -0.2732  0.0099  0.2091
 2273W        W17742  13.863  11.806  15.212 -0.0963  0.0325  0.0813
 2274W        W17743  14.473   1.361  14.023  0.2464  0.1813  0.4102
 2275W        W17744   8.670  13.878  13.892 -0.2659 -0.0769  0.2317
 2276W        W17745   2.159  13.293  13.259 -0.1581 -0.2932 -0.0764
 2277W        W17746  11.999   9.720   4.049 -0.2629 -0.1987 -0.0478
 2278W        W17747   6.598  15.903   3.486  0.0294  0.1116  0.1663
 2279W        W17748  10.175   9.872   0.102  0.1087 -0.1829 -0.0445
 2280W        W17749  16.373  14.651   4.255  0.1851  0.0907 -0.0674
 2281W        W17750   9.362   0.270  11.066 -0.0006  0.1568  0.3733
 2282W        W17751  14.669   1.269   5.072  0.0371  0.1620 -0.1721
 2283W        W17752   0.226   9.506  13.339  0.2137  0.0772  0.0541
 2284W        W17753   4.503  15.477  11.052  0.1398 -0.2521 -0.1764
 2285W        W17754  12.199   2.585  12.068 -0.0851 -0.2203  0.1282
 2286W        W17755  15.737   9.067  14.813 -0.0279  0.1736  0.1202
 2287W        W17756  17.893   9.616   0.526  0.2419 -0.1645  0.0493
 2288W        W17757  12.693   8.915   0.023 -0.0340  0.2398  0.0052
 2289W        W17758  18.651  13.348  11.058  0.3555 -0.0723 -0.3996
 2290W        W17759   4.022   4.243   2.682 -0.4460 -0.0696  0.0965
 2291W        W17760  14.422  16.234  15.758  0.0248 -0.0136 -0.1417
 2292W        W17761  16.105  18.666   1.239  0.2371  0.0429 -0.0472
 2293W        W17762  16.852  17.060   4.078  0.4110  0.0861 -0.2141
 2294W        W17763   3.751   5.527   4.265  0.0380 -0.0360  0.3694
 2295W        W17764  10.809  16.428   0.567  0.0549 -0.0516  0.0547
 2296W        W17765   0.831   5.519   2.562  0.4207  0.2210 -0.1754
 2297W        W17766   7.297  13.409  12.708 -0.1451  0.0455 -0.0615
 2298W        W17767  15.266   6.615  15.667 -0.1407  0.1774 -0.0113
 2299W        W17768  12.634  10.823  12.158  0.0380 -0.1227  0.1691
 2300W        W17769  11.815   2.811   4.371 -0.0083 -0.0904 -0.0406
 2301W        W17770   9.807  18.178  15.091  0.1322 -0.3404 -0.3294
 2302W        W17771  14.396  10.398   1.841  0.3552 -0.2008 -0.0381
 2303W        W17772   6.309   7.636   2.915 -0.2511  0.1545  0.2398
 2304W        W17773  15.914   7.204   9.667 -0.0257  0.0765 -0.2540
 2305W        W17774   7.325   9.132   0.875 -0.0481  0.1967  0.0879
 2306W        W17775   3.334   9.920  14.922  0.1336 -0.3604  0.1624
 2307W        W17776   4.572  10.179  13.868  0.0797  0.0705  0.0815
 2308W        W17777   2.417   9.771   0.137 -0.0112 -0.1499 -0.1530
 2309W        W17778  13.965   9.228   2.545 -0.1291  0.2781 -0.1092
 2310W        W17779  17.996  15.167  11.897 -0.0803 -0.0419  0.2707
 2311W        W17780   5.656   1.595  13.185  0.0982 -0.2501  0.0904
 2312W        W17781  11.138  10.977  11.177 -0.2395  0.0645 -0.1123
 2313W        W17782   8.003  11.484   2.229  0.2199 -0.1549 -0.0527
 2314W        W17783   7.337   1.023  13.065  0.0962  0.1364 -0.4927
 2315W        W17784  10.513   1.247  14.497 -0.0812  0.0535 -0.0015
 2316W        W17785   6.864   8.905   0.986  0.1048  0.1481  0.1005
 2317W        W17786  10.915   4.999  13.444  0.3129  0.1535 -0.2516
 2318W        W17787  10.650   8.858   3.614 -0.0569 -0.0285 -0.3102
 2319W        W17788  16.263  11.050   2.539  0.0841 -0.0962 -0.0676
 2320W        W17789   7.810   7.191  11.912 -0.0688 -0.3766 -0.0567
 2321W        W17790   4.039   3.669  13.940 -0.2226  0.0252  0.3481
 2322W        W17791   4.104  13.030  14.647 -0.1027  0.0300 -0.3644
 2323W        W17792  11.921   6.546  12.711  0.0646  0.2147 -0.0401
 2324W        W17793  17.433   9.301  14.766 -0.0559 -0.1676 -0.1703
 2325W        W17794  12.735  10.300  14.762  0.2877 -0.1149  0.0267
 2326W        W17795   8.939   9.555   3.704 -0.0520  0.4624  0.3872
 2327W        W17796  14.360   1.669   2.332  0.4648 -0.0695 -0.1101
 2328W        W17797  15.070   1.008  14.179 -0.1866  0.0175 -0.0952
 2329W        W17798   7.082   0.426   5.139 -0.4515  0.2836  0.0453
 2330W        W17799   5.929   5.188   0.170 -0.0760  0.3420 -0.1070
 2331W        W17800  11.487  14.738   0.875 -0.0485  0.0887  0.1716
 2332W        W17801  10.225   4.257  11.919 -0.1464 -0.0137  0.0385
 2333W        W17802  13.542  12.439  11.946  0.2025  0.0087 -0.0182
 2334W        W17803   2.802   5.138   2.506  0.0790  0.2347  0.2303
 2335W        W17804  15.619  15.816  14.028 -0.0362  0.0574  0.2385
 2336W        W17805   3.255  12.387  13.002 -0.1704 -0.0829  0.2910
 2337W        W17806  17.447   6.163  14.347 -0.1372  0.1530 -0.4923
 2338W        W17807  12.023   3.301  11.029 -0.2953 -0.2075 -0.1244
 2339W        W17808   6.733   9.368  14.390 -0.0310 -0.0745  0.0721
 2340W        W17809   5.566   5.507   1.560  0.1116  0.0869  0.0587
 2341W        W17810  11.667   3.056   1.085  0.3549  0.0823  0.2638
 2342W        W17811   6.868   8.780   2.357  0.3782 -0.0644 -0.0637
 2343W        W17812   8.447   1.328  15.248 -0.1663 -0.2827  0.2137
 2344W        W17813  10.232  17.784  14.067  0.0333  0.1711 -0.4869
 2345W        W17814  13.717   1.784   0.776  0.2217 -0.1282 -0.1240
 2346W        W17815   5.373   2.264  11.486  0.1815 -0.3227 -0.1874
 2347W        W17816  12.399   3.125   1.902 -0.1141  0.0783  0.1830
 2348W        W17817   5.424   6.328   5.273  0.2163  0.1118  0.2511
 2349W        W17818  14.026  10.500  13.904  0.3242  0.4043  0.0578
 2350W        W17819  10.227  17.611   0.193 -0.1128 -0.0285  0.3851
 2351W        W17820   6.423  13.404   1.468 -0.3079  0.1207 -0.0657
 2352W        W17821  15.524   5.913  10.446  0.1655 -0.0485 -0.0181
 2353W        W17822   0.261  16.650   1.996 -0.2977 -0.0815  0.1654
 2354W        W17823   3.918  13.376   1.344  0.0762 -0.4931 -0.0867
 2355W        W17824   8.277   8.481   4.295 -0.2508  0.0237 -0.0194
 2356W        W17825  17.492   4.760   3.362 -0.0274 -0.1486 -0.1880
 2357W        W17826   6.309  11.276  11.789 -0.0691  0.2466 -0.0727
 2358W        W17827   9.702  13.366  12.222 -0.2144  0.2263  0.4162
 2359W        W17828  13.944  14.166   0.954 -0.0268 -0.1147 -0.0503
 2360W        W17829  12.082   2.474  13.867 -0.1400 -0.1597  0.2009
 2361W        W17830  12.707  11.880   3.227 -0.0051 -0.2532  0.0060
 2362W        W17831  11.085  11.047   2.537  0.2874 -0.1137  0.0525
 2363W        W17832  10.049   8.823  11.879 -0.0194  0.0540 -0.1370
 2364W        W17833  12.346   5.204  15.070  0.0198 -0.0364  0.0992
 2365W        W17834  13.104   0.487  10.517 -0.0704  0.2255 -0.2233
 2366W        W17835   4.930   0.870   3.100  0.2085  0.0663  0.0666
 2367W        W17836  10.941   7.824  13.833  0.3401  0.1618 -0.3393
 2368W        W17837   8.327  12.736  15.581 -0.0254 -0.2571  0.3092
 2369W        W17838   9.661  18.664  11.310  0.0606  0.2113 -0.3949
 2370W        W17839   8.608  14.257   1.494 -0.2109  0.0465  0.0746
 2371W        W17840  11.122  13.055  12.409 -0.1865 -0.1521  0.3677
 2372W        W17841   5.012   8.350  15.212 -0.0490  0.1799 -0.0801
 2373W        W17842   5.569  18.574  14.857 -0.1729  0.3360 -0.3782
 2374W        W17843  17.576   5.641  11.710  0.2211  0.0797 -0.1963
 2375W        W17844  17.486  10.359   0.497  0.0763  0.3150  0.0842
 2376W        W17845   1.106   9.522  13.382 -0.2231 -0.0948  0.5005
 2377W        W17846   5.030  12.117   2.441  0.0461 -0.1914 -0.3102
 2378W        W17847  16.587  18.226   2.736  0.0499 -0.0034 -0.0593
 2379W        W17848  15.396   5.589  14.644  0.0319 -0.0459  0.1127
 2380W        W17849   2.801  12.063   0.553 -0.0109  0.0298 -0.1503
 2381W        W17850  12.400   4.053  13.246  0.1233  0.0916  0.0751
 2382W        W17851   5.451   6.970  14.232  0.0103  0.1645  0.0347
 2383W        W17852  17.045  17.988   3.161 -0.2850  0.1216  0.0080
 2384W        W17853   6.024  14.685   5.201  0.0205  0.0081  0.3466
 2385W        W17854  11.203  11.553  13.496  0.2461 -0.1285  0.2642
 2386W        W17855   0.968  10.329  14.193  0.0179 -0.0760  0.0199
 2387W        W17856  15.959   4.863   4.862 -0.1257  0.0390 -0.0035
 2388W        W17857  11.738  10.649   0.605 -0.0030  0.1491  0.1533
 2389W        W17858  15.876  15.244   5.521  0.1969  0.0124  0.0516
 2390W        W17859  14.325   7.462  13.275  0.0608 -0.5038  0.1964
 2391W        W17860   1.143   2.568  10.659 -0.0914 -0.0813  0.0440
 2392W        W17861   3.214  15.097   5.240  0.0533  0.0548 -0.5615
 2393W        W17862  10.555  10.293  14.036 -0.0531 -0.1772  0.1270
 2394W        W17863   5.213  14.611  15.638 -0.0367  0.1547 -0.0659
 2395W        W17864  10.108  13.123   2.028  0.2464 -0.0712  0.0418
 2396W        W17865   2.817  10.023  10.531 -0.2147  0.2727 -0.1442
 2397W        W17866   6.646   1.301   4.229  0.1702 -0.1350  0.0389
 2398W        W17867  10.839   4.762   0.883 -0.0440 -0.0945  0.2378
 2399W        W17868   6.716  16.883   1.298  0.2023 -0.0507  0.1431
 2400W        W17869   5.237   1.268   5.566 -0.3398 -0.3032 -0.3379
 2401W        W17870  17.356   7.917  12.136 -0.1132  0.1777 -0.1137
 2402W        W17871  15.158   0.748   9.979  0.0355  0.0370  0.0863
 2403W        W17872  16.100  18.120   2.728  0.0880 -0.1012  0.1852
 2404W        W17873  14.259   4.498  12.842  0.1066  0.1177 -0.0367
 2405W        W17874  11.006   2.627  13.752 -0.3970 -0.0565 -0.0033
 2406W        W17875   2.203  18.101  12.264 -0.2640 -0.2769 -0.1478
 2407W        W17876  14.376   3.851  11.496 -0.1250  0.0475 -0.0320
 2408W        W17877   5.334  18.164   1.468  0.1105  0.2622  0.0710
 2409W        W17878   6.902  17.520   4.504 -0.0211 -0.0489 -0.1113
 2410W        W17879   0.954  17.762  13.896 -0.0551 -0.2576 -0.0697
 2411W        W17880   5.686  13.933  14.179 -0.1535  0.0472  0.2324
 2412W        W17881  13.059  17.606  12.388  0.2458 -0.2316  0.1837
 2413W        W17882   9.560  18.048   5.748  0.0319 -0.0888  0.0153
 2414W        W17883   3.860  14.431   5.342 -0.2081 -0.1208 -0.0144
 2415W        W17884   7.274  10.725  15.498  0.0578 -0.1376  0.1049
 2416W        W17885  11.359   7.394   4.358  0.0780 -0.1981 -0.1861
 2417W        W17886   2.695  16.545   3.406 -0.0451  0.0315 -0.0761
 2418W        W17887   8.393  12.045   0.900 -0.0822 -0.0814  0.2179
 2419W        W17888   2.998  16.280   2.980  0.3618 -0.3677  0.2142
 2420W        W17889   9.704   2.606  11.757 -0.0738  0.2418 -0.0272
 2421W        W17890  14.218   6.609  15.527  0.0577  0.1585 -0.1752
 2422W        W17891   2.970   2.383  14.125 -0.1603 -0.3226 -0.3308
 2423W        W17892   9.283  15.661   0.615 -0.1534 -0.0070 -0.1529
 2424W        W17893   0.772  13.086  12.494 -0.2507  0.2956 -0.3169
 2425W        W17894  13.859  13.640  14.699 -0.3198  0.0190  0.2137
 2426W        W17895   7.024  16.203  14.961 -0.1566 -0.1847 -0.2458
 2427W        W17896   6.900  12.025   2.781 -0.0447  0.2838  0.2863
 2428W        W17897  13.436  18.142   2.478 -0.0429  0.2329  0.1143
 2429W        W17898   4.648  14.960   1.957  0.0459  0.1626  0.4890
 2430W        W17899  10.593   5.063  14.556  0.0340 -0.0133  0.0754
 2431W        W17900   8.035   3.142  13.422  0.1241 -0.1527 -0.0346
 2432W        W17901  10.523   4.039  14.399  0.1208  0.1062 -0.0525
 2433W        W17902  13.806  14.978   2.990  0.3983  0.0501 -0.3559
 2434W        W17903  14.657   3.461  13.197  0.0734 -0.1316 -0.0507
 2435W        W17904   8.973  14.558   1.057  0.1575 -0.0510 -0.1906
 2436W        W17905  13.595   3.149  12.949 -0.1383  0.0279  0.0216
 2437W        W17906   6.698  11.868   2.024 -0.2691  0.1939 -0.1239
 2438W        W17907  18.323  18.434  13.318  0.0270 -0.0131 -0.0866
 2439W        W17908  14.570   7.875   1.248  0.0228  0.0961 -0.3281
 2440W        W17909   1.325  16.617   1.452  0.2027  0.1487 -0.0814
 2441W        W17910   7.354  11.289  15.682 -0.0347 -0.1100  0.3838
 2442W        W17911  17.887   6.861  13.664  0.0225  0.0846  0.3739
 2443W        W17912  12.783  15.860   4.833  0.0532 -0.0625 -0.1384
 2444W        W17913  14.739  10.273  14.851 -0.0072 -0.2296 -0.1734
 2445W        W17914  13.118   3.194  11.074 -0.2011  0.0563  0.2760
 2446W        W17915  16.410   0.194  11.960  0.1284  0.2659 -0.1703
 2447W        W17916  13.578  10.452  15.675  0.3115  0.0679  0.1666
 2448W        W17917  18.346   5.803  14.462 -0.1544  0.0930 -0.1805
 2449W        W17918   9.696   9.394   4.199  0.2372 -0.0880  0.0389
 2450W        W17919  11.015   6.690   2.276  0.1474 -0.1593  0.1804
 2451W        W17920   5.793  10.953  11.762 -0.0911 -0.0528  0.2277
 2452W        W17921   8.271  17.803   4.463  0.0242 -0.0788 -0.1505
 2453W        W17922  18.684   7.891   1.962 -0.0798  0.2635  0.2238
 2454W        W17923  15.890  13.853   0.326 -0.0833 -0.2018 -0.0709
 2455W        W17924  15.381  10.021   5.088  0.2216 -0.1053  0.2486
 2456W        W17925  14.516  10.373  11.792 -0.0348  0.2349 -0.1300
 2457W        W17926   1.324  13.198  14.649 -0.2545  0.2115  0.0731
 2458W        W17927   5.463   9.049   2.815  0.0161 -0.0076  0.0575
 2459W        W17928  12.164   4.606   4.316 -0.0751  0.0489  0.2523
 2460W        W17929  15.883   0.370  14.299 -0.0923  0.0868  0.0064
 2461W        W17930   0.870  16.671   4.901 -0.0599  0.1745 -0.1752
 2462W        W17931   7.816   2.622  14.882  0.2462 -0.1043 -0.1350
 2463W        W17932   9.086  17.869  11.970 -0.0844 -0.0848 -0.1678
 2464W        W17933  17.766  16.538   0.427 -0.0626  0.1305  0.0424
 2465W        W17934  16.883   8.134  12.657 -0.0429  0.1487 -0.5879
 2466W        W17935  11.650  17.466   2.239  0.0011  0.0187  0.0331
 2467W        W17936   2.186  11.740   4.101  0.0408  0.0444  0.2694
 2468W        W17937   6.927   9.685   2.937 -0.0625 -0.0203 -0.0418
 2469W        W17938  13.091  18.551   0.601 -0.0167 -0.1242 -0.1728
 2470W        W17939  12.971   5.519  10.499 -0.2347 -0.1096 -0.0623
 2471W        W17940  15.593   6.834  15.282  0.0433 -0.1043 -0.0497
 2472W        W17941   8.180  18.029   2.941 -0.1340 -0.1862 -0.0549
 2473W        W17942  10.084  11.187   5.329  0.0678  0.0373 -0.0251
 2474W        W17943  15.041   0.321   2.684 -0.1440 -0.1917  0.2199
 2475W        W17944  16.839   5.321   1.247 -0.1713 -0.3853  0.0679
 2476W        W17945   3.398  10.285  13.591 -0.2447 -0.1088 -0.1979
 2477W        W17946  12.942   3.895  12.851  0.1453 -0.1008  0.2069
 2478W        W17947  12.181  17.354   3.027 -0.1376 -0.0622 -0.0046
 2479W        W17948   8.294  15.259  12.199  0.0809 -0.2687 -0.1789
 2480W        W17949  13.000  17.383  15.345 -0.2443  0.1618  0.1118
 2481W        W17950  15.236  16.170  12.247 -0.5304 -0.1685 -0.0409
 2482W        W17951  10.307   6.126   0.082  0.2601  0.2477 -0.0250
 2483W        W17952   4.689   8.831   1.719 -0.2244 -0.0712 -0.0997
 2484W        W17953   8.234   0.304  11.304 -0.0194  0.0913 -0.0180
 2485W        W17954   5.453   2.340  12.048 -0.0613 -0.1223  0.2550
 2486W        W17955   9.129   3.803  11.035  0.1232 -0.1217  0.1662
 2487W        W17956   4.784   2.241   1.349  0.1665  0.0940 -0.1861
 2488W        W17957  15.581  10.746   0.525 -0.1141 -0.1850  0.0272
 2489W        W17958  17.299   0.898  13.226 -0.0446 -0.1699  0.1156
 2490W        W17959   3.905  10.528   1.174  0.0819 -0.3015 -0.2290
 2491W        W17960  18.116  14.027  15.316  0.2421 -0.2097 -0.2279
 2492W        W17961  15.218   3.671   4.008  0.2399  0.0582  0.1888
 2493W        W17962  15.857  14.611  13.064  0.0944 -0.3670 -0.1777
 2494W        W17963   7.107   8.336  11.251 -0.1214 -0.1517 -0.0971
 2495W        W17964  10.612  16.883   0.713 -0.0462 -0.2738 -0.2228
 2496W        W17965   1.315  17.549   3.182  0.0262  0.0804  0.1599
 2497W        W17966  12.547   6.489   2.596  0.2072 -0.0679 -0.1231
 2498W        W17967  18.636   3.607  14.035 -0.2259  0.1599 -0.2326
 2499W        W17968   9.634  14.158   3.987  0.0887 -0.1586  0.3003
 2500W        W17969   3.778   1.113  13.016  0.1649  0.2153 -0.2584
 2501W        W17970  11.867  12.915  12.998 -0.0771  0.1907  0.4409
 2502W        W17971  11.177   7.305  15.098  0.0549  0.0249 -0.1333
 2503W        W17972   1.514  16.045  12.416 -0.1168  0.2380 -0.2063
 2504W        W17973  16.926   9.244  15.577 -0.1018  0.1264  0.1068
 2505W        W17974   5.926  13.564   3.209  0.3721  0.0455  0.1471
 2506W        W17975   2.112  17.683   2.070  0.0866 -0.5206  0.0600
 2507W        W17976   0.821   3.880   4.853  0.1257 -0.0607  0.1317
 2508W        W17977  15.781   9.835  15.522  0.2113 -0.1201 -0.3424
 2509W        W17978   3.470  15.224  11.292  0.2185  0.0712 -0.0868
 2510W        W17979   5.887  12.254   1.001  0.1627  0.1630  0.0772
 2511W        W17980   7.470  15.264  15.021  0.0540  0.1178 -0.1069
 2512W        W17981  12.835   2.967  15.256  0.0011  0.0938  0.1179
 2513W        W17982   5.518   3.319  10.909 -0.1748  0.2394  0.1300
 2514W        W17983   4.568  17.482   0.437 -0.4383  0.0706 -0.0691
 2515W        W17984   6.810   9.177   3.139  0.0202 -0.0269 -0.1760
 2516W        W17985   0.738   2.295  11.386  0.1153 -0.5068 -0.1586
 2517W        W17986  13.812  16.699   4.199  0.1276  0.1347 -0.0197
 2518W        W17987  16.401  11.898  13.018 -0.0452  0.3778 -0.1110
 2519W        W17988   5.072  10.806   1.540 -0.1252 -0.0519 -0.4177
 2520W        W17989   1.937  10.236   9.890 -0.1053  0.0220  0.3387
 2521W        W17990  12.245   7.149   5.633  0.0815  0.0984 -0.1708
 2522W        W17991  17.980   1.034  15.167 -0.3969 -0.0105  0.0121
 2523W        W17992  12.569  13.965  15.212 -0.0912 -0.0400  0.2853
 2524W        W17993   7.189  14.382   0.856 -0.1487  0.1348 -0.1463
 2525W        W17994   1.667  13.613  14.226 -0.0515 -0.1081  0.0611
 2526W        W17995  12.427  17.336  14.031 -0.2569  0.2029 -0.2593
 2527W        W17996   5.553   8.750   1.617  0.0516 -0.2325 -0.0659
 2528W        W17997   9.265  16.271   1.461  0.1974  0.2645  0.1880
 2529W        W17998  10.338   8.031   2.395  0.0952 -0.0660 -0.1774
 2530W        W17999   6.524   0.580   0.662  0.2867  0.2650  0.0176
 2531W        W18000   0.760   9.975   2.878 -0.1205 -0.0606 -0.2005
 2532W        W18001  10.802  17.263   2.230 -0.1359  0.0803 -0.0815
 2533W        W18002   1.108  16.554  12.136  0.0556  0.3151 -0.0786
 2534W        W18003   2.296   3.972  15.053  0.0524 -0.0066 -0.2022
 2535W        W18004   6.390   7.651  11.319 -0.2100 -0.0835 -0.1180
 2536W        W18005   7.769   2.264   1.948  0.0123  0.0239  0.0894
 2537W        W18006  11.178   7.111  15.531  0.1131  0.0473 -0.2226
 2538W        W18007  12.039  10.631   3.956 -0.2769  0.0579  0.3048
 2539W        W18008   9.491  17.663  10.483 -0.3430 -0.1903  0.1041
 2540W        W18009  11.297  14.367   2.885  0.1971  0.0982  0.2495
 2541W        W18010   9.983  13.728   4.734  0.2038  0.0098 -0.1057
 2542W        W18011  15.709  12.462  15.565 -0.1870 -0.0631  0.2675
 2543W        W18012  15.339   7.552   3.168  0.0452 -0.1460 -0.1164
 2544W        W18013  14.160   0.887  15.117 -0.4811  0.0122 -0.2699
 2545W        W18014  10.094  10.255  12.617 -0.2234  0.3076  0.1910
 2546W        W18015   2.080  14.374  13.842 -0.0118  0.1703 -0.0805
 2547W        W18016   6.859   0.903   5.132  0.0101 -0.0600 -0.0502
 2548W        W18017  13.266   1.592   0.738  0.0368  0.1438 -0.0101
 2549W        W18018  12.046   1.918   1.801 -0.2054  0.0002  0.1326
 2550W        W18019  11.020   3.516   2.730 -0.1259 -0.1367  0.0731
 2551W        W18020   0.639  16.929  11.375 -0.1365  0.2249 -0.1865
 2552W        W18021  10.871  12.773  11.579  0.0858  0.0553  0.0348
 2553W        W18022   2.894  14.043  11.649 -0.1824 -0.0384 -0.1903
 2554W        W18023   5.247  12.415   5.597 -0.0545  0.3104 -0.1347
 2555W        W18024  14.028  18.638   4.542  0.0720  0.1558  0.3518
 2556W        W18025  10.499   2.112   2.705  0.1053  0.2460 -0.1155
 2557W        W18026   6.630  13.109   0.396  0.0504  0.0644  0.1796
 2558W        W18027  11.597  15.287   2.517  0.6131  0.4404  0.2066
 2559W        W18028   8.445   1.018  13.800 -0.0530  0.2697 -0.1925
 2560W        W18029  15.900  12.223   2.325  0.1203 -0.0761 -0.1563
 2561W        W18030   7.697  16.252   2.789  0.0193  0.1920 -0.3453
 2562W        W18031   8.465   8.135  11.874  0.0988 -0.3357  0.1616
 2563W        W18032   4.287   0.963  10.940  0.2499  0.1945  0.0202
 2564W        W18033   0.538  14.883  10.400  0.1669 -0.1336  0.0048
 2565W        W18034   2.532  11.906   4.978 -0.1955 -0.2624 -0.1064
 2566W        W18035   3.241   5.743   4.492 -0.3509  0.0248  0.2755
 2567W        W18036   5.263   5.706  14.442  0.2105 -0.3404 -0.2265
 2568W        W18037   1.948  18.574  10.746  0.1206  0.4279 -0.1355
 2569W        W18038   1.969  11.292   4.292 -0.0041  0.1611  0.0868
 2570W        W18039   0.769  10.926   2.209  0.0361  0.1928  0.2749
 2571W        W18040   8.369   7.677  11.537  0.0217  0.2301  0.0493
 2572W        W18041   5.796   6.939  13.174 -0.4297  0.0076 -0.0131
 2573W        W18042   5.314   5.817   1.840 -0.3108 -0.1805 -0.0810
 2574W        W18043  10.154  11.921  11.007 -0.0101 -0.0995  0.0348
 2575W        W18044   5.324  10.316   2.434 -0.1601  0.1725 -0.0151
 2576W        W18045  14.224   0.582   0.998 -0.0808 -0.0455  0.3412
 2577W        W18046  13.591  18.133  11.569 -0.2120  0.1306  0.0231
 2578W        W18047   9.390  14.649  10.526 -0.1497  0.0931  0.1491
 2579W        W18048  18.582   5.816   1.221  0.2135  0.2152 -0.2590
 2580W        W18049   6.606  14.497   0.763  0.0411  0.0478  0.0888
 2581W        W18050   4.192   1.029   1.120 -0.0333 -0.1624 -0.0081
 2582W        W18051   2.421   2.600   4.173  0.1014  0.0896 -0.3331
 2583W        W18052  16.816   6.973   4.139  0.6054  0.3003 -0.0211
 2584W        W18053   9.232   4.233   2.458  0.2409 -0.1070 -0.1078
 2585W        W18054  17.063   6.716   5.783 -0.3314 -0.1293  0.0571
 2586W        W18055  15.754   2.458   3.853  0.0306  0.1749  0.2670
 2587W        W18056   0.396   2.741  10.074 -0.0394  0.1240  0.1347
 2588W        W18057   6.981   3.633   4.675  0.3905 -0.1183  0.0848
 2589W        W18058  16.441  15.704   3.140 -0.0259  0.2464  0.1451
 2590W        W18059   6.574  10.491  12.717 -0.3724 -0.2960  0.0216
 2591W        W18060   1.810   9.323  12.343  0.1514  0.1104 -0.0996
 2592W        W18061  16.333  11.043  13.605 -0.0929 -0.0737 -0.0780
 2593W        W18062   6.375   3.494   2.022 -0.0880  0.1662 -0.0898
 2594W        W18063   7.485  16.294   5.123  0.0593 -0.0277  0.0249
 2595W        W18064   5.171   1.481  14.904 -0.0806 -0.1022  0.0587
 2596W        W18065   0.779  15.444   2.713  0.0373 -0.0677  0.1712
 2597W        W18066   7.988  11.654  13.267  0.0412 -0.0460  0.3176
 2598W        W18067  13.140   0.091   3.356  0.2278  0.1257  0.2372
 2599W        W18068  14.966   0.677   2.297 -0.2213 -0.2186 -0.3424
 2600W        W18069   0.845  12.939  13.278  0.0929 -0.0416 -0.1779
 2601W        W18070  15.467  15.899   4.306 -0.2836 -0.0578  0.0196
 2602W        W18071   4.759  15.558   4.020  0.0900 -0.3187 -0.3980
 2603W        W18072  12.228   2.888  15.543 -0.0981 -0.0225 -0.2533
 2604W        W18073  17.798  12.981  13.275  0.3128 -0.2165  0.0165
 2605W        W18074   3.467   5.905   2.078 -0.0361  0.3246 -0.0670
 2606W        W18075   3.391   8.602   1.450 -0.1579 -0.0202 -0.2792
 2607W        W18076  15.386   2.559  11.090  0.0560 -0.1387 -0.0230
 2608W        W18077   5.777   5.809  14.294 -0.2832 -0.0197  0.2337
 2609W        W18078  11.785  17.900  11.673 -0.1910 -0.3303  0.1865
 2610W        W18079   2.526   7.298   3.172  0.1086  0.1332  0.1707
 2611W        W18080  10.536  11.771   0.528 -0.2503  0.3752  0.0081
 2612W        W18081  10.857  17.475  12.574 -0.0763 -0.1453  0.3054
 2613W        W18082   9.705   1.820   3.289  0.3384  0.1616 -0.0100
 2614W        W18083  15.358  13.755  10.435  0.3684  0.0719 -0.0440
 2615W        W18084   7.933   3.609  11.237  0.1845 -0.4107 -0.1343
 2616W        W18085  13.346   3.962  12.593 -0.0066 -0.2187 -0.1676
 2617W        W18086   5.263  16.063  15.664  0.1185  0.0220 -0.0273
 2618W        W18087  16.889   9.607   4.989  0.3619  0.3221 -0.2192
 2619W        W18088  16.135   9.522   4.220 -0.4589  0.0508  0.1323
 2620W        W18089   3.269  11.630  14.789 -0.0180  0.2423 -0.0198
 2621W        W18090  14.869  13.954   3.671 -0.1420  0.1452 -0.1683
 2622W        W18091  15.454   2.971  12.866 -0.1470  0.0263  0.3114
 2623W        W18092   0.530   4.487   0.327  0.0996 -0.1188  0.0066
 2624W        W18093  16.938  12.077   1.771 -0.0410  0.0514  0.1320
 2625W        W18094   0.100  11.335  10.400 -0.0445 -0.2069 -0.0646
 2626W        W18095   0.031  15.840   3.505  0.0831 -0.4071  0.3382
 2627W        W18096  17.954   9.901  13.695  0.1991  0.2471  0.1983
 2628W        W18097   4.442  14.128  14.695  0.0664 -0.0660 -0.0566
 2629W        W18098   4.391  13.240   0.601  0.0822 -0.0085 -0.1634
 2630W        W18099  16.661   4.829   3.786  0.0211 -0.1137  0.0145
 2631W        W18100  12.292   4.735  14.196 -0.0792  0.0064 -0.0887
 2632W        W18101  11.735   2.407  10.701  0.2361  0.0603 -0.1498
 2633W        W18102  16.458  13.028  11.648 -0.0154  0.1301  0.0378
 2634W        W18103  15.445   6.942   1.698 -0.1125 -0.0261 -0.2606
 2635W        W18104   1.590   7.404   5.198  0.0146 -0.1431 -0.1451
 2636W        W18105   1.039   3.590  12.229  0.3342 -0.4992 -0.1012
 2637W        W18106   7.199   9.920   6.000 -0.0022  0.0855 -0.2604
 2638W        W18107  13.444   2.449  13.490 -0.2786 -0.0914  0.2772
 2639W        W18108   3.429  16.109   5.208 -0.0549 -0.4089 -0.1351
 2640W        W18109  18.394  10.458  11.216 -0.0574 -0.0838  0.2751
 2641W        W18110   8.434  11.506  14.827 -0.1658 -0.0607  0.1860
 2642W        W18111  14.972   9.197   1.182 -0.0436  0.1318 -0.2478
 2643W        W18112  14.151   1.581  11.329 -0.0252 -0.1651  0.0566
 2644W        W18113  15.920   6.892  14.200  0.3426  0.2968  0.2778
 2645W        W18114  17.010  13.712   2.630 -0.1150 -0.1957 -0.1038
 2646W        W18115  14.688   3.194  11.417  0.2064  0.0066  0.0330
 2647W        W18116   3.454   6.167   4.727 -0.0282  0.1306 -0.3691
 2648W        W18117   8.610  10.431   0.478  0.1320 -0.0948  0.0298
 2649W        W18118   0.838  10.174   5.987 -0.1327 -0.1726  0.3287
 2650W        W18119  11.214   7.285   0.285  0.1369  0.0400  0.0811
 2651W        W18120  13.107   5.990  15.734 -0.0826  0.1298  0.0915
 2652W        W18121   4.270  18.143  13.783  0.0702 -0.4498 -0.1110
 2653W        W18122  16.928  15.716   4.662  0.0588 -0.0669  0.0875
 2654W        W18123   1.696   2.120   4.058 -0.1719 -0.2172  0.0821
 2655W        W18124   0.765   3.303  11.858  0.0741  0.2921 -0.2452
 2656W        W18125  10.888   0.310   5.934  0.1926  0.0884  0.3961
 2657W        W18126   4.524   0.905  13.592  0.1606 -0.3177  0.3465
 2658W        W18127   9.463   2.537   2.436  0.0109 -0.1425 -0.2030
 2659W        W18128   9.994   9.832  13.585  0.3531  0.1362  0.0351
 2660W        W18129   4.017   1.573   4.960 -0.3234 -0.0896 -0.3868
 2661W        W18130   6.817   0.731   1.857 -0.1067 -0.1816  0.1426
 2662W        W18131  16.122   7.686  13.429  0.1293 -0.1548 -0.3932
 2663W        W18132   3.448  10.654  13.286 -0.0583 -0.0458 -0.2250
 2664W        W18133  11.628  16.978  12.867  0.3205  0.0591 -0.2578
 2665W        W18134   0.291  17.768   4.903 -0.1675 -0.1175 -0.3574
 2666W        W18135  13.902   8.861   2.135  0.3073 -0.2814  0.2035
 2667W        W18136   1.426   8.023   1.947  0.1994 -0.4521 -0.1767
 2668W        W18137   8.272   6.898  14.069  0.0507  0.4031  0.0527
 2669W        W18138  14.620   4.870   1.577  0.0637 -0.0728  0.0743
 2670W        W18139   6.538  13.019  13.196  0.0874  0.2574  0.1057
 2671W        W18140  10.216  16.718   4.930  0.1253 -0.2260  0.2544
 2672W        W18141   6.270   3.211  13.967  0.2321 -0.0522 -0.1304
 2673W        W18142   9.074   4.782   4.246 -0.1521 -0.1074 -0.0253
 2674W        W18143  14.264   8.179  14.991  0.0860 -0.1958 -0.2787
 2675W        W18144   1.719   1.919  12.739  0.0040 -0.1024 -0.1301
 2676W        W18145  15.204  12.026   4.994  0.2239 -0.0935  0.0360
 2677W        W18146   7.126  14.099  11.196 -0.1877 -0.0376 -0.1255
 2678W        W18147   6.124  15.408   1.923  0.1646  0.1899 -0.2070
 2679W        W18148   8.860   8.890   2.330 -0.0688  0.1356  0.0138
 2680W        W18149  13.672   0.238   3.308 -0.1870  0.0481  0.1070
 2681W        W18150  10.360  10.955  12.926  0.1298 -0.0317 -0.0164
 2682W        W18151   8.093  17.940   3.443 -0.1726  0.0594  0.3237
 2683W        W18152   4.653   9.311  15.039  0.1852 -0.1458 -0.1879
 2684W        W18153   1.303  16.277  14.578 -0.2159  0.0928 -0.0015
 2685W        W18154  13.583   1.481   0.375  0.1531 -0.0488  0.0081
 2686W        W18155   8.498  10.408   6.158 -0.1697  0.0765  0.1506
 2687W        W18156  13.440   6.610  11.227 -0.0749  0.3510 -0.1264
 2688W        W18157   0.282  18.517  13.802  0.2002 -0.0285  0.0160
 2689W        W18158  18.245   9.537  11.608 -0.0637  0.2008  0.1415
 2690W        W18159   3.069  13.402   0.873 -0.0488  0.0892  0.4243
 2691W        W18160   6.364  18.679   1.393 -0.0546  0.0212 -0.1416
 2692W        W18161   3.196   5.319   0.904 -0.1650 -0.1813  0.0664
 2693W        W18162  16.942  12.584  12.535  0.0859  0.1914  0.1356
 2694W        W18163  15.250  18.303   3.722 -0.0689  0.0144  0.0565
 2695W        W18164   5.614   3.825   0.876 -0.0863 -0.1424  0.1720
 2696W        W18165   1.499  12.065  10.619  0.1023  0.1131  0.2423
 2697W        W18166  17.632  10.621  15.665  0.0175  0.0271  0.0526
 2698W        W18167   9.447   6.461  11.770  0.3407  0.1043  0.0276
 2699W        W18168   6.838   6.943   1.329  0.0796 -0.0695  0.1691
 2700W        W18169   8.591   1.262   2.357 -0.0458  0.0956 -0.2528
 2701W        W18170  15.001   3.315   3.685  0.3653  0.1272 -0.0479
 2702W        W18171  14.100  15.079  14.229 -0.0367  0.1482  0.1874
 2703W        W18172   9.483  18.083  15.641  0.1328  0.0925  0.1194
 2704W        W18173  10.718   9.476   0.715 -0.1182  0.2553 -0.0821
 2705W        W18174   5.403  15.098  15.752  0.2547  0.0484 -0.0984
 2706W        W18175   3.547  14.021   2.294 -0.1411  0.0519 -0.0677
 2707W        W18176  15.623  18.122   6.048 -0.2218  0.0735 -0.0865
 2708W        W18177  17.353   8.843  14.528 -0.0528 -0.0292  0.3136
 2709W        W18178  17.397  10.845  15.065  0.1234 -0.0219  0.0973
 2710W        W18179  15.894   7.886  10.879 -0.4707  0.1204  0.2358
 2711W        W18180   9.257   4.795   5.981 -0.1967 -0.1533  0.3846
 2712W        W18181   7.900   5.931  11.055 -0.2584  0.1778 -0.0375
 2713W        W18182   3.492   4.954   0.791  0.2624  0.1489  0.2017
 2714W        W18183  13.197   4.964   5.201  0.0865  0.2065  0.1489
 2715W        W18184   8.072  15.010   1.688 -0.1301  0.2242  0.1893
 2716W        W18185  15.310   8.717  13.871 -0.0859  0.2360  0.0116
 2717W        W18186   3.027  17.985   1.720 -0.1641 -0.0049 -0.2802
 2718W        W18187   9.629   9.242  14.692  0.1563  0.1805 -0.0679
 2719W        W18188   9.348   3.650  11.556  0.0678  0.1509  0.0004
 2720W        W18189   2.967  17.859  12.446  0.1009  0.1110  0.0847
 2721W        W18190  10.253   0.483  12.592  0.0078 -0.0135 -0.0252
 2722W        W18191  11.189  11.932   2.724 -0.0374 -0.0516 -0.0325
 2723W        W18192   1.121  15.204   2.332 -0.0870  0.0260 -0.1273
 2724W        W18193   1.295   4.450  14.237  0.1193 -0.1772  0.0375
 2725W        W18194  11.498  17.113   0.795  0.3020 -0.0671  0.1556
 2726W        W18195  16.862   8.647  11.787 -0.1825  0.0338 -0.0924
 2727W        W18196  15.418   4.910  14.813  0.1433 -0.1403 -0.3042
 2728W        W18197   7.059  13.527  14.459  0.2913 -0.2083 -0.2517
 2729W        W18198   0.544   7.811  15.141  0.0857  0.2751  0.1166
 2730W        W18199   5.239  15.281   3.996 -0.2914  0.0839  0.1880
 2731W        W18200   1.824   7.121  10.058  0.4904  0.0782 -0.0011
 2732W        W18201   3.462   4.967   1.840  0.2136  0.0774  0.1330
 2733W        W18202   9.070  13.659   1.382  0.4173 -0.1894  0.2231
 2734W        W18203   0.352   4.189  15.624  0.1789  0.1654 -0.1207
 2735W        W18204   0.309  15.447   2.573 -0.0152  0.0013 -0.1472
 2736W        W18205  15.026   2.518  13.680  0.0647 -0.0201  0.0413
 2737W        W18206   0.118   8.940   4.230  0.0387  0.2043  0.0482
 2738W        W18207   7.298  16.775  15.211 -0.0699  0.5919 -0.2829
 2739W        W18208   7.627   7.042   1.845 -0.3910 -0.1202  0.0157
 2740W        W18209   3.313   0.475   3.131  0.1109 -0.4424 -0.1097
 2741W        W18210   1.135   4.496  11.542 -0.2733  0.1966  0.1054
 2742W        W18211   6.629   2.424  12.712  0.0777  0.0637 -0.0797
 2743W        W18212   1.796  12.064   3.316  0.2446 -0.0920  0.1352
 2744W        W18213   4.044  12.472   2.831  0.3433  0.0283  0.1963
 2745W        W18214  10.224   5.735   2.351  0.2265 -0.0403  0.0947
 2746W        W18215  12.075  15.827   0.966 -0.0298 -0.2852  0.0657
 2747W        W18216  11.915  14.248  10.204  0.1264 -0.3532  0.1311
 2748W        W18217  14.672   3.271  13.636  0.0628 -0.2500  0.1048
 2749W        W18218  17.206   2.529   4.466 -0.0082 -0.3270  0.1069
 2750W        W18219  10.981  11.609   1.011  0.3873 -0.1812 -0.3440
 2751W        W18220  14.569  15.698  13.597 -0.0925 -0.1614 -0.1065
 2752W        W18221  10.742  17.774  12.996  0.1558 -0.0721  0.0290
 2753W        W18222  15.201   4.261   9.998  0.0611 -0.2595  0.1515
 2754W        W18223   5.163  17.501   3.133 -0.1677  0.1055  0.5363
 2755W        W18224  16.279   9.714   1.981 -0.0075  0.3561  0.4209
 2756W        W18225   1.762  14.340   0.596  0.2799  0.0074 -0.3000
 2757W        W18226   4.072  16.652   2.380 -0.0626 -0.3700 -0.4893
 2758W        W18227   1.797   7.742  12.620 -0.0177  0.0324  0.0609
 2759W        W18228  10.059  13.148   0.127 -0.0301 -0.4276 -0.1621
 2760W        W18229  10.625   3.753   4.035  0.1147 -0.0181 -0.0410
 2761W        W18230   9.652   8.008  14.462 -0.0315  0.0697  0.3577
 2762W        W18231  18.429   8.416   3.620  0.0561  0.3739 -0.1135
 2763W        W18232   5.787   5.159  12.143 -0.1290  0.1630 -0.1524
 2764W        W18233   8.808   2.168  14.792 -0.0866 -0.2073 -0.2023
 2765W        W18234   2.989   7.370  11.263  0.1106  0.1100 -0.0207
 2766W        W18235   8.222   3.946   0.428  0.0811 -0.0596  0.2775
 2767W        W18236   0.637   7.813  15.691 -0.2622 -0.1736  0.1171
 2768W        W18237   8.487  13.383   2.062 -0.0990  0.0007 -0.1280
 2769W        W18238  15.324  10.814  13.170 -0.0904 -0.1853  0.1032
 2770W        W18239  17.344  13.803  14.907 -0.2153  0.0186 -0.0865
 2771W        W18240   9.297   0.824   2.406 -0.1739 -0.0831  0.1129
 2772W        W18241   6.852  12.705   1.861 -0.0328 -0.0690 -0.3517
 2773W        W18242  12.227  14.257   2.400  0.3668  0.0682 -0.2134
 2774W        W18243  15.939  16.043   3.038 -0.0557 -0.2511  0.0466
 2775W        W18244  13.662   6.108   4.671 -0.0357  0.1307  0.1494
 2776W        W18245   2.822   5.238  10.474 -0.0138  0.0937 -0.0435
 2777W        W18246  14.953   1.614  15.473 -0.0311  0.1571 -0.0680
 2778W        W18247   4.195   2.229  12.682  0.1353  0.2001 -0.2098
 2779W        W18248   1.582   0.723  14.614 -0.0747 -0.0825 -0.2630
 2780W        W18249  10.760  18.041  11.804 -0.0730 -0.1056 -0.3830
 2781W        W18250   8.837   0.436  15.333  0.1584 -0.1307 -0.2760
 2782W        W18251  18.257  16.569  10.739  0.3371 -0.1529  0.1017
 2783W        W18252   3.855  18.060   1.138  0.1111 -0.3975  0.1414
 2784W        W18253  17.090   8.305  12.193 -0.1959  0.1839  0.3474
 2785W        W18254   9.231   2.797  11.415 -0.0936  0.0931 -0.3265
 2786W        W18255   4.384   5.014  15.070  0.1141  0.1509 -0.1084
 2787W        W18256  17.443  10.942  10.149  0.0192  0.0951  0.1425
 2788W        W18257   6.048  17.016   5.951 -0.0445  0.2709 -0.0705
 2789W        W18258  17.954  13.385   4.190 -0.2953  0.0638  0.2292
 2790W        W18259   2.994  16.677  11.682  0.1382  0.4119 -0.0890
 2791W        W18260  11.095  17.639   5.344 -0.1413  0.3826  0.1039
 2792W        W18261   0.498  13.648  10.278 -0.1864  0.0748 -0.2081
 2793W        W18262   1.865   9.601  14.932 -0.0978  0.0027 -0.0185
 2794W        W18263   5.137   3.304   1.133 -0.2095 -0.0174  0.0478
 2795W        W18264   6.566  10.001   2.769  0.2391  0.2595 -0.1911
 2796W        W18265   9.864   1.681   2.818 -0.0935  0.2471  0.2412
 2797W        W18266   2.018  14.646   4.740  0.3081  0.1260  0.1489
 2798W        W18267   7.579   8.897  14.088  0.2476 -0.4292  0.0235
 2799W        W18268  16.434   3.976  15.252  0.1837 -0.1177 -0.2581
 2800W        W18269  11.638  11.448  10.343  0.1988 -0.1407 -0.0636
 2801W        W18270  16.490  12.309   3.630 -0.0591  0.1163  0.1780
 2802W        W18271   0.632  14.429   1.158  0.0955 -0.3101 -0.0156
 2803W        W18272   2.989   3.487  10.780  0.0860 -0.0392 -0.3931
 2804W        W18273  12.912  17.687  11.907 -0.0391  0.0495 -0.2100
 2805W        W18274  15.647  14.053   4.312 -0.2801  0.0568  0.2851
 2806W        W18275  17.570  18.306  12.209 -0.0999 -0.1094  0.0387
 2807W        W18276  14.006  12.412  14.204  0.0318  0.1816  0.2401
 2808W        W18277   1.853  11.361  11.689  0.1697 -0.3099  0.1264
 2809W        W18278  13.145  11.833   1.850 -0.0624  0.2333 -0.1174
 2810W        W18279   2.480  11.897   0.134 -0.1584  0.0610 -0.2022
 2811W        W18280   5.837  13.316   0.651  0.0610  0.3924  0.1670
 2812W        W18281   6.283   7.070  15.455 -0.1730 -0.2659  0.0322
 2813W        W18282   1.883   0.309  12.382 -0.3418 -0.1049 -0.0735
 2814W        W18283  18.089   3.090   1.624 -0.2081  0.5453  0.3782
 2815W        W18284  11.563   7.531  12.833  0.0516 -0.0084 -0.1794
 2816W        W18285   4.041  10.085  14.621 -0.1078 -0.2538 -0.0831
 2817W        W18286   4.736  11.176  14.917  0.3443  0.2136 -0.3324
 2818W        W18287  17.933  17.796  10.957 -0.0685 -0.1910 -0.1393
 2819W        W18288   8.610   4.386   1.188 -0.0157 -0.2428 -0.0789
 2820W        W18289   7.311  13.969  11.762  0.0456 -0.1482  0.1761
 2821W        W18290   8.633   5.015   5.236  0.0368 -0.0221 -0.2160
 2822W        W18291  13.986  10.588  14.743 -0.0358 -0.0563 -0.1343
 2823W        W18292  17.010  13.305   1.410  0.0380 -0.2535  0.0919
 2824W        W18293   0.439   1.049   2.105  0.0997 -0.2572 -0.0419
 2825W        W18294  14.367  18.248  13.672  0.3075  0.0671  0.1073
 2826W        W18295  12.240   7.073  11.350  0.2532 -0.2001 -0.2060
 2827W        W18296   1.408  16.223  12.987 -0.0737  0.1684  0.6004
 2828W        W18297  17.714   0.915   4.290  0.0623 -0.0048  0.1729
 2829W        W18298  15.213   9.283   2.268  0.3029 -0.0605 -0.2510
 2830W        W18299  10.120   9.046  12.449  0.2857 -0.0877 -0.0929
 2831W        W18300  14.783   1.161   1.166 -0.0273 -0.0312 -0.3056
 2832W        W18301  11.785   0.561   3.906  0.2681  0.0558 -0.2294
 2833W        W18302   8.785  17.415   5.437  0.0067 -0.0357 -0.1199
 2834W        W18303   6.155  16.043  14.921  0.1407 -0.1343 -0.1004
 2835W        W18304   7.776   1.489   0.570  0.1533  0.4316 -0.0635
 2836W        W18305  16.433   9.561   0.325  0.0457  0.0831  0.0206
 2837W        W18306  14.837   9.730  12.507  0.1616 -0.0435 -0.2548
 2838W        W18307   1.481  15.335   2.035  0.3513 -0.1469  0.1930
 2839W        W18308   6.606   1.733   1.981  0.1937 -0.0092 -0.0246
 2840W        W18309  15.263  13.645   1.925  0.0106  0.2717 -0.1767
 2841W        W18310  10.754   4.197  15.405  0.1290  0.0132 -0.1087
 2842W        W18311   2.018  18.137  11.775 -0.0104  0.0615 -0.3325
 2843W        W18312  16.215  12.028   1.900 -0.2657  0.1327 -0.0679
 2844W        W18313  14.349  15.145   3.033  0.0574  0.5177  0.3455
 2845W        W18314  13.105  10.878   2.041  0.2080  0.4036  0.4156
 2846W        W18315   2.678  14.345   2.507 -0.1003 -0.6806 -0.1406
 2847W        W18316   0.311   2.004  11.598  0.1444 -0.2244 -0.0058
 2848W        W18317  10.518  18.428   2.074 -0.1137 -0.1741 -0.2373
 2849W        W18318   1.190   1.580  13.545  0.0870 -0.1478 -0.1080
 2850W        W18319   5.004   6.331   1.329 -0.1283 -0.0244  0.0679
 2851W        W18320   0.656   5.536  14.520  0.3808  0.0169  0.2326
 2852W        W18321  13.051   6.214  12.004  0.1591  0.3720  0.3349
 2853W        W18322   2.209   0.395  15.545  0.0750 -0.0493  0.1321
 2854W        W18323  16.866   2.836   5.310  0.3732 -0.5789 -0.3208
 2855W        W18324  16.562   0.012   1.444 -0.4728  0.2954  0.0739
 2856W        W18325   2.787   3.580   5.336  0.2048  0.0115 -0.0864
 2857W        W18326   4.567   5.009  13.739 -0.0300 -0.0692 -0.1506
 2858W        W18327   6.459   1.545  15.316  0.0762  0.1724  0.1405
 2859W        W18328  12.643  14.171   0.027  0.1710  0.2014  0.0919
 2860W        W18329   8.222  16.821  12.134 -0.1091  0.1139  0.0162
 2861W        W18330   8.587   3.871  14.833 -0.1961 -0.1706  0.0430
 2862W        W18331   8.385   2.433  11.046  0.2841 -0.1888 -0.1174
 2863W        W18332   5.521  14.858  10.859  0.1677  0.1415 -0.1979
 2864W        W18333  17.438   0.002  11.850 -0.0666  0.1382 -0.3972
 2865W        W18334   1.800   4.833   1.214  0.0947 -0.2068 -0.2119
 2866W        W18335   9.129  16.819  15.778 -0.1687 -0.1859 -0.2962
 2867W        W18336   4.670  11.472  13.765  0.0038  0.2253 -0.1261
 2868W        W18337   7.074   9.490  13.535  0.0894  0.1325  0.2396
 2869W        W18338  18.074  14.458   4.803 -0.0138 -0.1266 -0.0760
 2870W        W18339  17.216   6.950  10.979  0.2591  0.0559  0.1293
 2871W        W18340   2.136  12.407  11.374  0.1362 -0.0592 -0.0201
 2872W        W18341   3.287   3.317  11.619  0.0490 -0.0470  0.2995
 2873W        W18342   7.218  16.302   0.658 -0.1308  0.0635 -0.0600
 2874W        W18343   5.273  12.705   3.046 -0.2845 -0.3720  0.3653
 2875W        W18344   3.004   8.684   3.812  0.1440  0.3551  0.0670
 2876W        W18345   0.831  12.106  13.182  0.2428  0.0734 -0.1861
 2877W        W18346   8.099   7.811  13.633  0.0117 -0.2353 -0.1726
 2878W        W18347  14.253   8.832   5.411  0.0033  0.0664 -0.0886
 2879W        W18348   7.120  15.228  15.427  0.1748 -0.0031  0.3901
 2880W        W18349  10.096  14.676   4.845 -0.2100  0.0945  0.0598
 2881W        W18350   6.207  14.778  13.005  0.2611  0.1081  0.1219
 2882W        W18351   8.386  11.514  13.502 -0.1249 -0.1129  0.1337
 2883W        W18352  18.472  13.500  15.174 -0.2942  0.2565  0.0652
 2884W        W18353   4.773  10.936   3.475  0.2807 -0.1401 -0.0888
 2885W        W18354  16.127   0.203  12.841 -0.1481 -0.0678  0.0302
 2886W        W18355  17.333   5.173   2.479  0.1703  0.3015  0.3165
 2887W        W18356   2.347   0.913  10.218  0.1378 -0.1565  0.0211
 2888W        W18357  16.757   6.709  15.306 -0.1080  0.1378 -0.2159
 2889W        W18358  14.509  17.434  14.289  0.0198  0.1870 -0.2102
 2890W        W18359   2.071   2.207  13.839 -0.1406 -0.0158 -0.0799
 2891W        W18360  14.756   0.954   3.704  0.2481  0.0783  0.4180
 2892W        W18361   0.425   2.915   3.923  0.3560 -0.0366 -0.0102
 2893W        W18362   7.364  17.880   4.569 -0.0873  0.2266  0.0697
 2894W        W18363  10.112   3.307   0.582  0.2245  0.1500  0.0636
 2895W        W18364   7.214  10.379  13.082  0.1083 -0.0177 -0.0629
 2896W        W18365  10.059  18.540  15.281  0.0186 -0.0882 -0.1153
 2897W        W18366   1.709   3.409   3.483 -0.2742  0.1510 -0.3583
 2898W        W18367  12.648  13.859   1.955 -0.2075  0.1764  0.1509
 2899W        W18368  16.763   4.114   2.484  0.0113 -0.2145  0.0520
 2900W        W18369   2.891   2.312   1.187  0.2236  0.1486 -0.2131
 2901W        W18370  16.861   5.302   4.013 -0.1445  0.1692 -0.0143
 2902W        W18371   6.206  13.604   1.069 -0.4907  0.0970 -0.0815
 2903W        W18372  10.087   5.181  14.737 -0.0758  0.0297  0.0369
 2904W        W18373  14.383   6.273   3.598  0.3248  0.0957 -0.5138
 2905W        W18374   2.499   6.747  12.177  0.1589 -0.1120  0.0872
 2906W        W18375   6.748  12.451  14.032  0.5755  0.0471 -0.2753
 2907W        W18376   0.833   0.673  14.106  0.0892  0.1430 -0.0438
 2908W        W18377  13.042  13.667   3.620 -0.1113 -0.0543  0.0147
 2909W        W18378   9.254   6.013   4.364  0.1419 -0.3307 -0.1061
 2910W        W18379   9.464  11.873   0.055 -0.0705 -0.2779 -0.0201
 2911W        W18380  11.960   2.396   2.586  0.4812  0.0662 -0.0201
 2912W        W18381  10.565   2.010   1.146  0.1159  0.3743  0.0376
 2913W        W18382  16.019  15.779   5.619 -0.4699 -0.1985 -0.0570
 2914W        W18383  12.367   4.187  14.061 -0.1652 -0.1894  0.0068
 2915W        W18384  16.486   7.513  13.178 -0.0330 -0.2793 -0.1043
 2916W        W18385  15.487   7.549  12.549 -0.0389  0.2909 -0.1681
 2917W        W18386  18.605  11.952  14.747  0.0371 -0.2290  0.1019
 2918W        W18387   2.936   3.052   0.259 -0.0042  0.0423 -0.1296
 2919W        W18388   3.245  10.251  14.155 -0.1021  0.1318  0.1913
 2920W        W18389  17.736   8.255  15.774 -0.2094  0.0159  0.0445
 2921W        W18390   2.789  15.425   2.665  0.3941  0.2328 -0.2653
 2922W        W18391   5.815  10.961  13.086  0.1145 -0.1556 -0.0509
 2923W        W18392   1.403   0.113  12.476 -0.1807  0.0944 -0.2622
 2924W        W18393  10.379  17.652  10.952 -0.4817 -0.1166  0.2199
 2925W        W18394   0.673  15.205   0.180 -0.1480 -0.0015  0.2473
 2926W        W18395  12.980   9.781  11.326 -0.0396  0.0438  0.2570
 2927W        W18396   0.475  18.636  15.328 -0.0754 -0.2236 -0.1420
 2928W        W18397  16.448  17.984  11.487 -0.3178 -0.1521 -0.1090
 2929W        W18398   6.434   6.635   3.712 -0.1528 -0.1234 -0.2229
 2930W        W18399   6.003   2.931   1.156  0.2920 -0.0535  0.3049
 2931W        W18400  18.146   7.918   5.427  0.1748 -0.0528 -0.1162
 2932W        W18401   7.551  16.832  10.330 -0.0416 -0.0685 -0.0328
 2933W        W18402  18.347  17.887   2.218  0.4100  0.0567 -0.0297
 2934W        W18403  10.858  18.136   3.471  0.2887  0.2087  0.0793
 2935W        W18404   4.373   9.825  14.336  0.3456  0.0404  0.1520
 2936W        W18405  14.229  15.601  13.280 -0.2104 -0.1486  0.1087
 2937W        W18406  15.207  10.579   0.022  0.0304  0.0411  0.0233
 2938W        W18407  14.943  16.119   2.978 -0.0614  0.1955 -0.0120
 2939W        W18408  18.168  14.261  13.491 -0.2448 -0.1021 -0.1585
 2940W        W18409   5.597  15.452   4.694 -0.1027 -0.0549  0.2284
 2941W        W18410  11.391   0.408  12.070  0.3314 -0.0180 -0.0010
 2942W        W18411   6.258  16.568  14.488 -0.0560  0.1017  0.1744
 2943W        W18412  14.407  13.426  13.409 -0.0080 -0.0116 -0.2627
 2944W        W18413   3.912   8.536   4.481  0.1385  0.4361  0.1781
 2945W        W18414  13.603  16.583   4.856 -0.2367  0.0092  0.0070
 2946W        W18415   2.013   1.235  14.007  0.1396  0.0952  0.0181
 2947W        W18416  10.514   7.777  15.519  0.0651 -0.0916 -0.1656
 2948W        W18417  17.313   0.215  12.691 -0.0691 -0.0817  0.2334
 2949W        W18418  10.478  14.988   5.481  0.0344  0.0895 -0.2211
 2950W        W18419  14.070   4.931   0.857 -0.2443  0.1021 -0.3575
 2951W        W18420   5.159   4.625   5.222 -0.4763 -0.4173 -0.1433
 2952W        W18421   1.391   7.432   1.869 -0.0088 -0.0149 -0.1369
 2953W        W18422   2.982  10.794  11.148 -0.2530 -0.1931  0.0976
 2954W        W18423  11.245  17.517   0.557 -0.1379 -0.2280 -0.0011
 2955W        W18424  12.377   4.966   4.603 -0.2225 -0.1667  0.0813
 2956W        W18425   9.481   4.344  15.441 -0.2152  0.1078  0.0310
 2957W        W18426   7.527   5.842   5.150 -0.0068 -0.2184  0.1011
 2958W        W18427  14.582   8.379   2.648  0.0904  0.3012  0.0154
 2959W        W18428   2.557  15.244  13.924 -0.0474 -0.0517  0.1781
 2960W        W18429   5.598   6.513  15.105 -0.1557  0.2031 -0.0645
 2961W        W18430  18.335  13.656  12.190  0.1302 -0.1086 -0.4030
 2962W        W18431   9.321   1.518  14.130  0.0230  0.0704  0.2203
 2963W        W18432   7.944  10.428   2.050  0.1260  0.0359 -0.0530
 2964W        W18433  13.168  12.655   4.420 -0.0886 -0.3509  0.0911
 2965W        W18434  13.159  14.689   0.942  0.0765  0.1434  0.0825
 2966W        W18435  14.075   2.952   3.331 -0.1059 -0.1061 -0.1301
 2967W        W18436   2.954   9.925  11.201 -0.1242 -0.0321 -0.0424
 2968W        W18437  14.367  12.272   2.260  0.1114  0.0784  0.0746
 2969W        W18438   3.392   1.495   5.152 -0.0694 -0.3400 -0.1619
 2970W        W18439   1.830  16.464  11.519  0.2753 -0.0116  0.0790
 2971W        W18440  11.980   0.201   0.966  0.3049 -0.4787  0.3061
 2972W        W18441  13.355  18.408   0.041  0.1293 -0.0672  0.1356
 2973W        W18442   8.714   4.024   4.680 -0.1416  0.1480  0.3638
 2974W        W18443   9.532  13.933   1.281  0.1086 -0.3062 -0.1714
 2975W        W18444  13.373  16.622   3.417  0.1958  0.0785 -0.0529
 2976W        W18445   6.098   9.012   0.278  0.1678  0.2599 -0.1118
 2977W        W18446   5.073   3.328   4.571  0.1652  0.1717  0.0033
 2978W        W18447   5.371   4.303   1.582  0.0475  0.3427  0.0752
 2979W        W18448  11.064   3.414   0.350  0.1242  0.0350 -0.0868
 2980W        W18449   3.556  17.042  13.799  0.1865 -0.1227 -0.0447
 2981W        W18450   3.126   8.022  13.575 -0.0165  0.1201  0.5651
 2982W        W18451   4.599  17.350   2.305  0.4040 -0.0136  0.0914
 2983W        W18452  18.293   8.896  13.552  0.0189  0.4871  0.1413
 2984W        W18453   9.395  15.120  12.393 -0.2790 -0.2654  0.2553
 2985W        W18454  17.226  14.454  10.927  0.0261 -0.1902 -0.0073
 2986W        W18455   5.954   7.959  12.775  0.1879 -0.1666 -0.0725
 2987W        W18456   1.476  11.533   1.692  0.0297 -0.0052  0.0015
 2988W        W18457   9.584  10.171   2.221 -0.3369  0.1490 -0.1667
 2989W        W18458   6.411   1.111   5.020  0.0626 -0.2254  0.4627
 2990W        W18459  10.646   1.825   4.989  0.0504 -0.1338 -0.0123
 2991W        W18460   1.315   7.910  13.158  0.0089 -0.0131 -0.3694
 2992W        W18461  13.342   2.936  14.481  0.2381  0.3089 -0.3038
 2993W        W18462  14.416   1.381   3.214  0.0479  0.0439 -0.1348
 2994W        W18463   6.274  17.603  15.094 -0.2315 -0.1669 -0.1351
 2995W        W18464  15.646   5.323   2.575 -0.0116 -0.0672  0.0943
 2996W        W18465   3.693  13.189  14.397  0.2392  0.4567 -0.0496
 2997W        W18466  17.654   4.673   1.235  0.5207 -0.2884 -0.3468
 2998W        W18467  13.295   1.891  13.321 -0.0616  0.2405  0.1853
 2999W        W18468   7.937  15.518  11.370  0.1606 -0.1497  0.1084
 3000W        W18469   1.686   7.251   4.721 -0.2841  0.0262  0.2418
 3001W        W18470  13.606   6.953  11.543  0.0247  0.1887 -0.1386
 3002W        W18471  18.681   4.636  11.334 -0.0372  0.0092  0.0995
 3003W        W18472  16.371   6.449   4.923  0.1934 -0.0288  0.3917
 3004W        W18473  12.650  13.823   5.409 -0.0026  0.0920 -0.1667
 3005W        W18474  15.991   0.363  14.772 -0.2136 -0.1478  0.0314
 3006W        W18475   5.678  12.816   6.226 -0.1217 -0.1842 -0.0499
 3007W        W18476  10.241  17.031   0.346 -0.3064  0.1011 -0.0463
 3008W        W18477   3.286  11.649  15.293  0.3079 -0.0174  0.0165
 3009W        W18478  10.443  12.877   1.705  0.0573 -0.0575 -0.1129
 3010W        W18479   3.053  12.190  12.003  0.1287  0.0697 -0.2827
 3011W        W18480  14.762  14.115   2.053 -0.1876  0.0189 -0.0311
 3012W        W18481  15.247  10.377   0.474  0.1830 -0.3027  0.0213
 3013W        W18482  14.805  13.161   5.408 -0.0191 -0.3900 -0.2931
 3014W        W18483   6.459   8.480   0.881 -0.1427 -0.1542 -0.0142
 3015W        W18484   0.191  13.156  14.521  0.1483  0.0116  0.2446
 3016W        W18485  13.923   7.667   5.125  0.1363  0.2141  0.2326
 3017W        W18486  13.578  18.379  13.186 -0.2295  0.1706  0.4460
 3018W        W18487  10.886   1.021  13.685 -0.1608 -0.3474  0.0554
 3019W        W18488   7.996   0.202   4.161 -0.0166  0.0191 -0.0245
 3020W        W18489  18.494   1.107   2.391  0.3527  0.1540 -0.1307
 3021W        W18490   3.626  16.538   3.780 -0.1175  0.1466 -0.0661
 3022W        W18491   0.214   6.406   0.619 -0.3083 -0.2586 -0.0113
 3023W        W18492  10.102  10.295   2.046  0.2477 -0.1888  0.1810
 3024W        W18493   5.296   9.567  14.112 -0.0972  0.0471  0.0520
 3025W        W18494   2.862   3.753  13.796  0.1914  0.0529 -0.0246
 3026W        W18495  11.883   2.501  14.323 -0.1964 -0.0315 -0.2015
 3027W        W18496  10.059   2.380  11.402 -0.0705 -0.0208  0.2546
 3028W        W18497   5.326  12.894   1.795  0.2563  0.3787 -0.1698
 3029W        W18498  16.635  11.163   1.454  0.0579  0.2950  0.2054
 3030W        W18499  15.733   4.462   2.510 -0.0037 -0.0770  0.0536
 3031W        W18500  15.934  12.345   3.054 -0.0475 -0.3857 -0.3034
 3032W        W18501  17.131   9.514  12.727  0.0348  0.0497 -0.1173
 3033W        W18502   1.283  17.137  14.477 -0.1462  0.3230 -0.2031
 3034W        W18503  14.236  15.353  13.798 -0.2179  0.1816  0.1452
 3035W        W18504  10.109  12.964  14.751 -0.3722 -0.1260  0.0132
 3036W        W18505   4.415   5.918   4.697 -0.2455 -0.0036 -0.4133
 3037W        W18506   1.012  17.077  10.633  0.1169 -0.1181 -0.1419
 3038W        W18507  16.082   1.028   2.928 -0.0905  0.0720 -0.3435
 3039W        W18508   8.163   0.345   3.716  0.2065 -0.0658 -0.1542
 3040W        W18509   2.010  17.792   5.372 -0.0067  0.3228  0.2126
 3041W        W18510  14.917  16.729   4.867 -0.1106 -0.1141  0.0387
 3042W        W18511   4.097  10.736  11.261  0.2056  0.2296 -0.0558
 3043W        W18512  15.186   1.431   1.637 -0.1385  0.3844  0.2239
 3044W        W18513   1.402  18.074  14.892 -0.0500  0.0434 -0.0515
 3045W        W18514  18.355   9.422   2.703  0.0736  0.3292 -0.0695
 3046W        W18515   4.532   2.681   2.006 -0.2266 -0.2070  0.0159
 3047W        W18516   7.563  11.798   9.910 -0.1832 -0.1670 -0.1294
 3048W        W18517   2.798   3.313  13.434  0.0308 -0.0370  0.3304
 3049W        W18518   8.562   4.323  12.407 -0.0375  0.0002  0.2063
 3050W        W18519  15.168  10.651  14.203 -0.0471  0.0654 -0.0656
 3051W        W18520  18.198  17.170   1.559  0.0249  0.1191 -0.2297
 3052W        W18521   2.938  15.444  15.196  0.1468  0.0062 -0.0969
 3053W        W18522  13.076  18.452  12.636 -0.0211  0.3713  0.1221
 3054W        W18523  11.218   0.339   1.211  0.0159  0.2241 -0.3819
 3055W        W18524   3.915   6.065   2.207 -0.1265 -0.4035 -0.0774
 3056W        W18525   6.165   1.937   4.303 -0.1628  0.0864 -0.0273
 3057W        W18526   2.731   6.566  14.480  0.0427  0.4121 -0.1176
 3058W        W18527   3.002   0.285  14.711 -0.2522  0.2066  0.2346
 3059W        W18528  11.464   2.131  15.487  0.1697 -0.2116 -0.1098
 3060W        W18529   1.459   7.587   0.044 -0.1704  0.2237 -0.2252
 3061W        W18530   0.280  17.944  12.286  0.2079 -0.0274 -0.3710
 3062W        W18531   5.662  14.904   2.050 -0.0157 -0.1266  0.0897
 3063W        W18532   9.138   1.933  15.138  0.3818 -0.2503 -0.2939
 3064W        W18533  15.249  13.150   3.861 -0.1416  0.1160  0.2162
 3065W        W18534  18.057   5.620  12.947 -0.3371 -0.0851  0.0960
 3066W        W18535  16.069  13.948  15.627  0.1152  0.3451 -0.0939
 3067W        W18536  13.509  12.231  15.475  0.0793 -0.0670 -0.2084
 3068W        W18537  17.605   2.881  14.220 -0.3564 -0.1777 -0.2194
 3069W        W18538   3.824   9.904   3.043  0.2737  0.2069  0.2835
 3070W        W18539   7.077  10.420   0.073  0.0083  0.3444  0.3371
 3071W        W18540  13.377  18.015  12.095  0.1266 -0.2295  0.2790
 3072W        W18541  10.758  13.736  11.777 -0.1323  0.4123 -0.2986
 3073W        W18542   2.540   8.757  12.891  0.3402 -0.2032 -0.0607
 3074W        W18543  15.123  16.628   1.101  0.1728 -0.0812 -0.0129
 3075W        W18544  18.688  18.018   1.829 -0.2508  0.2822  0.1139
 3076W        W18545  11.313  10.330  12.226 -0.2145  0.0353 -0.2306
 3077W        W18546  15.123   7.309  14.281 -0.3184  0.1748 -0.1317
 3078W        W18547  10.428   1.420   0.006  0.2223 -0.0270 -0.0846
 3079W        W18548   7.838  11.054   2.477  0.0619 -0.1528 -0.1042
 3080W        W18549   3.003  16.492  15.393  0.1769 -0.0008 -0.0348
 3081W        W18550  10.866  12.775   3.142  0.0316 -0.0890 -0.0116
 3082W        W18551   8.326  18.421  14.224  0.1267  0.0847 -0.0677
 3083W        W18552  15.414  10.142  11.101 -0.1394  0.1637  0.3362
 3084W        W18553   8.100  11.846   3.849 -0.0018  0.1616 -0.1399
 3085W        W18554   6.443  10.805  10.347  0.2709  0.0424  0.2335
 3086W        W18555  13.840  13.377   4.232  0.0859 -0.3223 -0.0153
 3087W        W18556   2.457   0.765  11.857  0.0085  0.2029 -0.0577
 3088W        W18557   8.889  10.920   0.682 -0.1205  0.0173  0.0724
 3089W        W18558  10.620  10.801   4.820 -0.0814  0.2428  0.0864
 3090W        W18559   6.899  18.241   5.192  0.1839  0.1871 -0.0319
 3091W        W18560   8.352  16.460   3.943 -0.0891  0.2028 -0.1480
 3092W        W18561  16.406  12.910  14.754 -0.0925 -0.2795 -0.0237
 3093W        W18562   9.880  13.387  13.383  0.1272  0.1042  0.0507
 3094W        W18563  14.189   7.160   3.606 -0.0032 -0.3047  0.0716
 3095W        W18564   5.458  12.268  13.536 -0.2630 -0.0874  0.1480
 3096W        W18565  17.964  17.844   4.584 -0.0065  0.0664 -0.2236
 3097W        W18566  17.023   5.698   5.279 -0.0475  0.0934 -0.0383
 3098W        W18567  16.667   4.103   0.989 -0.1157  0.0381 -0.0892
 3099W        W18568  15.867  13.306  14.860 -0.2757  0.0947  0.1658
 3100W        W18569  11.293  10.778  13.926 -0.0654 -0.2620  0.1528
 3101W        W18570  14.802  15.435  12.049 -0.1274 -0.0129 -0.3928
 3102W        W18571  12.551   3.695  14.280  0.2535  0.0316  0.2048
 3103W        W18572   8.261  11.176   4.430 -0.0001 -0.1856  0.1663
 3104W        W18573   6.316  17.377   3.412 -0.4069 -0.0800 -0.0905
 3105W        W18574   7.431   4.276   2.568 -0.0275 -0.0509  0.0774
 3106W        W18575   2.695  15.451  14.452  0.0199 -0.0335 -0.1098
 3107W        W18576   9.489  10.943  12.804  0.0639  0.0734  0.1687
 3108W        W18577   4.084  17.812  11.616  0.1360 -0.1865 -0.1314
 3109W        W18578   6.017  18.541  11.817 -0.1131 -0.0235  0.2727
 3110W        W18579  13.972   3.341  12.125 -0.4388 -0.0289  0.3295
 3111W        W18580   1.879   2.643   4.070  0.2460  0.0627  0.0225
 3112W        W18581   3.212  16.712   3.153 -0.1654  0.0566  0.0585
 3113W        W18582   8.911  12.885   1.334  0.1578 -0.0247  0.1389
 3114W        W18583   4.572  18.063  13.404 -0.2241 -0.0257 -0.0452
 3115W        W18584  12.568  18.173   4.483 -0.2633  0.1659  0.0832
 3116W        W18585   0.538  12.129  10.795  0.1763  0.1682 -0.2624
 3117W        W18586  12.365   6.433  12.559 -0.0808 -0.0067 -0.2102
 3118W        W18587  11.752   1.763   3.374  0.0884 -0.2390  0.0655
 3119W        W18588   7.015   4.438   2.439  0.1765  0.0821  0.1340
 3120W        W18589   2.425  17.832  12.920 -0.1640 -0.2167  0.0761
 3121W        W18590   8.736   7.807  11.189 -0.2273 -0.1925 -0.1599
 3122W        W18591  13.999  12.717   4.414  0.0662 -0.0482 -0.2517
 3123W        W18592  17.950  17.896   5.100 -0.0534 -0.1030  0.2232
 3124W        W18593  12.232   3.564   1.660  0.0639  0.0005 -0.3687
 3125W        W18594  15.210  18.389  13.266  0.0803 -0.1216  0.1763
 3126W        W18595  10.683  17.603   9.844  0.1702 -0.3647  0.1788
 3127W        W18596  14.623  16.595  14.182 -0.0122  0.0221 -0.0313
 3128W        W18597  17.594   8.025   0.475 -0.1479  0.1836  0.1776
 3129W        W18598  11.074  11.842   3.521 -0.0637 -0.2744 -0.3361
 3130W        W18599   2.995   0.569   2.530  0.1046  0.1167 -0.1546
 3131W        W18600   9.888   6.107   0.439 -0.1751 -0.1227 -0.3983
 3132W        W18601  11.811   8.538   4.964 -0.0650 -0.4369  0.2029
 3133W        W18602   8.403  17.442   2.750 -0.0551 -0.2512  0.1531
 3134W        W18603   3.877   1.206  14.163 -0.0818 -0.0878 -0.0203
 3135W        W18604  18.270   0.870   1.624  0.0659 -0.1588 -0.3209
 3136W        W18605   5.217   7.847  15.380  0.1105 -0.2395  0.4415
 3137W        W18606  11.525   3.934  12.738  0.3517  0.2515 -0.1636
 3138W        W18607   6.346  15.924  13.941  0.2119 -0.5310 -0.0316
 3139W        W18608   0.043   2.346  13.893  0.0894 -0.0536  0.1213
 3140W        W18609  15.127   1.610  11.570 -0.0795 -0.1294  0.0360
 3141W        W18610   3.755   6.413   5.017  0.1557 -0.0567  0.0065
 3142W        W18611  13.391  16.544   3.929 -0.0017  0.0685 -0.2366
 3143W        W18612   8.673  12.696  14.682  0.3010 -0.0486  0.0911
 3144W        W18613   3.742   9.653  10.947  0.1351  0.2812  0.1118
 3145W        W18614   4.670   5.729  12.649  0.1930 -0.0937 -0.1435
 3146W        W18615  17.542   8.522   4.955 -0.0721  0.3239  0.1838
 3147W        W18616   3.404  15.497  12.704 -0.1427 -0.1602  0.0437
 3148W        W18617  16.754   0.511   3.305  0.4232 -0.0557  0.1710
 3149W        W18618   2.382   0.062   2.880  0.2854  0.0568 -0.1981
 3150W        W18619   1.077   2.672  11.225 -0.1550  0.0077 -0.1952
 3151W        W18620   5.976  13.476   5.520 -0.1148 -0.3144  0.2276
 3152W        W18621  18.250   4.766   2.740 -0.2091  0.3106  0.2291
 3153W        W18622   1.707  17.750   3.400 -0.0306 -0.3970 -0.0777
 3154W        W18623   0.601   9.876  11.638  0.0583 -0.3379  0.0501
 3155W        W18624  18.013  17.156  12.489 -0.0978 -0.2233  0.2610
 3156W        W18625  18.533   7.701   2.935 -0.1106  0.0739  0.2583
 3157W        W18626   8.644   9.538  14.580  0.1671 -0.0487 -0.1727
 3158W        W18627  15.107   4.920  12.557 -0.1928  0.0011  0.1170
 3159W        W18628  12.834   0.738  14.887  0.2114 -0.0901  0.0745
 3160W        W18629  13.998   7.834  12.051  0.3524 -0.2086  0.3623
 3161W        W18630   5.555   7.682   5.700  0.0989  0.1314  0.2025
 3162W        W18631  10.000   9.498   1.839  0.3574  0.3289  0.1429
 3163W        W18632   1.358  18.627  13.610 -0.3283  0.2045 -0.0125
 3164W        W18633   3.429  17.243  11.914 -0.2165 -0.2182 -0.0338
 3165W        W18634  16.379   4.071  13.926  0.0125 -0.1090  0.0879
 3166W        W18635   3.346  10.185   5.250 -0.1266 -0.1347  0.1516
 3167W        W18636  15.992   6.244   3.052 -0.0392  0.0566  0.0951
 3168W        W18637   6.349   5.792   1.804  0.2589 -0.1221  0.0794
 3169W        W18638   0.446  16.330   3.427  0.0241 -0.2885  0.1643
 3170W        W18639  13.933  11.772   0.998 -0.2810 -0.2655 -0.1838
 3171W        W18640   8.671  11.037  11.214 -0.2400  0.0301 -0.0634
 3172W        W18641  17.168   0.085   1.688  0.0882  0.0783 -0.4447
 3173W        W18642  15.542  18.602   0.295  0.2586 -0.2498  0.3279
 3174W        W18643  14.504  13.875  13.032  0.4600 -0.1898  0.1006
 3175W        W18644   9.641  14.595   5.450 -0.0613 -0.2180  0.0535
 3176W        W18645  14.835   8.522  11.082  0.0204  0.0507  0.0982
 3177W        W18646   1.341   6.822   2.879  0.0062  0.0667 -0.0217
 3178W        W18647  12.214  12.989  11.544 -0.3321 -0.2285 -0.0033
 3179W        W18648  13.503  10.648   1.865  0.0214  0.0620 -0.1377
 3180W        W18649   5.830  18.189  14.618 -0.0931  0.1484  0.0016
 3181W        W18650  12.449  15.087   2.646  0.2674 -0.1292 -0.0928
 3182W        W18651   4.068   1.307  15.439 -0.2589 -0.2850 -0.1163
 3183W        W18652   2.428   5.402   2.778  0.4407 -0.0198  0.3312
 3184W        W18653  15.564  11.659  13.754 -0.0170 -0.3087 -0.1109
 3185W        W18654  15.502   1.198   0.889  0.0430  0.3631 -0.2733
 3186W        W18655  12.757  16.203  11.779 -0.0112 -0.2269  0.2116
 3187W        W18656   5.247  10.877  14.724  0.0356 -0.3482 -0.0769
 3188W        W18657  16.108   4.998  13.125 -0.0528 -0.0058  0.1910
 3189W        W18658   7.367  15.904  13.954  0.2785 -0.1005  0.1315
 3190W        W18659   4.816  11.172   2.958  0.1451 -0.0460  0.2035
 3191W        W18660  16.806  10.391   3.942 -0.3122  0.1623 -0.1287
 3192W        W18661   2.769  17.481   3.527 -0.3875 -0.0777  0.1444
 3193W        W18662  14.816   0.257  13.086  0.0947  0.0166  0.1461
 3194W        W18663   2.834  16.899   5.131  0.2938 -0.1697 -0.2113
 3195W        W18664   1.344   5.326  10.720  0.1363  0.0651 -0.2879
 3196W        W18665   5.655  13.581  13.270  0.0632 -0.3514  0.2293
 3197W        W18666   7.623  11.641   3.705 -0.3672 -0.0815  0.2023
 3198W        W18667  15.048  10.011  14.120  0.1501  0.0054  0.4083
 3199W        W18668   9.624   6.861   4.412 -0.1286  0.1543  0.0367
 3200W        W18669   8.498   3.158   1.324 -0.0424 -0.1930 -0.2714
 3201W        W18670   4.813   2.601   5.886  0.0900 -0.0464  0.2198
 3202W        W18671  13.628   8.757   0.172  0.1858  0.1062  0.2126
 3203W        W18672  15.176  18.358  14.115 -0.0837  0.0403 -0.3471
 3204W        W18673   4.968  10.158  13.558  0.0354  0.2940  0.0702
 3205W        W18674   9.919  16.394  11.972  0.1516  0.1777  0.0641
 3206W        W18675   3.264   7.505   3.243 -0.1538  0.1511 -0.0790
 3207W        W18676   2.381   5.924   0.672  0.1029 -0.1934 -0.0515
 3208W        W18677   0.439   7.430  11.853  0.2105 -0.1602 -0.0350
 3209W        W18678   6.384   3.985   1.798 -0.1075 -0.3703  0.1711
 3210W        W18679  11.903  15.701  14.287 -0.0128 -0.0743  0.0086
 3211W        W18680  10.808   7.355  10.640 -0.1321 -0.0531  0.3061
 3212W        W18681   8.997   3.689  15.657 -0.0034 -0.2402 -0.1290
 3213W        W18682  13.337  14.853  14.581 -0.2472 -0.2561 -0.0702
 3214W        W18683  11.810   6.698  13.694 -0.3438  0.1962 -0.1338
 3215W        W18684   0.653  17.529   4.178 -0.0672 -0.2228  0.1438
 3216W        W18685  17.586  10.526   1.421  0.2023 -0.1155  0.2660
 3217W        W18686  13.568  16.499  13.952 -0.0618 -0.1230  0.2431
 3218W        W18687   5.631   8.068  14.383  0.1800  0.1208 -0.4466
 3219W        W18688   3.855   5.960   4.440  0.0416 -0.1144  0.2052
 3220W        W18689  14.047  11.296   3.181  0.2836  0.1848 -0.3119
 3221W        W18690  10.237  16.766  10.739 -0.3560  0.1211 -0.1493
 3222W        W18691  14.650   8.550   4.021 -0.0895  0.0614 -0.0854
 3223W        W18692  11.536  16.095   3.968 -0.1356 -0.0555 -0.1178
 3224W        W18693   0.226   0.345  12.518  0.0499 -0.0435 -0.1446
 3225W        W18694  10.839   8.987  11.790 -0.0083  0.0809  0.0706
 3226W        W18695   9.912   4.691  12.737  0.1468 -0.1717  0.2831
 3227W        W18696  14.100   2.218   2.052 -0.0179  0.2533 -0.0399
 3228W        W18697   4.993   8.634  12.816 -0.1512 -0.0391 -0.1314
 3229W        W18698  18.300   7.088  13.899 -0.3017  0.1359  0.1675
 3230W        W18699   6.865   8.212  12.662 -0.0880  0.1051  0.3691
 3231W        W18700   8.322   5.591   2.574  0.0680 -0.4330 -0.4005
 3232W        W18701  14.115   8.787   4.716 -0.0298  0.1686  0.1123
 3233W        W18702   7.235   7.206   1.531 -0.1489  0.0587  0.3828
 3234W        W18703   7.959  14.104  13.009  0.2501  0.0835 -0.0172
 3235W        W18704   5.601   5.994  11.784  0.2489  0.2689 -0.1172
 3236W        W18705   3.707  16.821   3.408 -0.3945 -0.1992  0.0508
 3237W        W18706  11.709   1.983  10.481  0.3234  0.1293  0.0052
 3238W        W18707   2.213   3.997   2.026 -0.0991  0.0411 -0.0385
 3239W        W18708  18.041   0.737   9.967 -0.2301 -0.2654 -0.0664
 3240W        W18709  16.438   2.840  13.274  0.1208  0.0489  0.2872
 3241W        W18710   7.200   3.105   1.906 -0.2395  0.4180 -0.3080
 3242W        W18711  16.145  13.253   2.817  0.1793 -0.0001 -0.1024
 3243W        W18712   7.670  14.830  10.943  0.0328 -0.1626  0.0021
 3244W        W18713  13.544  16.087   2.171 -0.0528 -0.2641 -0.2221
 3245W        W18714  10.525   9.411  11.640  0.0417  0.0467 -0.0373
 3246W        W18715   3.819   7.009   3.356  0.0821 -0.2667  0.2193
 3247W        W18716  18.674   6.718  11.143 -0.1590 -0.0028 -0.0355
 3248W        W18717   8.978   2.389  12.806 -0.2090  0.3726 -0.1694
 3249W        W18718   5.823  15.776  14.312 -0.1540 -0.2911 -0.2182
 3250W        W18719   5.046   8.568  11.340 -0.1125  0.2509  0.0472
 3251W        W18720  12.392  16.368   5.523  0.1406 -0.1960  0.0157
 3252W        W18721  11.183  11.709   4.190  0.2189 -0.1629  0.2282
 3253W        W18722   9.572   1.911   4.472  0.0708 -0.0841  0.0131
 3254W        W18723  16.833   8.283   2.961 -0.1765 -0.1474 -0.2802
 3255W        W18724   5.005   1.331  11.660  0.2343 -0.0163 -0.2394
 3256W        W18725  10.455   4.563  11.493  0.0247 -0.3223  0.3491
 3257W        W18726   1.160  12.358  14.353 -0.0277  0.2374 -0.1206
 3258W        W18727  10.403   8.154   1.761 -0.4697 -0.0463  0.1902
 3259W        W18728  13.509   5.256   3.739  0.0332  0.3299 -0.0629
 3260W        W18729   6.057   4.247   3.196 -0.2587  0.0788  0.1631
 3261W        W18730   4.487   3.109  10.878  0.0774 -0.0155 -0.0907
 3262W        W18731  13.154  15.108   3.978 -0.0852  0.3731 -0.1193
 3263W        W18732  14.412   9.956  12.719 -0.1689  0.0113 -0.3800
 3264W        W18733   4.585  15.069  13.389  0.0523 -0.0271 -0.1916
 3265W        W18734  13.887   5.317  13.502  0.1832 -0.4073 -0.0154
 3266W        W18735   8.270   4.819  14.630 -0.1338  0.0533 -0.1136
 3267W        W18736  12.463  16.942   3.089 -0.2180 -0.0993  0.0366
 3268W        W18737   2.734   6.307  12.046 -0.2016 -0.4300  0.1614
 3269W        W18738   3.372   9.456  13.477 -0.1789  0.1555 -0.0509
 3270W        W18739   6.772  15.250  11.584  0.0059  0.1922 -0.0050
 3271W        W18740   7.455   0.611   0.626  0.2140 -0.0008  0.2467
 3272W        W18741   2.688   6.192  11.139 -0.0622  0.2439 -0.2771
 3273W        W18742   8.564  18.374   9.881  0.2265 -0.0149  0.0668
 3274W        W18743  11.145   9.584  11.055  0.1225 -0.2563 -0.1975
 3275W        W18744   4.873   9.094   0.807  0.2338  0.2219 -0.0033
 3276W        W18745  13.864  15.612  14.160  0.2625 -0.1051 -0.1654
 3277W        W18746  18.482   3.950   2.167 -0.0568 -0.1821  0.2391
 3278W        W18747   7.003   1.411  10.846 -0.1490  0.0763 -0.2419
 3279W        W18748  18.204   5.453   4.639  0.0576  0.0650 -0.1356
 3280W        W18749   7.178  14.075  14.524 -0.1615  0.0424  0.0430
 3281W        W18750   5.988  12.944   1.650  0.1655  0.3464 -0.0345
 3282W        W18751  18.186  14.927  15.316  0.0663  0.0695 -0.4852
 3283W        W18752  15.333   6.364   2.039  0.2400  0.1373  0.2102
 3284W        W18753  15.001  14.613  12.925  0.0515 -0.0234  0.3226
 3285W        W18754  11.287  18.047   0.577  0.0911 -0.0395 -0.0092
 3286W        W18755   3.188   2.166  12.707 -0.0252 -0.0583 -0.1515
 3287W        W18756  10.232  11.187   4.202 -0.0199 -0.2633 -0.1096
 3288W        W18757  17.298  16.474   0.825 -0.1264  0.0473  0.1513
 3289W        W18758  12.359   6.193   1.223  0.3175  0.4763  0.2725
 3290W        W18759  12.558   7.637  15.315  0.1647  0.0640  0.0376
 3291W        W18760  11.156  16.594  13.055  0.0911 -0.0552 -0.0917
 3292W        W18761   7.268   6.087   0.726 -0.3982  0.2135 -0.1331
 3293W        W18762  11.677  15.731   2.165  0.1521  0.1982 -0.1016
 3294W        W18763  14.211  14.597   1.026 -0.2753 -0.2141 -0.2014
 3295W        W18764   1.664  13.186  11.576  0.2232 -0.0571  0.1298
 3296W        W18765  15.257  17.485   5.239  0.0229  0.1253  0.0093
 3297W        W18766  14.066  15.087  13.224  0.1794  0.2937 -0.4717
 3298W        W18767   3.545   4.085  11.733 -0.0919  0.2138  0.1019
 3299W        W18768  11.265  18.316   3.221  0.3221 -0.2141 -0.1091
 3300W        W18769  13.446   1.097   2.958  0.0024 -0.1789  0.1828
 3301W        W18770   3.070  13.243  12.369 -0.0712 -0.1834 -0.4506
 3302W        W18771   6.365   2.069   2.328  0.1049 -0.2544 -0.1727
 3303W        W18772   3.270   3.329   3.181  0.1183 -0.1088  0.1069
 3304W        W18773  10.805  12.599  11.084 -0.0803  0.1990  0.0679
 3305W        W18774  12.443  15.115  14.026  0.0595  0.0346 -0.0460
 3306W        W18775  11.918   0.680   4.371  0.2760  0.0977 -0.1521
 3307W        W18776   3.531   0.325  11.228  0.4379  0.0043  0.2261
 3308W        W18777  11.272   1.261   3.178  0.1834  0.1419  0.3788
 3309W        W18778  18.486   9.715   4.610 -0.0948  0.3973  0.1478
 3310W        W18779   1.610  14.558  15.640  0.2042 -0.0010  0.0958
 3311W        W18780   1.650  12.044   3.894  0.2794  0.1395 -0.3741
 3312W        W18781   2.225   3.540   4.062  0.1773 -0.0221 -0.0224
 3313W        W18782  14.810   2.654   0.389  0.1033 -0.0568 -0.0539
 3314W        W18783   9.968   6.541   4.522 -0.2550  0.0219  0.0209
 3315W        W18784   4.708   9.377   4.214 -0.2468 -0.2169 -0.0478
 3316W        W18785  13.902   8.774  11.046 -0.0746 -0.0346  0.1090
 3317W        W18786   2.515  18.386  14.684  0.2264 -0.0808 -0.2892
 3318W        W18787  11.909  16.679  14.777  0.0558 -0.1271  0.1086
 3319W        W18788   9.226  11.881  15.377 -0.0987 -0.1447  0.1000
 3320W        W18789  17.736  13.962  15.632  0.1139 -0.1114 -0.0887
 3321W        W18790  13.852   7.492  14.378 -0.4234  0.0127 -0.0950
 3322W        W18791   2.377  13.883  12.320 -0.1526 -0.2915 -0.0074
 3323W        W18792  14.519  16.259  14.924  0.0355 -0.0035  0.1532
 3324W        W18793  16.335  16.005   1.271 -0.0590  0.0866  0.1702
 3325W        W18794   0.331   5.332   3.715  0.0349  0.0139  0.1047
 3326W        W18795   7.397   2.468  13.355  0.5533  0.1552  0.0300
 3327W        W18796   3.687   7.961   5.408 -0.0990 -0.4480  0.0571
 3328W        W18797   9.167  11.674   1.411  0.1415  0.1285  0.0176
 3329W        W18798  16.572  14.211   4.426 -0.2741  0.3257  0.1620
 3330W        W18799  11.379  16.561  14.998 -0.0606  0.1394  0.1355
 3331W        W18800   3.575  11.172  11.782  0.0348  0.4820  0.1223
 3332W        W18801   0.541   9.665  10.358 -0.0694 -0.0224 -0.1399
 3333W        W18802   9.216   6.829  11.508 -0.1669  0.1680  0.3326
 3334W        W18803  11.842   9.052   1.158  0.1370 -0.0669 -0.0582
 3335W        W18804   6.905  15.302   0.491 -0.2128  0.0314 -0.0474
 3336W        W18805  17.219   7.313   3.832 -0.2754 -0.2216  0.0310
 3337W        W18806   5.567  16.531  11.398  0.0808  0.2579 -0.3049
 3338W        W18807  13.555  17.263  12.317 -0.0542 -0.1554 -0.0458
 3339W        W18808   5.940   2.883  10.939  0.2920 -0.0961 -0.0369
 3340W        W18809  11.097  11.179   4.893 -0.1497 -0.0727  0.0627
 3341W        W18810  11.384  13.856   0.451  0.0835  0.0689 -0.0891
 3342W        W18811   2.874   4.544  12.034 -0.0360 -0.1307  0.2750
 3343W        W18812  14.920   0.278   5.405  0.0759 -0.0941  0.0912
 3344W        W18813  17.224  10.468   1.751  0.0290  0.1883  0.1801
 3345W        W18814   2.089   8.720  14.882  0.0688  0.2505 -0.3276
 3346W        W18815  14.503   8.858  12.276  0.1257  0.1156 -0.2287
 3347W        W18816  14.954   4.629   0.699 -0.3939 -0.2514 -0.0585
 3348W        W18817   1.131   7.971  15.706 -0.0909 -0.1365  0.1803
 3349W        W18818  11.665  10.370   2.200 -0.1968  0.1178 -0.0090
 3350W        W18819  17.182   4.928  15.189 -0.2447  0.1943 -0.0175
 3351W        W18820  13.291  17.060   0.593 -0.2015  0.1362 -0.0026
 3352W        W18821   3.841   4.495   3.873 -0.1121 -0.0315  0.1602
 3353W        W18822   8.361   0.125   4.940  0.2943 -0.0707 -0.0374
 3354W        W18823  13.159   3.735  12.165  0.3066  0.0943 -0.0316
 3355W        W18824   4.016   3.523  13.091  0.0461 -0.1827  0.0863
 3356W        W18825   7.448  17.831   2.711  0.2322 -0.2075 -0.0370
 3357W        W18826  10.050  17.556   1.241  0.2223 -0.0304  0.1263
 3358W        W18827  16.625   5.236   3.160 -0.0204  0.0858 -0.0959
 3359W        W18828   6.661   8.221  14.505  0.0185 -0.2636  0.2244
 3360W        W18829   4.183   9.587  13.295 -0.2201 -0.0387 -0.4269
 3361W        W18830   4.621   2.546  10.829 -0.0026  0.0195 -0.4143
 3362W        W18831  11.959   5.480   1.136 -0.1120 -0.4323  0.1029
 3363W        W18832  15.236  12.969   1.468  0.0696  0.3309 -0.0332
 3364W        W18833   2.193  12.752   1.442  0.2182 -0.2822 -0.0078
 3365W        W18834  12.861   8.727  14.904  0.1398 -0.7208 -0.2159
 3366W        W18835   1.831  12.111  12.716  0.0839  0.2025  0.3769
 3367W        W18836   4.478   9.359  10.432 -0.1010 -0.1566  0.0529
 3368W        W18837   6.968  12.175   4.284  0.1123  0.1664 -0.0783
 3369W        W18838   5.344   4.286  11.026 -0.1119  0.1505  0.3153
 3370W        W18839  17.795  15.193   4.327 -0.0545 -0.0076 -0.0645
 3371W        W18840   6.832   2.230   2.449 -0.2729  0.1290 -0.0479
 3372W        W18841   9.991   7.439   0.267  0.1711 -0.1636 -0.0163
 3373W        W18842   5.335   8.478   3.515 -0.2004  0.0516  0.3681
 3374W        W18843  17.696  16.276  14.889 -0.3504 -0.4177  0.1287
 3375W        W18844  18.041  18.557  11.453 -0.1409  0.2257 -0.1341
 3376W        W18845  11.771   0.080  11.982  0.2268 -0.3822 -0.0092
 3377W        W18846   6.993  11.583   0.756  0.4143  0.0769 -0.0774
 3378W        W18847   1.597  10.904   4.614 -0.1513  0.0632  0.0349
 3379W        W18848  13.598   9.480  12.315  0.3466 -0.0209 -0.1832
 3380W        W18849  12.232   1.121   1.439 -0.2247  0.0057  0.0448
 3381W        W18850   2.825   9.293  11.944  0.0534  0.2561 -0.0741
 3382W        W18851   7.829  10.541   2.547 -0.0007 -0.3414 -0.0809
 3383W        W18852   6.091   5.786  13.799  0.1308 -0.2234  0.0393
 3384W        W18853  14.736   3.624  12.711 -0.1800 -0.0974  0.3408
 3385W        W18854  12.968  17.031  13.732 -0.0536  0.2763  0.0017
 3386W        W18855  18.684  10.967   5.365 -0.3086 -0.2265  0.1255
 3387W        W18856  11.325   7.733  14.883 -0.0366 -0.0248  0.2178
 3388W        W18857   9.258   8.943  14.329 -0.1020  0.1445  0.2442
 3389W        W18858   8.998   3.541   4.430  0.2128 -0.1747  0.0865
 3390W        W18859   9.118  11.063  14.418  0.0279 -0.2141 -0.0459
 3391W        W18860   3.887  18.695  15.040 -0.2175  0.0728  0.0159
 3392W        W18861   1.515  12.759   1.497 -0.2440 -0.0377  0.0040
 3393W        W18862  17.607  11.786   0.986 -0.1544 -0.0864  0.1312
 3394W        W18863   9.416  16.958   0.710 -0.0697 -0.2734 -0.1051
 3395W        W18864  13.214   0.596   4.585 -0.1284  0.0157 -0.1054
 3396W        W18865  14.907   1.904   4.775 -0.1726 -0.1524  0.0125
 3397W        W18866  10.935  18.142  15.542 -0.0451  0.0929  0.0039
 3398W        W18867   9.582  10.063   2.671 -0.3521  0.1039  0.1689
 3399W        W18868  16.197   5.311   2.259 -0.1956  0.0014  0.0032
 3400W        W18869   5.654   0.782   1.349  0.3207  0.2126 -0.0831
 3401W        W18870   0.035   0.270  13.747 -0.3098  0.3001 -0.4525
 3402W        W18871   8.291  13.404  14.188  0.0648  0.0509  0.1740
 3403W        W18872  17.707  14.675   0.743 -0.1611 -0.3233  0.0777
 3404W        W18873   0.625   1.353  11.025  0.0870  0.1231 -0.0064
 3405W        W18874   4.781  16.914   4.519  0.0607 -0.4498 -0.0509
 3406W        W18875  11.830  12.008  15.705 -0.0737  0.1164  0.1430
 3407W        W18876   9.860   2.027  13.835  0.1707  0.0796  0.1659
 3408W        W18877   7.916   0.193   2.785 -0.1661 -0.4211  0.0322
 3409W        W18878   0.796   1.146  15.473 -0.0710  0.0322 -0.0249
 3410W        W18879   3.697   0.475  10.566  0.3424  0.0011  0.2819
 3411W        W18880   8.138   5.658   1.893  0.2253 -0.1154  0.0656
 3412W        W18881   4.748   0.521  15.349 -0.0019  0.1165  0.2057
 3413W        W18882   3.795  16.085  12.630  0.1835  0.1079  0.1741
 3414W        W18883   0.837   3.467   3.058 -0.2303  0.1118  0.2852
 3415W        W18884   7.914  17.039  11.816  0.0004 -0.4503 -0.0623
 3416W        W18885  15.277  13.939  11.263  0.0573 -0.0932 -0.3330
 3417W        W18886  12.251  17.582  14.467  0.2406  0.2120 -0.1817
 3418W        W18887   5.719   6.795  10.211  0.1213 -0.0332 -0.0445
 3419W        W18888  13.312  18.036   5.445 -0.2620 -0.1003 -0.3335
 3420W        W18889  12.493   2.952  11.882  0.2460 -0.1213  0.1551
 3421W        W18890   6.459   4.469  12.214  0.1723  0.1087  0.1700
 3422W        W18891  10.487  13.687  11.025 -0.2530 -0.1735  0.0838
 3423W        W18892   4.397   8.969   1.174 -0.3157  0.0561  0.0076
 3424W        W18893  14.126   8.430  15.408 -0.1218 -0.2135  0.0283
 3425W        W18894  17.090   5.572   3.216 -0.1294  0.0072 -0.0480
 3426W        W18895   0.989   2.706  10.193 -0.1755  0.1934 -0.0557
 3427W        W18896   4.050  16.484   0.733 -0.0370  0.2750 -0.1315
 3428W        W18897  18.609   1.033   4.974 -0.3524 -0.1016  0.1116
 3429W        W18898   6.346  17.310  11.100  0.3242 -0.1342 -0.2626
 3430W        W18899  14.756   0.475   3.048 -0.1072 -0.0341 -0.0135
 3431W        W18900   4.387   6.205   5.147 -0.1310 -0.1272 -0.0541
 3432W        W18901   6.796   8.995   5.935 -0.3736 -0.1166  0.0169
 3433W        W18902  11.895   6.613   0.502  0.1836  0.2738 -0.1730
 3434W        W18903   9.608  15.737   5.289 -0.4412  0.2258 -0.0509
 3435W        W18904  17.098  17.045   0.591 -0.1169  0.3300 -0.0152
 3436W        W18905  14.768   9.392   5.393 -0.0983  0.0393  0.1838
 3437W        W18906   7.041   3.110  11.210  0.0324  0.0270 -0.2439
 3438W        W18907   2.729   2.614   2.068  0.1810  0.1290 -0.0302
 3439W        W18908  11.076  16.200  12.702  0.2048  0.0282 -0.2809
 3440W        W18909   8.025   8.199   3.896  0.0272  0.1090  0.2128
 3441W        W18910  14.319  14.196   1.346 -0.2288  0.0641  0.1314
 3442W        W18911  13.307  14.689   1.387 -0.0258  0.1712  0.1171
 3443W        W18912  11.031   0.207  13.290 -0.2213 -0.1934  0.0935
 3444W        W18913   5.699   2.857   1.822 -0.3135 -0.5365 -0.2679
 3445W        W18914  18.122   1.114  11.744 -0.0568  0.1951  0.0643
 3446W        W18915  18.478  15.550   9.678  0.0080 -0.0900  0.2591
 3447W        W18916   4.621   7.194   4.055 -0.0508 -0.0261 -0.1078
 3448W        W18917   9.972   1.060  11.980 -0.3071  0.0395  0.0824
 3449W        W18918   0.872   4.052  12.912 -0.0612  0.1264  0.0334
 3450W        W18919   3.304   8.269   0.097  0.0581  0.1314  0.0151
 3451W        W18920   0.964   4.108  12.370 -0.2769  0.4601  0.2825
 3452W        W18921   9.655  17.267  10.890 -0.0659 -0.2495 -0.0236
 3453W        W18922  16.994   4.079   4.556  0.1102 -0.2876 -0.0475
 3454W        W18923   2.585  12.521  14.626  0.0645 -0.0724  0.0638
 3455W        W18924   7.606   7.631  13.452  0.0482  0.0636 -0.0611
 3456W        W18925  10.139   5.215   2.060  0.1936  0.2659  0.0132
 3457W        W18926   7.966  16.310   4.263 -0.1377  0.1487  0.2028
 3458W        W18927   0.397  10.966   0.069 -0.2756  0.0552  0.2179
 3459W        W18928   8.918   7.929   3.869 -0.1489  0.0974  0.1477
 3460W        W18929  15.875   0.073   5.020 -0.0544 -0.2506  0.0786
 3461W        W18930   1.164  14.040  15.426  0.0259  0.0748  0.0123
 3462W        W18931   0.671   0.681  13.573  0.0790  0.3405 -0.0116
 3463W        W18932  12.495   7.775  11.765 -0.4179 -0.0538  0.0999
 3464W        W18933  16.064  17.034   0.337  0.1860  0.0055 -0.0935
 3465W        W18934  13.373   0.202  14.152 -0.4006  0.3215 -0.0561
 3466W        W18935  11.979  13.536   0.251 -0.1685  0.3207 -0.1250
 3467W        W18936   8.328   7.092   4.800 -0.1850 -0.2235 -0.1496
 3468W        W18937  16.281  15.114  13.665  0.0088 -0.1891 -0.3507
 3469W        W18938   1.442   7.709   2.359  0.0777 -0.3280 -0.3664
 3470W        W18939   4.400  16.070   0.009  0.2934 -0.1193 -0.0818
 3471W        W18940   7.511   2.399   4.319  0.0436 -0.1610  0.0064
 3472W        W18941  11.374  16.439  12.017  0.0517 -0.3325 -0.3448
 3473W        W18942   3.116   5.526  12.505 -0.2313  0.1060 -0.1496
 3474W        W18943  10.743   2.093  12.509  0.0703  0.1662 -0.2630
 3475W        W18944  12.514  12.024  11.242 -0.0668  0.0611  0.1586
 3476W        W18945  12.546  12.969  14.229  0.2389 -0.0634 -0.1124
 3477W        W18946   1.038  11.698   4.792 -0.0943 -0.0980  0.3070
 3478W        W18947  10.392  11.167  14.051 -0.1862 -0.0625 -0.1680
 3479W        W18948   6.482  18.206   0.089  0.1746 -0.1805 -0.1462
 3480W        W18949  13.823   4.424  12.257 -0.0813  0.0741 -0.1838
 3481W        W18950   9.311   6.588  15.061 -0.6132 -0.2374  0.1345
 3482W        W18951  10.610   4.591  14.321  0.1857  0.1506 -0.2638
 3483W        W18952   9.107   6.116   4.837  0.1420 -0.1660 -0.2462
 3484W        W18953   1.028  13.572   2.895 -0.0608 -0.0727  0.0748
 3485W        W18954   2.878   8.890  13.854  0.2056 -0.4504  0.0501
 3486W        W18955  12.992   6.286  15.313  0.3450  0.2884 -0.1573
 3487W        W18956   7.942   1.210  15.463  0.1888 -0.0529  0.0918
 3488W        W18957  16.114  16.800   2.517 -0.0501  0.1282 -0.0156
 3489W        W18958  16.230  10.025   0.005 -0.1549 -0.0691 -0.0080
 3490W        W18959  13.891   2.991   1.113 -0.1249  0.2979 -0.3009
 3491W        W18960   4.547   9.801   2.575  0.1919  0.0433 -0.1805
 3492W        W18961   4.793   3.069  12.228 -0.0467  0.0065  0.2067
 3493W        W18962  10.819   0.623   1.349  0.1046 -0.1824 -0.2356
 3494W        W18963   7.446   2.816   0.056 -0.1046 -0.1158  0.2710
 3495W        W18964   5.076  11.063  12.179  0.0122  0.1826  0.3520
 3496W        W18965  12.906   4.542   5.190  0.2514 -0.1978 -0.0525
 3497W        W18966  15.959   0.202  15.274 -0.1913 -0.0631 -0.4362
 3498W        W18967  13.893   8.057   3.805 -0.0086  0.1605 -0.4129
 3499W        W18968   5.607  15.390   1.823  0.2187  0.2953 -0.0284
 3500W        W18969  10.469   9.668  11.184 -0.0066  0.0943  0.4040
 3501W        W18970   9.634  10.027  11.458 -0.0549  0.1421  0.2077
 3502W        W18971   8.726  13.484   3.475 -0.1477  0.0091  0.1176
 3503W        W18972   9.139   1.214  14.501  0.1202 -0.3874  0.0946
 3504W        W18973   9.171   1.638   3.491 -0.3666 -0.1326  0.1735
 3505W        W18974   7.354  14.124   3.721  0.0919  0.0219  0.0459
 3506W        W18975   7.659   2.803   2.008 -0.0888 -0.0388 -0.1500
 3507W        W18976   2.177  10.977  14.385  0.5107 -0.0125 -0.2081
 3508W        W18977   7.723   6.439   3.582  0.2264 -0.1187  0.0347
 3509W        W18978  13.224   3.727   4.512  0.0672  0.1617 -0.0374
 3510W        W18979  12.781   0.332   0.474 -0.1327 -0.0369 -0.5622
 3511W        W18980  13.109   8.472   3.762  0.1836  0.4758  0.0145
 3512W        W18981  11.951   0.907  12.578 -0.2407 -0.0078  0.1342
 3513W        W18982  10.867   4.626  12.410 -0.0057 -0.0616 -0.1643
 3514W        W18983   7.484  17.997  14.261 -0.1222  0.3460 -0.0549
 3515W        W18984  14.892  12.004   0.398 -0.3821  0.1128 -0.0460
 3516W        W18985   7.794  13.381  14.015 -0.1242 -0.0227  0.0462
 3517W        W18986  15.377  14.353  13.177 -0.1363  0.1459 -0.0123
 3518W        W18987   6.920  16.785  13.830 -0.0226  0.0781 -0.1107
 3519W        W18988   3.843  11.590  11.723 -0.2298 -0.1174 -0.0129
 3520W        W18989  13.614   5.671   0.583 -0.1095  0.3099 -0.1696
 3521W        W18990   2.473  12.549   3.561 -0.2019 -0.0445  0.2449
 3522W        W18991   7.072  16.355  10.930  0.1457 -0.2770  0.0098
 3523W        W18992   5.900  15.918  15.384  0.0658  0.1986  0.1753
 3524W        W18993  18.600  12.041   3.895  0.0664 -0.4017  0.0443
 3525W        W18994   3.161  11.827  11.323  0.2433 -0.3025  0.1010
 3526W        W18995   4.907  10.802  15.225  0.2058 -0.0995 -0.0881
 3527W        W18996  12.998  11.627  15.012 -0.0880 -0.0432  0.2786
 3528W        W18997   6.909   1.689   4.385 -0.1941  0.0151  0.3437
 3529W        W18998   2.846  14.377   1.587 -0.0139  0.0114  0.0795
 3530W        W18999   7.120   3.418   9.584 -0.1283 -0.1506 -0.1479
 3531W        W19000   0.195   9.902   2.020 -0.1102 -0.0687 -0.0546
 3532W        W19001   1.184  18.250  11.179 -0.1853 -0.0938 -0.1393
 3533W        W19002   8.272  16.489   3.035 -0.4726 -0.1202 -0.0744
 3534W        W19003   4.233  17.573  14.269  0.0104  0.0992  0.2918
 3535W        W19004   3.616   0.833   5.721 -0.3251 -0.2533  0.0056
 3536W        W19005   0.578   1.387  14.839 -0.0594  0.1315  0.0345
 3537W        W19006   2.611  12.548   0.671  0.1102 -0.0035  0.0074
 3538W        W19007   3.040   0.696  14.400  0.1827  0.1627 -0.3757
 3539W        W19008  15.627   5.424  10.514  0.0162  0.0121  0.1699
 3540W        W19009  13.788   4.649   2.066 -0.0944 -0.1386 -0.3993
 3541W        W19010   3.639   9.486  11.678  0.1101  0.3038  0.4988
 3542W        W19011   2.782   9.695   4.817  0.0245 -0.0265  0.3006
 3543W        W19012   3.144   0.149  13.628  0.0267 -0.1840 -0.0101
 3544W        W19013   5.669  18.189   4.347  0.0229  0.1457  0.1953
 3545W        W19014  11.108  10.091  11.071 -0.1143  0.1376  0.0693
 3546W        W19015  14.244   6.555  13.781  0.1662  0.0052  0.3405
 3547W        W19016  16.326   1.559  14.830  0.2283 -0.1117  0.0380
 3548W        W19017   3.080   4.220  11.616 -0.3850 -0.3025 -0.1189
 3549W        W19018   2.604  18.389   1.010 -0.2478 -0.1504  0.2495
 3550W        W19019  16.457   7.413   4.162 -0.1552  0.1764 -0.1193
 3551W        W19020   8.928   4.563   1.945  0.2069  0.0862 -0.0603
 3552W        W19021   7.771  11.457   0.257 -0.1454  0.3662  0.2708
 3553W        W19022  12.949   4.108  14.468 -0.0984  0.3182  0.1059
 3554W        W19023   9.829   6.224  15.722 -0.2348 -0.0335  0.2979
 3555W        W19024   5.133  15.626   3.665 -0.2403 -0.0463  0.2707
 3556W        W19025  18.004  12.732  14.383  0.0813 -0.3609 -0.3393
 3557W        W19026  14.235  10.290   1.045  0.1692 -0.1161 -0.0737
 3558W        W19027  16.949  18.442   0.503 -0.0434  0.2942  0.3111
 3559W        W19028  18.092   0.784  10.997  0.1124 -0.0744 -0.0164
 3560W        W19029  13.397  12.600   1.959 -0.4224 -0.1926 -0.0573
 3561W        W19030  10.389  10.369   2.930 -0.2706  0.1106 -0.0316
 3562W        W19031   2.053   6.447  15.486  0.0495 -0.2027  0.0338
 3563W        W19032  16.684  17.070   1.833  0.0630 -0.2518 -0.2407
 3564W        W19033  16.126  14.463  14.456 -0.0924 -0.4481  0.0045
 3565W        W19034  14.029   1.218   4.339  0.1066  0.0864 -0.2723
 3566W        W19035   3.484   5.964   5.193 -0.0311  0.0063  0.1234
 3567W        W19036  15.597   2.903   3.668  0.0789  0.3537 -0.3652
 3568W        W19037  12.678  12.916  11.233 -0.0633  0.2332 -0.0196
 3569W        W19038   3.490   9.886  11.286  0.0440 -0.3735 -0.1807
 3570W        W19039   3.714   3.392   4.726 -0.1734  0.1962  0.2055
 3571W        W19040   0.644  13.308   4.690  0.0767  0.2620  0.2195
 3572W        W19041  11.572  11.020   2.977  0.1282 -0.0030 -0.1572
 3573W        W19042   2.955  12.530  15.138  0.2144 -0.4176  0.2539
 3574W        W19043   5.895  15.025  13.913 -0.0416 -0.0961  0.1453
 3575W        W19044   8.346  11.827   2.466 -0.0615 -0.0324 -0.2332
 3576W        W19045  14.998   7.269   0.002 -0.0342  0.0626  0.3042
 3577W        W19046   2.660   2.009  11.049  0.1727  0.0175  0.0661
 3578W        W19047   9.958  14.973   2.186 -0.2583 -0.1127  0.0586
 3579W        W19048   9.112   9.978   4.936 -0.0485 -0.1800 -0.0452
 3580W        W19049   4.596  11.473   4.061  0.2024 -0.2421 -0.0315
 3581W        W19050  11.529  10.616  15.301 -0.1302 -0.0388 -0.0814
 3582W        W19051  11.333  11.803   0.051 -0.2191 -0.0983  0.0667
 3583W        W19052  18.651  15.343   3.733  0.1287 -0.0343 -0.0413
 3584W        W19053   7.704  10.050   5.621  0.1241 -0.4675 -0.0122
 3585W        W19054  14.018   0.200   1.387 -0.1750 -0.0810 -0.1302
 3586W        W19055  18.286  11.703  14.522  0.0899  0.2825 -0.0230
 3587W        W19056   6.111  10.659   5.551 -0.1646  0.0375 -0.1070
 3588W        W19057   1.738  18.457  13.962  0.0282 -0.2748  0.1226
 3589W        W19058   4.846   0.507  13.051  0.2692 -0.0073  0.0313
 3590W        W19059   6.252  12.668   3.002  0.1928  0.2345 -0.3572
 3591W        W19060  18.041   7.368  11.324 -0.0255  0.0207 -0.0041
 3592W        W19061  17.924  16.526   2.725 -0.1746 -0.0518  0.1163
 3593W        W19062  17.051   2.008   5.317  0.0591 -0.1238 -0.1432
 3594W        W19063   1.259   4.206  15.531 -0.0186 -0.0026  0.2149
 3595W        W19064  17.565   0.046  11.388  0.1518  0.2909 -0.1925
 3596W        W19065  11.651  16.249  14.086  0.0153  0.1349  0.0372
 3597W        W19066   1.251  10.712   5.291  0.2449 -0.2638  0.0517
 3598W        W19067   3.041  14.140  12.789  0.2730 -0.2984  0.1915
 3599W        W19068   2.760   8.172   2.461  0.2339 -0.0740 -0.1636
 3600W        W19069   9.517  12.772   2.803 -0.0760  0.1419 -0.1862
 3601W        W19070  14.059   9.188  14.645  0.1211  0.1177  0.0559
 3602W        W19071   5.240   6.339  13.681 -0.1618 -0.2194 -0.2748
 3603W        W19072  12.010   7.540  15.371  0.1664 -0.1245  0.1802
 3604W        W19073   7.157  16.158  10.489 -0.0760  0.1718 -0.1476
 3605W        W19074   5.930   2.401  10.653 -0.0394 -0.1443 -0.1385
 3606W        W19075  17.242   7.855   4.259  0.2466  0.1092  0.0957
 3607W        W19076  15.919   6.204  12.051 -0.1209  0.1163 -0.0148
 3608W        W19077  13.183  17.013   1.562 -0.0074 -0.0397  0.2972
 3609W        W19078  10.675   2.183   0.697 -0.1038 -0.0420  0.1377
 3610W        W19079  13.710  14.157   2.986  0.0542  0.1847 -0.0730
 3611W        W19080   6.086  12.983   5.297 -0.4065 -0.0950  0.3942
 3612W        W19081   1.131  16.226  15.074  0.0196  0.0353  0.1969
 3613W        W19082  17.281  14.492   0.512  0.1464 -0.0867  0.1423
 3614W        W19083   9.433  13.444  13.211  0.0077 -0.2228  0.3025
 3615W        W19084   3.272   2.529  11.954 -0.0135 -0.2439  0.0164
 3616W        W19085  10.182  16.088  11.477  0.0987 -0.0624 -0.0793
 3617W        W19086   4.560  16.848   3.148 -0.2060  0.0835 -0.1322
 3618W        W19087  13.610   7.711   3.462  0.1523 -0.4265  0.0659
 3619W        W19088  12.167   3.647  14.630 -0.2751 -0.1151  0.2685
 3620W        W19089  14.735  16.317   1.723 -0.1500 -0.2003 -0.0111
 3621W        W19090   8.789  14.067  14.506 -0.3950  0.0885 -0.0316
 3622W        W19091  10.680  13.794   5.453 -0.2754  0.4424 -0.0321
 3623W        W19092   9.779   5.255  12.173  0.1581  0.1171  0.1103
 3624W        W19093  16.803   3.005   1.307  0.1586 -0.0169 -0.2941
 3625W        W19094   6.696  14.454   4.732 -0.0839  0.2621 -0.3120
 3626W        W19095  16.776  18.696   4.942 -0.2571 -0.0985  0.0812
 3627W        W19096   8.970   1.892  13.019  0.2472 -0.3341 -0.1034
 3628W        W19097   9.970   6.759   4.084  0.1160  0.1354 -0.0116
 3629W        W19098  13.303   4.707   4.744  0.0857  0.1419  0.1891
 3630W        W19099   0.623  11.836  13.603 -0.0172 -0.0864  0.0837
 3631W        W19100  18.197   4.087  12.447 -0.1585  0.1907 -0.0285
 3632W        W19101   1.390  15.569  15.592 -0.1732  0.0376 -0.3155
 3633W        W19102   6.302   7.596  14.558  0.4835  0.1153 -0.2951
 3634W        W19103  13.169  14.918  10.993  0.1830 -0.0067  0.0695
 3635W        W19104  10.907   4.097  13.512 -0.1059 -0.0161 -0.0527
 3636W        W19105   5.494   0.023   4.376  0.2560 -0.1662 -0.2610
 3637W        W19106  12.616  13.379   4.975  0.0230 -0.2199 -0.2280
 3638W        W19107   6.255   0.756  11.699 -0.0138  0.0562  0.1978
 3639W        W19108   5.292   2.484   9.792  0.3984 -0.2294 -0.0644
 3640W        W19109  14.204  13.200  15.302 -0.0658 -0.1547  0.1328
 3641W        W19110   9.177  17.389  11.708  0.0419 -0.0963 -0.1290
 3642W        W19111   5.423   6.344   9.860 -0.1085 -0.0834 -0.0416
 3643W        W19112  13.002   5.823  12.291 -0.0805 -0.0084 -0.2435
 3644W        W19113   3.482   6.270  10.976  0.0160 -0.1768 -0.0596
 3645W        W19114   8.735   6.339   2.710  0.0043 -0.4774  0.3105
 3646W        W19115   8.352  15.635   0.120  0.2172  0.4260 -0.0357
 3647W        W19116   8.374  17.184  14.485 -0.1308 -0.1791  0.0862
 3648W        W19117   1.032   9.426  13.957 -0.2039  0.1276  0.2562
 3649W        W19118  14.878   3.172  12.804  0.1874 -0.0587 -0.0605
 3650W        W19119   4.451  11.032  12.305 -0.1589  0.1223 -0.3239
 3651W        W19120   3.688  10.638  15.520 -0.2864  0.1627  0.1093
 3652W        W19121   2.939   8.101  12.931 -0.2812  0.1193 -0.1542
 3653W        W19122   3.201   4.084   4.306 -0.1530  0.1583  0.1585
 3654W        W19123  14.865   1.760  14.383  0.0755 -0.1655  0.1008
 3655W        W19124   7.370  18.486  10.254  0.2854  0.0034  0.1801
 3656W        W19125   0.560  10.224  11.093 -0.2772 -0.0892  0.3503
 3657W        W19126   8.889   9.532   2.718  0.2689  0.0311 -0.0118
 3658W        W19127   1.901   8.236   4.848  0.1681 -0.1812 -0.0997
 3659W        W19128  17.949   8.989   0.634 -0.3121 -0.1869  0.2626
 3660W        W19129   0.824   4.671   1.851  0.1467  0.0145  0.3429
 3661W        W19130  15.289  15.359  11.876 -0.4788 -0.0118 -0.1689
 3662W        W19131   8.624  11.072   2.753  0.1097  0.0949  0.0359
 3663W        W19132   3.822   2.390  15.643  0.0929  0.2570 -0.0715
 3664W        W19133  16.303  15.426   5.212 -0.2265 -0.1028  0.0809
 3665W        W19134  12.066   8.807   4.024 -0.1893  0.2566 -0.1165
 3666W        W19135  15.348  16.032   0.700  0.3891 -0.1680  0.2388
 3667W        W19136   6.055  15.907   4.104  0.3097  0.1933  0.0069
 3668W        W19137   2.702   9.411  11.271 -0.2110 -0.4049  0.0481
 3669W        W19138   4.411   1.856  11.410 -0.1607  0.2719  0.0826
 3670W        W19139   5.197   4.388  13.424  0.1356 -0.1311 -0.0385
 3671W        W19140   4.035   0.370  13.536  0.2555  0.3932  0.0050
 3672W        W19141   5.587   6.491  13.374 -0.1657  0.2066  0.1518
 3673W        W19142   4.687   2.452  12.156 -0.1350  0.2716  0.0049
 3674W        W19143  12.181  14.202  12.437 -0.0087  0.0754  0.1552
 3675W        W19144  10.314   6.795  10.919  0.0824 -0.1861  0.1536
 3676W        W19145  12.570   2.397   4.150 -0.1634 -0.1792 -0.0631
 3677W        W19146  14.753   4.673   3.060  0.1233  0.0482  0.0990
 3678W        W19147   2.297  10.198  12.238 -0.0565 -0.0086 -0.2820
 3679W        W19148  14.809   6.368  11.443  0.0643  0.0347 -0.1455
 3680W        W19149  11.704   7.767  14.409  0.0064  0.4608  0.2302
 3681W        W19150   1.126   4.925   1.592 -0.0576  0.1879  0.0922
 3682W        W19151  15.685   8.531  12.366  0.2678 -0.0887 -0.0819
 3683W        W19152   7.869  13.935  13.951  0.2274  0.1057  0.2837
 3684W        W19153  12.285   7.858  14.694 -0.1554  0.0025  0.1926
 3685W        W19154   3.774  13.221  15.069 -0.0847  0.0684  0.1948
 3686W        W19155   9.474  14.444  13.080 -0.1916 -0.2590 -0.0777
 3687W        W19156   0.946   3.440   1.384  0.1251 -0.2492  0.0093
 3688W        W19157   8.913  18.003   2.193 -0.0843  0.0162 -0.0830
 3689W        W19158   7.830  18.595   2.349 -0.1580 -0.0678 -0.0717
 3690W        W19159  12.677   1.023   5.029  0.1172 -0.0371  0.1453
 3691W        W19160  13.520  17.648   2.371  0.0374 -0.1308 -0.1179
 3692W        W19161   5.915  12.041   3.741  0.0840  0.0552  0.2247
 3693W        W19162  15.166   6.985   0.368  0.0481 -0.0593  0.1229
 3694W        W19163  16.361   5.054  11.031  0.1217  0.0357 -0.2318
 3695W        W19164   8.646   7.302  13.922 -0.1212  0.2302  0.3094
 3696W        W19165  15.364   4.476  12.703  0.0679 -0.1153 -0.2417
 3697W        W19166   3.613   1.747   3.272 -0.1257  0.0956  0.0361
 3698W        W19167   2.502  11.668   2.216 -0.1503  0.0764  0.0456
 3699W        W19168  16.005   4.070  14.794  0.1473  0.2720  0.1832
 3700W        W19169  13.629   2.196   3.612  0.2088 -0.2192 -0.1715
 3701W        W19170  16.657   7.483  14.218 -0.0352  0.1354  0.2290
 3702W        W19171  14.452   4.785  15.204  0.0876  0.1127 -0.1764
 3703W        W19172  15.205  13.790   0.890  0.0606  0.0015 -0.0681
 3704W        W19173  13.861  12.514   1.551  0.0207 -0.3863  0.2477
 3705W        W19174  10.747  12.885  14.808  0.0116 -0.1503 -0.3522
 3706W        W19175  15.654   0.412  11.448  0.0967  0.1606  0.0224
 3707W        W19176   6.276  14.395   3.335  0.0316  0.0923 -0.0736
 3708W        W19177  13.283  17.755  11.606  0.0709 -0.1597 -0.0105
 3709W        W19178   9.365  17.201  11.284 -0.0028  0.1742  0.0291
 3710W        W19179  14.792   3.573   4.842  0.0736 -0.1618 -0.0687
 3711W        W19180   5.240   8.616  11.849 -0.0385 -0.0106  0.2413
 3712W        W19181   3.397   3.143  10.097  0.1552  0.2297 -0.4591
 3713W        W19182   2.795   2.893  13.826 -0.1251 -0.0043 -0.0815
 3714W        W19183  12.129  12.510   1.938 -0.0440  0.0054  0.0004
 3715W        W19184  15.397  17.924  11.046  0.0910  0.2143 -0.3686
 3716W        W19185   7.952   7.715   4.080  0.0466  0.2818 -0.0624
 3717W        W19186  18.230   5.284   2.395  0.4120  0.1055  0.1630
 3718W        W19187   8.198  15.507   1.607 -0.0440 -0.0101 -0.2042
 3719W        W19188   4.655  13.965  11.577 -0.0725 -0.2164 -0.1086
 3720W        W19189   8.049  10.184  14.552  0.1169 -0.2958  0.1126
 3721W        W19190   4.516  16.215  14.367  0.4138 -0.0694 -0.1317
 3722W        W19191   2.470   8.968  11.307  0.0904  0.1535 -0.0377
 3723W        W19192   3.728  13.164   2.727 -0.2402 -0.0335 -0.0654
 3724W        W19193   2.878  17.545   1.611  0.4573 -0.2826  0.1740
 3725W        W19194  15.036  16.529  13.021 -0.1194  0.1423  0.1432
 3726W        W19195   0.401   5.070  13.667  0.0241 -0.0928 -0.0509
 3727W        W19196   4.956  14.635  11.729 -0.2242  0.0860  0.0895
 3728W        W19197   0.184  17.098  12.055 -0.1473  0.3864  0.2661
 3729W        W19198   1.908  11.807   0.974  0.0735  0.2157 -0.3026
 3730W        W19199  14.600   9.333  11.005 -0.0452  0.1158 -0.0996
 3731W        W19200  11.107  13.111   1.661 -0.0495 -0.4343 -0.0102
 3732W        W19201  12.347   0.922  14.994 -0.0362 -0.1500 -0.0677
 3733W        W19202   4.737   8.117  11.395 -0.2665 -0.1401 -0.2743
 3734W        W19203   7.027  10.374   0.669 -0.0415 -0.1477  0.3244
 3735W        W19204   5.374   5.179  13.538 -0.0514  0.0016 -0.0448
 3736W        W19205   0.094   5.038  12.342 -0.3215 -0.2904 -0.2056
 3737W        W19206  14.321  16.232   3.897 -0.1122  0.1557  0.1571
 3738W        W19207  16.916  12.335   4.895  0.3957 -0.1740 -0.4566
 3739W        W19208   7.725  17.974   3.096 -0.0719  0.0180 -0.0497
 3740W        W19209   0.212   7.254   9.521  0.1319  0.0534  0.0136
 3741W        W19210  12.970   0.907   1.571 -0.1860  0.2313  0.2042
 3742W        W19211   5.640   8.623   3.083  0.4734  0.0203  0.2152
 3743W        W19212  13.648  15.021  11.221  0.1312  0.0053 -0.1054
 3744W        W19213   4.767   4.722  15.351 -0.3155 -0.0642 -0.1093
 3745W        W19214  14.527  17.479  12.215  0.2983 -0.1431  0.0993
 3746W        W19215  16.096   4.157  11.853 -0.2581  0.0576  0.1849
 3747W        W19216  13.355   7.726  12.222  0.0138 -0.2846 -0.1752
 3748W        W19217  14.816  11.430  14.239  0.0248 -0.1451  0.0395
 3749W        W19218  13.295   4.378  14.877  0.2648  0.0876  0.1767
 3750W        W19219   2.610   7.746  12.717 -0.2608 -0.0004 -0.0653
 3751W        W19220  12.845   1.255  15.100 -0.0304  0.0422 -0.1178
 3752W        W19221   0.032  18.440  12.924 -0.1861  0.1986 -0.0929
 3753W        W19222  12.127   4.654   3.744 -0.0389  0.1636 -0.0501
 3754W        W19223   7.419  13.545   2.522 -0.1289 -0.3798 -0.1857
 3755W        W19224   5.839  14.360   2.069  0.1152 -0.1433 -0.0808
 3756W        W19225   1.038   7.173  12.489 -0.0644  0.1820  0.0864
 3757W        W19226   3.476  16.333   2.885  0.3316  0.2586  0.3292
 3758W        W19227   0.090  16.394   3.744 -0.1360 -0.1473  0.2993
 3759W        W19228  15.080   6.626   3.544  0.0829  0.0681  0.0155
 3760W        W19229   6.246   9.169  14.332 -0.0864 -0.3056 -0.2907
 3761W        W19230  14.637  10.763  11.339 -0.0743  0.2644  0.0103
 3762W        W19231   5.091   0.836  11.624  0.0464 -0.2216 -0.1471
 3763W        W19232  14.062   8.472   1.702 -0.0446  0.2777  0.1898
 3764W        W19233  12.963   0.509  14.402  0.0351  0.0184  0.0872
 3765W        W19234  13.297   9.217  14.254 -0.0723 -0.1571 -0.1140
 3766W        W19235   2.386   3.274  11.985 -0.0287  0.0469  0.1051
 3767W        W19236   6.301   9.157  15.598  0.1032  0.0253  0.0911
 3768W        W19237   9.532  14.334  12.048 -0.2481  0.0783 -0.0243
 3769W        W19238   9.893  16.103   1.845  0.1747  0.3182 -0.0037
 3770W        W19239   4.668   2.301   2.300  0.0870 -0.1237 -0.0151
 3771W        W19240   9.531   1.015  14.090 -0.0380 -0.0980  0.0859
 3772W        W19241   9.753   9.056   5.228 -0.0565  0.0311  0.0571
 3773W        W19242  10.240   8.813  14.806  0.0380 -0.0247  0.0242
 3774W        W19243   0.921   6.395   4.566 -0.2314  0.2504  0.0760
 3775W        W19244  10.253  11.505  12.027 -0.3166  0.0840  0.3139
 3776W        W19245   2.113   7.915  11.802 -0.0083  0.0197  0.1001
 3777W        W19246   2.614   1.696  13.255  0.0130 -0.0332 -0.0700
 3778W        W19247   1.697   9.246   9.945  0.0925 -0.3192  0.0119
 3779W        W19248   8.119  13.953   1.485 -0.0881  0.2838 -0.1176
 3780W        W19249   3.539  18.315  15.120  0.3772  0.0833  0.1222
 3781W        W19250  17.362   1.443  12.524 -0.0494  0.0399 -0.1127
 3782W        W19251   0.120  17.823   4.371 -0.0355 -0.0187 -0.0110
 3783W        W19252   2.667   9.583  12.683 -0.3334  0.0139  0.1406
 3784W        W19253  15.754   3.164   3.263  0.2209 -0.0004 -0.1326
 3785W        W19254  11.075   0.400  14.518  0.0091  0.0296  0.0016
 3786W        W19255   8.984   2.252   0.458  0.0561  0.2982  0.2024
 3787W        W19256  10.623   1.427   5.354 -0.0290 -0.2308 -0.1329
 3788W        W19257   7.482   2.899   2.850 -0.0464 -0.0698  0.0426
 3789W        W19258  17.362  14.786   5.384  0.3735  0.2816 -0.2282
 3790W        W19259   1.891  14.000  12.127  0.0642  0.2752 -0.0569
 3791W        W19260   4.231  16.296   1.450  0.2574  0.0229 -0.0025
 3792W        W19261   5.075  11.596  12.211  0.1077 -0.0012  0.1275
 3793W        W19262   3.377  10.762   5.096  0.0836  0.0591 -0.1353
 3794W        W19263   7.479  13.178  11.342 -0.1572 -0.1889  0.0033
 3795W        W19264   0.615   8.015   3.481 -0.1256  0.0311  0.0489
 3796W        W19265  15.946   2.413  13.887  0.1950 -0.4525 -0.1527
 3797W        W19266   4.992   7.100   0.886 -0.1592  0.0655  0.2773
 3798W        W19267  18.163  12.551  15.770  0.0795  0.1584  0.3689
 3799W        W19268  13.330  12.092  13.772  0.1063 -0.0539 -0.2855
 3800W        W19269  17.605   8.389   1.248  0.0773 -0.0889 -0.1185
 3801W        W19270   4.418   4.526   2.658 -0.0960  0.3048 -0.1308
 3802W        W19271   1.063   4.689   3.419 -0.2420 -0.1660 -0.1647
 3803W        W19272  12.571   5.617   3.741  0.3811  0.0820  0.0088
 3804W        W19273   3.153   3.598  15.385  0.0230 -0.0427 -0.1856
 3805W        W19274   0.407   0.110   1.528  0.0273  0.1912 -0.0096
 3806W        W19275   6.232   2.379   0.409 -0.1194  0.4047  0.1206
 3807W        W19276  17.567   6.138  12.387  0.1680  0.0985 -0.0892
 3808W        W19277   2.317  11.139  11.332  0.2807 -0.2301  0.0703
 3809W        W19278   9.224   7.836   1.323 -0.0199 -0.0925  0.0252
 3810W        W19279   1.056   0.278  12.814  0.0249 -0.2034 -0.1896
 3811W        W19280   4.167   2.655  11.819 -0.3055  0.1081 -0.1500
 3812W        W19281  17.256   8.905   3.973 -0.1006 -0.2550 -0.4223
 3813W        W19282   1.073  11.867  10.532 -0.1538  0.1697 -0.1093
 3814W        W19283  17.877   1.717  11.091 -0.1043  0.2894  0.0090
 3815W        W19284  11.845   1.565   2.074 -0.3238  0.0622 -0.2795
 3816W        W19285   0.732  14.501   2.874 -0.1756 -0.0753 -0.3657
 3817W        W19286  12.706  12.768   4.284  0.0380  0.2693 -0.0627
 3818W        W19287   8.090  14.401   3.538 -0.0192  0.0808 -0.0125
 3819W        W19288   7.342   3.316   4.491  0.0581  0.2969  0.0153
 3820W        W19289   2.118   3.665   4.709 -0.2709 -0.0477 -0.0276
 3821W        W19290   3.545   3.783  13.091  0.0246 -0.1130  0.3930
 3822W        W19291  12.127   2.706   1.322  0.7079  0.2696  0.0989
 3823W        W19292   4.855   1.051  10.216  0.3618  0.0651  0.1603
 3824W        W19293  12.420  12.036  14.431 -0.0608 -0.1959  0.0620
 3825W        W19294  10.887   9.009   2.141  0.1817  0.1506  0.2009
 3826W        W19295   6.547   4.481  14.647  0.1046 -0.1753  0.0262
 3827W        W19296   3.019  14.362  13.608  0.1840  0.1979  0.0013
 3828W        W19297   0.936   6.531   0.397  0.0511 -0.2207  0.0112
 3829W        W19298   3.836   1.367   0.976 -0.2647 -0.2210 -0.0464
 3830W        W19299   6.051   8.965   2.200 -0.0548 -0.2968  0.0823
 3831W        W19300  14.493   2.541   1.960  0.1634  0.2593  0.0996
 3832W        W19301   9.971   1.690  10.737 -0.1260  0.0641  0.3144
 3833W        W19302  11.041  12.048   5.634 -0.1415 -0.1146 -0.3237
 3834W        W19303   4.248   5.775   2.796  0.1362  0.0506 -0.1653
 3835W        W19304   8.361  13.742   9.919  0.0611  0.1135 -0.1198
 3836W        W19305   8.732  15.708   0.361 -0.2461  0.1251  0.0131
 3837W        W19306  18.554  14.191   1.680  0.2239  0.0494  0.1126
 3838W        W19307  14.970   8.020  14.353 -0.0657 -0.0107  0.0372
 3839W        W19308   6.379  18.623  13.718  0.3654 -0.1627 -0.2285
 3840W        W19309   9.912  11.022   3.669 -0.2307 -0.2199 -0.1799
 3841W        W19310   3.180  17.367   0.447  0.0963 -0.0509 -0.1301
 3842W        W19311   1.839  11.881  14.138 -0.0109 -0.2331 -0.2997
 3843W        W19312   4.954   6.154   1.782  0.0905  0.1612 -0.0201
 3844W        W19313   5.071  11.520   0.929  0.0555  0.1685 -0.1794
 3845W        W19314   6.638   2.408   5.533  0.2506  0.3389 -0.3849
 3846W        W19315  10.232   7.464  15.187  0.1086 -0.1273 -0.0457
 3847W        W19316  13.991   0.211   5.475  0.0478  0.1818  0.4876
 3848W        W19317   8.263  18.547   2.816 -0.1036  0.2626  0.1539
 3849W        W19318   1.948  10.750  10.634  0.3606 -0.1991 -0.2421
 3850W        W19319   8.849   6.971   5.332  0.0664  0.0106  0.1460
 3851W        W19320   0.675  16.314   5.303 -0.1877 -0.0405 -0.0152
 3852W        W19321   3.234  15.618   5.280  0.5815 -0.1858 -0.2454
 3853W        W19322   1.418  15.068  15.666 -0.1221 -0.0891 -0.0792
 3854W        W19323   3.988  11.569  14.776 -0.2649 -0.2179  0.1645
 3855W        W19324  18.337  14.990   3.582  0.0294  0.4299  0.1047
 3856W        W19325   2.482   7.010   1.930  0.1470  0.2695 -0.1323
 3857W        W19326   1.276  13.756  14.614 -0.1425  0.0677 -0.0372
 3858W        W19327  14.776  10.220  11.405 -0.0310 -0.1817  0.0158
 3859W        W19328   3.036   3.647   0.723 -0.0348 -0.0638  0.1443
 3860W        W19329   6.057   8.592   1.774 -0.0708  0.0456 -0.1518
 3861W        W19330   0.500   7.884   0.699  0.1264 -0.0693 -0.4515
 3862W        W19331  10.230   8.468   2.622  0.0749  0.0335 -0.0554
 3863W        W19332   8.874   9.420  13.686  0.5560  0.2162 -0.0077
 3864W        W19333  15.588  10.429   2.753  0.1921 -0.0348 -0.1397
 3865W        W19334  18.331  13.227  11.800  0.2133 -0.1768  0.1378
 3866W        W19335  10.401  12.334   1.808 -0.1008 -0.0586  0.0409
 3867W        W19336  17.658   1.711   4.529  0.1516 -0.1112 -0.1211
 3868W        W19337  15.509  11.772  12.425 -0.0026 -0.2478 -0.0801
 3869W        W19338  13.844  18.204  15.088  0.0538  0.3403  0.3128
 3870W        W19339  13.938  15.837   3.354 -0.0093  0.1936 -0.0144
 3871W        W19340   5.083  18.214  11.389 -0.0294  0.0727 -0.0258
 3872W        W19341  12.771   3.870  11.873 -0.2883 -0.2012  0.2285
 3873W        W19342   3.109   3.780  14.266  0.1318 -0.0761 -0.3030
 3874W        W19343  18.118   1.939   4.343  0.2066  0.0869  0.1512
 3875W        W19344   0.874  12.883   5.065  0.3270 -0.2300  0.0287
 3876W        W19345  14.389   5.745  14.213 -0.0837  0.1665  0.1653
 3877W        W19346   3.074  17.878  10.646  0.0415 -0.0715  0.1750
 3878W        W19347   2.551   0.755  14.585 -0.2912 -0.3425 -0.1108
 3879W        W19348   7.252  10.202   3.461 -0.0972  0.0016 -0.2212
 3880W        W19349   8.954   1.537  10.990  0.0505  0.1515  0.0950
 3881W        W19350   1.063   0.705   3.106  0.2003  0.2393  0.0076
 3882W        W19351   3.134   0.851  10.456  0.2555 -0.1573  0.0580
 3883W        W19352  14.126   3.290  10.820  0.1422  0.2059  0.0565
 3884W        W19353  11.699  17.784   0.562  0.0264  0.3448 -0.2649
 3885W        W19354   4.553   7.861   4.102 -0.0506  0.0984  0.1818
 3886W        W19355  17.023   1.744   4.725  0.0197 -0.2322  0.2455
 3887W        W19356   1.153   0.368  11.708 -0.1158  0.3120 -0.0698
 3888W        W19357   0.795   4.691   4.799  0.0075 -0.0566  0.0176
 3889W        W19358   0.452   0.890   0.548  0.3809 -0.1187  0.2813
 3890W        W19359   9.974   0.504   4.604 -0.0650  0.1940  0.2695
 3891W        W19360  17.320  11.106   1.091  0.1725 -0.0528 -0.3274
 3892W        W19361   7.191   0.819   4.800  0.0301  0.4126 -0.1280
 3893W        W19362   3.113  11.978  14.453 -0.0770  0.1422 -0.2504
 3894W        W19363  16.990  11.489   1.332 -0.1287 -0.3133 -0.1888
 3895W        W19364  15.354   9.309   0.866  0.2198 -0.0986  0.0334
 3896W        W19365   7.534  16.360   1.591  0.0245  0.1598 -0.0119
 3897W        W19366   6.677  15.126  11.138 -0.2493  0.0282  0.1440
 3898W        W19367  12.754   7.144  11.265 -0.2201 -0.2101  0.2786
 3899W        W19368  13.364   4.445   0.820  0.0380  0.3869 -0.1903
 3900W        W19369   9.462  16.060  12.808 -0.0421 -0.1845 -0.0044
 3901W        W19370   0.707   3.422   0.970  0.0432 -0.1007  0.2257
 3902W        W19371  14.934   0.657   0.266  0.0036 -0.0774 -0.1662
 3903W        W19372   6.844  16.849  13.358 -0.0273 -0.2370  0.0312
 3904W        W19373   7.109   0.923   2.303 -0.0211 -0.3765 -0.1176
 3905W        W19374  17.357  13.990   1.822  0.1175 -0.0802  0.1039
 3906W        W19375   0.904   7.441  11.602 -0.2118 -0.2368  0.2806
 3907W        W19376  14.086  14.448   0.526  0.2940  0.1476  0.2001
 3908W        W19377   7.297   7.787   1.325  0.1969  0.1512  0.0123
 3909W        W19378  17.904  15.294   3.852 -0.0412  0.0007 -0.3019
 3910W        W19379  15.997   3.606   5.286 -0.1049  0.1176  0.2654
 3911W        W19380   2.282   6.712  12.756 -0.0313 -0.0849  0.0934
 3912W        W19381  14.382   5.740  11.688  0.0570 -0.1122  0.0069
 3913W        W19382  12.084  12.099  11.434  0.1723  0.2073 -0.0440
 3914W        W19383  12.533  18.655   2.296  0.1692 -0.1903 -0.1603
 3915W        W19384  16.784   3.505   2.576  0.1009  0.2111  0.1353
 3916W        W19385  18.628   0.986   1.935  0.2485 -0.3130 -0.0275
 3917W        W19386   1.865   0.993   1.649 -0.0471 -0.0198  0.1032
 3918W        W19387   1.682  12.765  15.575  0.0263 -0.1363  0.1365
 3919W        W19388   4.894  10.483   5.017 -0.0784 -0.0646 -0.0337
 3920W        W19389  13.193   2.288  10.962  0.4900  0.2468 -0.0183
 3921W        W19390   3.481   4.998  13.437  0.0446 -0.0268  0.1566
 3922W        W19391  12.967  11.933   2.340 -0.2038  0.0555 -0.1543
 3923W        W19392  13.783  14.676  11.619  0.1084  0.1063  0.2411
 3924W        W19393   4.478   9.821  14.963  0.0469 -0.1839 -0.2883
 3925W        W19394  17.308   1.831  14.831 -0.2848  0.1322 -0.0615
 3926W        W19395   3.822  15.388   2.947 -0.2728 -0.1041  0.0585
 3927W        W19396  12.602   9.008   2.705  0.0228 -0.3121 -0.1654
 3928W        W19397  13.514  13.243  12.333  0.0811 -0.3809 -0.0620
 3929W        W19398  13.102   5.837   3.023 -0.1976  0.0432  0.0544
 3930W        W19399  13.806   7.415  13.322 -0.1575  0.0864 -0.0683
 3931W        W19400   4.830   8.315   3.858  0.0043 -0.1256  0.0786
 3932W        W19401   9.781  10.038  12.264  0.1867  0.0969 -0.2898
 3933W        W19402   1.445   7.114  12.768 -0.0659  0.0192 -0.2345
 3934W        W19403  15.430  16.596   0.115 -0.0253  0.1049  0.2003
 3935W        W19404   5.309   5.595  13.130  0.0450  0.0807  0.1361
 3936W        W19405   2.718  16.606   3.930  0.0244 -0.3048 -0.1846
 3937W        W19406   2.087   1.791  15.460 -0.3306  0.1439  0.0336
 3938W        W19407  16.806   9.001   1.787  0.1887  0.0409  0.1032
 3939W        W19408  17.898  15.286   2.035  0.1260 -0.0723 -0.0179
 3940W        W19409   5.798  15.408  13.477 -0.0642 -0.1600  0.1054
 3941W        W19410   9.261  18.264  11.759  0.2697  0.1310  0.3657
 3942W        W19411  14.732   3.180   4.077  0.1742  0.1884 -0.1403
 3943W        W19412   7.745   0.525  13.742 -0.0436  0.1174 -0.2546
 3944W        W19413   2.775   8.737   3.220  0.0958  0.2578 -0.1055
 3945W        W19414  16.682   8.044  10.516 -0.2029  0.0047 -0.4044
 3946W        W19415  12.092  10.210   4.920 -0.2507 -0.1756  0.1400
 3947W        W19416  12.098   8.241   2.626  0.0792 -0.0139  0.1633
 3948W        W19417  17.272  17.405   1.296  0.1206 -0.0150 -0.0722
 3949W        W19418   3.097   8.001  12.434  0.1231  0.0892  0.0697
 3950W        W19419  12.881  12.043  14.713 -0.1553 -0.2503  0.1700
 3951W        W19420  15.030   8.558   9.970 -0.4840 -0.0588 -0.1698
 3952W        W19421   8.108   3.563  11.960  0.1044 -0.0354 -0.2342
 3953W        W19422   5.003  13.393  13.578 -0.0012  0.0914  0.0251
 3954W        W19423  11.619  17.095   0.278 -0.0209  0.1621 -0.5880
 3955W        W19424   3.370  11.792  10.876  0.2293 -0.0914  0.3003
 3956W        W19425   6.911   2.218  13.607  0.1272  0.1504 -0.2846
 3957W        W19426  11.492   6.535   2.150  0.1030  0.1434  0.0261
 3958W        W19427  14.671  13.820  14.439 -0.1540  0.2523 -0.0826
 3959W        W19428   8.600   1.416   5.405  0.1205 -0.1555 -0.1858
 3960W        W19429   5.920  16.900  12.757  0.1359 -0.2297  0.0422
 3961W        W19430  16.386   4.364   2.813 -0.1229 -0.2323 -0.2792
 3962W        W19431   5.826   8.452  14.640  0.1282 -0.2584 -0.0419
 3963W        W19432   0.098   4.520  13.840  0.1734  0.0194 -0.2312
 3964W        W19433   4.601  18.191  11.096 -0.1433 -0.2274 -0.0906
 3965W        W19434   2.276  12.899   0.554  0.1141 -0.0502 -0.1356
 3966W        W19435   6.294  10.239  14.336 -0.1775  0.1085  0.0302
 3967W        W19436   9.712   1.827  11.486  0.2797  0.0248  0.0286
 3968W        W19437   2.345   5.386   3.356 -0.1961  0.0406 -0.1560
 3969W        W19438  12.536   9.243   0.386 -0.2162  0.0075 -0.0838
 3970W        W19439  17.615   1.675  14.500 -0.2371 -0.2604 -0.0867
 3971W        W19440   6.605  13.710  14.295 -0.0119 -0.1484  0.3664
 3972W        W19441  12.685  11.631  14.523 -0.1992  0.0571  0.1453
 3973W        W19442  10.319  13.765  11.476 -0.4392 -0.1488 -0.0593
 3974W        W19443   2.401  13.232   5.165  0.0050  0.1806 -0.1283
 3975W        W19444   9.949  14.356  13.988  0.3613  0.1015 -0.0344
 3976W        W19445   9.432  15.054  11.459  0.0239 -0.0603  0.2062
 3977W        W19446   9.255   3.315  12.796  0.1883  0.0605  0.2325
 3978W        W19447  12.781  12.719   4.835 -0.2769 -0.2043  0.0890
 3979W        W19448   1.969  10.017   4.405  0.1502  0.0198  0.1886
 3980W        W19449  11.236  10.760   4.654 -0.3355  0.1009 -0.3379
 3981W        W19450  10.773  10.824   0.806 -0.0017  0.0813  0.3028
 3982W        W19451  12.092  13.677   5.713  0.3087  0.0287  0.1128
 3983W        W19452   2.014  11.716   2.359 -0.1039 -0.3441 -0.0471
 3984W        W19453   5.451  13.036   1.067  0.2087 -0.0098 -0.0158
 3985W        W19454   5.041   7.669  14.252 -0.1178 -0.0124  0.1905
 3986W        W19455  15.945  14.928   0.131  0.0559  0.0406 -0.2317
 3987W        W19456  18.361   6.778  13.466  0.0342 -0.0538 -0.0733
 3988W        W19457   7.302   0.532  11.295 -0.2316  0.1713 -0.0088
 3989W        W19458  15.700   4.519   1.399  0.2141  0.0984  0.2826
 3990W        W19459  14.712   9.922   5.310  0.0465  0.0913  0.1948
 3991W        W19460  14.185   5.626   3.881 -0.0143  0.2300  0.1948
 3992W        W19461   0.657   9.057   2.783  0.2204 -0.1080  0.2667
 3993W        W19462   1.336  12.765   3.002  0.0606 -0.3362  0.0323
 3994W        W19463   6.471   7.783   2.149 -0.1221 -0.1394 -0.0255
 3995W        W19464   7.734   3.927   0.487  0.3809  0.0461 -0.2032
 3996W        W19465   5.189  12.949   0.161 -0.3482 -0.0540  0.2982
 3997W        W19466   4.393   1.265   2.258 -0.0191 -0.0900  0.2956
 3998W        W19467   8.250  12.334   5.968 -0.3671 -0.0550  0.0740
 3999W        W19468   8.137   4.070  13.620 -0.0045  0.1995 -0.1206
 4000W        W19469   5.396  16.919  15.697  0.3126  0.2041  0.2018
 4001W        W19470   8.727   3.093   4.596 -0.2004  0.1143  0.1298
 4002W        W19471  17.736  15.696   3.434  0.0414  0.1034  0.5051
 4003W        W19472  11.856   5.132   0.731 -0.2782 -0.0794 -0.3677
 4004W        W19473  16.682   1.197  15.000  0.4070  0.1705 -0.0370
 4005W        W19474  17.774  11.094   4.046 -0.2027 -0.1826 -0.0143
 4006W        W19475   1.443   4.333  13.665 -0.2082 -0.0777  0.0082
 4007W        W19476   6.297   8.333   3.440  0.2918  0.2125 -0.2951
 4008W        W19477   3.127  18.373   2.592  0.0077  0.2054  0.2808
 4009W        W19478   9.231   7.274  10.629 -0.1264  0.2446 -0.0755
 4010W        W19479  13.543  14.136  10.904 -0.0576  0.0842  0.2837
 4011W        W19480  16.561  13.326   3.907 -0.3406  0.4027  0.3678
 4012W        W19481   7.339  16.344  13.581 -0.2328  0.1038 -0.0144
 4013W        W19482  16.434  16.674  14.887 -0.3369  0.0325  0.2279
 4014W        W19483   9.975   1.687   4.660 -0.0090 -0.1669  0.0269
 4015W        W19484   4.983  18.095   3.688  0.1480  0.1830  0.0164
 4016W        W19485  12.538  13.356  12.366  0.2112 -0.0799 -0.2571
 4017W        W19486  13.644  11.753  10.267  0.0415 -0.0804  0.0371
 4018W        W19487  13.169  16.537   0.601  0.1242  0.1774 -0.0333
 4019W        W19488  10.816   3.142   4.141  0.1856  0.3071 -0.0753
 4020W        W19489  15.573  15.673   5.072 -0.1422 -0.0449 -0.0360
 4021W        W19490   0.587  10.343  13.645  0.0019  0.0733  0.3085
 4022W        W19491  11.609  17.595  10.774 -0.0514 -0.0038  0.0854
 4023W        W19492   5.535   1.014  15.664 -0.4084 -0.1647  0.2397
 4024W        W19493   1.228   3.937   5.513 -0.2424  0.2633 -0.2014
 4025W        W19494  10.580   6.076  10.487  0.0527 -0.0806  0.0701
 4026W        W19495   1.164   3.920  11.793  0.1356 -0.0050 -0.0952
 4027W        W19496  15.745   2.780  14.243 -0.0483 -0.1874 -0.3432
 4028W        W19497   2.822  14.361   4.767  0.1987  0.0500  0.0380
 4029W        W19498  16.683   9.139   9.989 -0.0870 -0.3836  0.0879
 4030W        W19499   8.384   5.253   0.433  0.3571  0.2170 -0.2245
 4031W        W19500   2.403  16.340  10.527 -0.0904 -0.1701  0.2514
 4032W        W19501  11.667   1.544   2.918  0.5154 -0.1826  0.1845
 4033W        W19502  16.504   8.681  15.177 -0.3494 -0.2116  0.1376
 4034W        W19503  11.917  12.147   0.918 -0.0576 -0.0328  0.3368
 4035W        W19504   4.703  15.757  14.042 -0.0506 -0.0715  0.1219
 4036W        W19505  14.377   3.383   4.400 -0.1041 -0.1609  0.0121
 4037W        W19506  12.161   8.267   0.344  0.1812  0.1144  0.0059
 4038W        W19507   1.530  12.363   5.206  0.1634 -0.0991 -0.1951
 4039W        W19508  16.818  16.589   4.558 -0.1323  0.0895 -0.3931
 4040W        W19509  16.962  12.288  11.296 -0.0166  0.1203  0.0513
 4041W        W19510   2.651   8.187  14.623  0.0069  0.4308 -0.0452
 4042W        W19511  14.157   4.806   4.285 -0.1706  0.0025  0.2770
 4043W        W19512   9.032  14.551   2.376 -0.2380 -0.0254 -0.3252
 4044W        W19513  14.634  12.078   4.135 -0.2697  0.0753 -0.2474
 4045W        W19514   1.031   0.923  12.216  0.0954 -0.0170  0.2052
 4046W        W19515  18.245  11.657  12.063 -0.1440  0.0797  0.1586
 4047W        W19516   7.982   3.519  15.355  0.1826  0.5105 -0.2144
 4048W        W19517   7.498  12.106   1.964  0.1033  0.2737  0.1197
 4049W        W19518  11.657   0.191  10.586 -0.1761 -0.1279 -0.2101
 4050W        W19519  12.722  10.031  13.252  0.2574  0.0919  0.1285
 4051W        W19520   9.545  14.228  15.475 -0.0075 -0.0312 -0.1827
 4052W        W19521  12.121  17.005  12.374 -0.1229 -0.1937 -0.1056
 4053W        W19522   5.430  12.401   2.561  0.3476 -0.0888  0.0063
 4054W        W19523  18.270  16.080  12.589 -0.0335 -0.0499  0.2005
 4055W        W19524  15.781  12.033  14.532  0.0982 -0.3796 -0.0896
 4056W        W19525   7.631   0.402  14.974 -0.1027 -0.0232 -0.1108
 4057W        W19526   8.800  13.334   3.017 -0.0756  0.1698 -0.1420
 4058W        W19527   4.048   4.022   0.012  0.0553 -0.0500 -0.1535
 4059W        W19528  15.569   3.472   5.578  0.0296  0.0878 -0.1615
 4060W        W19529   8.434   1.908  12.069 -0.1458  0.1995 -0.0686
 4061W        W19530  18.585   0.559   3.481  0.3775 -0.2857 -0.1560
 4062W        W19531  15.410  17.764  12.957  0.1586 -0.4194 -0.0337
 4063W        W19532  16.334   6.021   2.725 -0.1898 -0.1014  0.2471
 4064W        W19533   9.186   6.244  15.454 -0.0193 -0.1545  0.0861
 4065W        W19534  16.220  11.628  15.541 -0.0991  0.0883 -0.2112
 4066W        W19535  11.124   4.106   1.139 -0.1256 -0.1940  0.1151
 4067W        W19536   3.345   8.208   1.106  0.4356 -0.0759  0.0467
 4068W        W19537  16.497  16.262  15.270  0.1070 -0.3560 -0.0817
 4069W        W19538  16.826   3.773   1.799 -0.1076 -0.0854  0.0097
 4070W        W19539  12.647  18.244   0.612 -0.0843 -0.0300  0.0732
 4071W        W19540   8.528   9.662  12.733  0.2366 -0.1425 -0.0156
 4072W        W19541   1.063   1.179  10.474  0.0995 -0.1494  0.0199
 4073W        W19542   5.955   9.012  11.377 -0.0173 -0.0071 -0.1681
 4074W        W19543   8.365   0.200   1.277  0.1820 -0.1728 -0.1389
 4075W        W19544   6.911   5.081  11.401 -0.2207  0.3961 -0.2211
 4076W        W19545   7.246   4.332  10.955  0.0773  0.3860 -0.1071
 4077W        W19546  18.602   2.254  11.845 -0.2597  0.1584 -0.0133
 4078W        W19547   0.523   8.499   3.162 -0.1995  0.0197  0.1138
 4079W        W19548   9.637   5.566  15.306  0.1837 -0.0149 -0.1788
 4080W        W19549  17.207  16.661  11.903  0.0667  0.1372 -0.0657
 4081W        W19550   3.042   4.627  15.717 -0.1139  0.1358 -0.0650
 4082W        W19551  17.387   6.927   0.084  0.0197  0.1882 -0.4013
 4083W        W19552  15.194   2.959   0.822  0.2199 -0.0077  0.0778
 4084W        W19553   8.070   6.606  11.261  0.0020  0.3114 -0.3081
 4085W        W19554  16.243   9.983  15.303 -0.1718 -0.2945  0.2638
 4086W        W19555   2.227  10.875  13.815  0.4087 -0.2012  0.2029
 4087W        W19556  17.139   7.529   4.722 -0.2676 -0.1225  0.0566
 4088W        W19557  11.966   4.615   0.074  0.3899 -0.1049  0.1272
 4089W        W19558   1.904  12.940   1.772  0.1000  0.0630  0.1076
 4090W        W19559  12.278  11.855  12.868 -0.2051  0.2173  0.3519
 4091W        W19560  18.643  11.455   5.223  0.0512  0.0709 -0.0873
 4092W        W19561   1.857  13.855   5.920  0.0926  0.0468 -0.1291
 4093W        W19562  13.225   7.730  13.287  0.2597 -0.4735 -0.1306
 4094W        W19563  13.514  15.774  15.747  0.2177  0.1915 -0.4593
 4095W        W19564   8.574   8.157   3.011  0.0161 -0.2291 -0.1238
 4096W        W19565  13.044   3.910   0.324  0.0984  0.1815  0.1116
 4097W        W19566  17.828   7.455  14.761  0.1623 -0.0408  0.0151
 4098W        W19567  13.801  12.779  13.364 -0.0608  0.4047  0.0989
 4099W        W19568  13.056   1.406  12.001 -0.0550 -0.1592  0.2303
 4100W        W19569   8.086  11.609  12.735 -0.2492  0.1105 -0.1948
 4101W        W19570  12.321  10.810  14.751  0.0194 -0.3825  0.1357
 4102W        W19571   6.601   6.942   0.335  0.2900 -0.0868 -0.1295
 4103W        W19572   9.592  11.487  15.021  0.0938  0.0716 -0.2462
 4104W        W19573   7.498   8.273  10.745 -0.1088  0.1531  0.2204
 4105W        W19574   7.970   3.653  13.285  0.1876 -0.1767  0.2563
 4106W        W19575   8.655   0.337  14.847  0.0973 -0.1555 -0.1798
 4107W        W19576   4.624   7.584  14.712 -0.1047  0.2037 -0.1497
 4108W        W19577  10.609   7.213  11.813 -0.2758  0.1442  0.1748
 4109W        W19578  11.367  13.449   5.034  0.2304  0.3052 -0.0163
 4110W        W19579  15.375  14.035  15.419 -0.1964 -0.1704 -0.3429
 4111W        W19580  15.568   3.957   5.224 -0.0883 -0.1137 -0.3074
 4112W        W19581  16.406   7.352   2.733  0.0905  0.0290 -0.2918
 4113W        W19582  16.539  12.502  12.791  0.0822 -0.0446 -0.2785
 4114W        W19583   1.207  17.580  13.106  0.2284  0.1926 -0.1541
 4115W        W19584  17.686   6.025   2.818  0.2342 -0.1999  0.0516
 4116W        W19585  10.058  16.756   4.369  0.0769  0.0199 -0.1839
 4117W        W19586  17.701  18.631   1.611 -0.2416 -0.1438  0.1452
 4118W        W19587   5.751  13.007  12.395  0.3509  0.0758 -0.0011
 4119W        W19588   5.128   5.905  13.475  0.1509 -0.0427 -0.0156
 4120W        W19589  11.146  17.166   5.079  0.0667 -0.0595 -0.0803
 4121W        W19590   4.421  17.089   4.249 -0.0810 -0.0867  0.0994
 4122W        W19591  18.385  16.698  12.568  0.0572 -0.1849 -0.2975
 4123W        W19592  11.073   6.790   0.185 -0.4804  0.3401  0.1910
 4124W        W19593   3.703   5.324   3.844  0.0744  0.2488  0.2905
 4125W        W19594  12.916  17.639  11.279  0.2641  0.0320  0.2879
 4126W        W19595  14.790   2.850   9.728  0.4351 -0.0995 -0.0745
 4127W        W19596  16.818   2.824  14.103  0.0050 -0.0258  0.0051
 4128W        W19597  17.823   9.274  11.426 -0.1727 -0.3399 -0.0343
 4129W        W19598   1.958   1.242  10.041 -0.3267  0.1305 -0.0432
 4130W        W19599   1.981   9.718   1.772  0.4875  0.1399 -0.3335
 4131W        W19600  10.606   3.114   2.739  0.0859 -0.1706 -0.0593
 4132W        W19601  10.814   4.540   2.464  0.0934  0.1141  0.1868
 4133W        W19602   6.962   0.361   0.491 -0.3179 -0.1504 -0.1543
 4134W        W19603   4.332  17.714   2.432 -0.2561 -0.1109  0.2553
 4135W        W19604  13.893   5.812   0.952  0.1006  0.0359  0.0192
 4136W        W19605  18.628   3.997   0.256  0.0735  0.0293 -0.0695
 4137W        W19606   2.737  12.138  15.534  0.1178  0.0870 -0.3565
 4138W        W19607   2.501   2.121   4.368 -0.0304  0.3530 -0.3862
 4139W        W19608   3.981   1.773   9.735 -0.1846 -0.0773  0.1436
 4140W        W19609   1.312   7.210   1.025 -0.0312  0.0296 -0.2181
 4141W        W19610   7.606  13.541   2.010 -0.0618  0.0752 -0.2766
 4142W        W19611   3.616   5.270   9.849  0.2856 -0.0628 -0.2307
 4143W        W19612  12.711  17.924   2.874  0.0332  0.0968  0.1508
 4144W        W19613  14.599  13.728   2.657 -0.1519 -0.1520 -0.1660
 4145W        W19614   8.643  17.740  12.366 -0.0133  0.1072  0.6788
 4146W        W19615   9.093  13.193  10.911  0.1073  0.2345 -0.3323
 4147W        W19616   2.344  10.450   4.989 -0.0065  0.1803 -0.2456
 4148W        W19617   5.971   3.492  13.062 -0.0723  0.1625 -0.0848
 4149W        W19618   5.588   6.935  13.639 -0.2595  0.0225  0.1740
 4150W        W19619  14.324   0.159   2.823 -0.0587  0.1944  0.0265
 4151W        W19620   5.965  13.023  14.919 -0.1815  0.1345 -0.0153
 4152W        W19621   1.472  10.413   1.335 -0.0226  0.0733 -0.1329
 4153W        W19622   8.737  17.754   4.538  0.1133  0.0334 -0.2157
 4154W        W19623   6.763  12.866   2.376 -0.0047  0.0013 -0.0346
 4155W        W19624   2.532   0.996  10.740 -0.1089  0.3630  0.0682
 4156W        W19625   5.280  12.045   0.230  0.1424 -0.0551 -0.0218
 4157W        W19626  16.447   3.908  12.550  0.0865 -0.2102  0.2736
 4158W        W19627  16.518   7.204  15.458  0.0171  0.1662  0.0744
 4159W        W19628   4.540  13.373  12.096 -0.2890  0.1282  0.0985
 4160W        W19629  14.694  18.418   3.707 -0.1843  0.0797  0.0877
 4161W        W19630   7.649   7.835  11.018 -0.2449 -0.0351  0.0423
 4162W        W19631   6.536   4.016   4.660  0.1104 -0.2599  0.1217
 4163W        W19632   6.358   8.305  10.720 -0.2461 -0.1050  0.1890
 4164W        W19633  11.102   5.953  11.878 -0.4601  0.2121 -0.4134
 4165W        W19634   2.864  12.202   2.939  0.1390  0.0567  0.4687
 4166W        W19635   4.013  14.687  15.327  0.3950 -0.1630 -0.0522
 4167W        W19636   2.164  14.691   1.884  0.2921 -0.1640 -0.2076
 4168W        W19637  14.281  11.236   0.273  0.3996  0.1299 -0.0186
 4169W        W19638   6.598   4.312   3.670 -0.1673  0.2434 -0.3423
 4170W        W19639  17.031  10.873   1.454  0.0959 -0.2053  0.4218
 4171W        W19640  12.472   8.578   4.347  0.1289 -0.1983  0.1804
 4172W        W19641   6.161   5.599  13.302  0.0022  0.0233 -0.1944
 4173W        W19642   0.029  12.130  10.853  0.0680 -0.1413  0.1657
 4174W        W19643  11.380   9.923   2.224  0.2070 -0.0785  0.4233
 4175W        W19644  16.551  16.764   2.278  0.2125  0.1587  0.1583
 4176W        W19645   6.217  16.327   0.236  0.0578 -0.0708  0.1297
 4177W        W19646  11.280  10.995   3.746  0.0356  0.0294  0.1387
 4178W        W19647  15.263  18.677   1.380  0.4099  0.2538 -0.2694
 4179W        W19648  17.985   7.819   3.733  0.2651 -0.1177  0.2242
 4180W        W19649   8.609  17.356   3.945  0.3196  0.1515  0.3029
 4181W        W19650  10.289  15.316   5.869  0.1554 -0.0580 -0.3347
 4182W        W19651   3.763  18.531   0.712 -0.1456  0.1309  0.0526
 4183W        W19652  12.952   0.993   0.085 -0.1887 -0.0708 -0.2501
 4184W        W19653   8.691   6.540  12.184 -0.0812 -0.2440 -0.1376
 4185W        W19654  16.921   3.708  12.411  0.1363 -0.0759  0.0359
 4186W        W19655  11.829   8.800  13.951  0.0996 -0.0472 -0.4705
 4187W        W19656  10.907  13.030   2.691  0.0178 -0.2448 -0.0932
 4188W        W19657   7.838  13.959   3.784 -0.1572 -0.3046  0.1015
 4189W        W19658  12.300  12.786   1.290  0.0589 -0.3327 -0.1330
 4190W        W19659  12.379   7.861   0.007  0.0252 -0.2383 -0.2152
 4191W        W19660   1.045   2.294   5.449  0.3082 -0.2884  0.0757
 4192W        W19661   9.431   4.253   5.144 -0.1827  0.1122  0.1251
 4193W        W19662   2.284  14.381   0.595  0.2204 -0.0689  0.0766
 4194W        W19663   9.028  11.876   5.050  0.0522  0.1356 -0.0385
 4195W        W19664  17.280   5.601  15.191 -0.0076  0.3311  0.3446
 4196W        W19665  11.701   7.102   5.283  0.1595 -0.1045  0.0214
 4197W        W19666   3.591   5.240   1.271 -0.1589 -0.0937  0.1887
 4198W        W19667   3.881  12.773  12.473 -0.0111  0.0580  0.2906
 4199W        W19668  14.055   8.048   1.444 -0.3143 -0.0439 -0.1858
 4200W        W19669   2.440   6.773   9.746  0.1084  0.0783  0.0721
 4201W        W19670  12.643   2.756  14.657  0.0358 -0.0694  0.0334
 4202W        W19671  16.367   2.431   0.076  0.2801 -0.1707 -0.0112
 4203W        W19672  12.356   6.609  11.467  0.0363  0.0943  0.5054
 4204W        W19673  13.313  14.835  11.559 -0.1023 -0.1595  0.2229
 4205W        W19674  15.160  17.140  13.900  0.1019  0.0918 -0.1905
 4206W        W19675   1.964   5.246   5.465 -0.1304 -0.0022  0.1883
 4207W        W19676  16.971   0.451   0.199  0.2331  0.0177 -0.1689
 4208W        W19677  10.192   2.198   0.704  0.0114 -0.2050 -0.1936
 4209W        W19678   0.750  13.691   4.352 -0.2108  0.0454  0.2615
 4210W        W19679   4.586  13.253   5.347 -0.0165 -0.2442  0.0805
 4211W        W19680   1.226   2.021  10.608 -0.0759 -0.2855  0.1607
 4212W        W19681   1.646  17.293  11.952  0.0200  0.0332 -0.0373
 4213W        W19682  15.958  11.472  13.500 -0.1222 -0.1225  0.1895
 4214W        W19683  11.823   2.688   2.092 -0.0566 -0.0054  0.2612
 4215W        W19684   6.345  15.524  11.726  0.0064  0.0633 -0.0215
 4216W        W19685  17.473  13.475   4.197 -0.0782 -0.0076 -0.0661
 4217W        W19686   4.523   8.474   0.550 -0.0637  0.0845  0.1486
 4218W        W19687  15.678  16.086   1.492 -0.0418  0.2366  0.0971
 4219W        W19688  17.663  16.477   4.988  0.0885  0.3128 -0.5431
 4220W        W19689   7.068  18.248   2.042 -0.0267  0.0064 -0.2139
 4221W        W19690  14.091  15.351   0.253  0.3708  0.1521 -0.1252
 4222W        W19691   0.356   8.687  14.902 -0.0125  0.4868  0.3362
 4223W        W19692  15.812   0.396   0.377 -0.1824 -0.3241  0.2367
 4224W        W19693   5.296  16.985  10.416  0.0726 -0.0773  0.0620
 4225W        W19694   1.949  16.071  13.684  0.2818 -0.1154  0.0698
 4226W        W19695  10.673  17.891   5.221 -0.0159 -0.3585  0.3549
 4227W        W19696   7.031  13.829   6.049  0.0213  0.1080 -0.0603
 4228W        W19697   7.186  15.518   3.693 -0.1598  0.3215  0.0881
 4229W        W19698   9.898   1.329   3.208 -0.1543 -0.0009 -0.1653
 4230W        W19699   7.865  12.566   2.640  0.0703 -0.0213  0.1193
 4231W        W19700   4.405  16.029   4.863 -0.2263  0.3090  0.0548
 4232W        W19701  18.001  16.645   4.055  0.0344  0.1704 -0.0107
 4233W        W19702  15.924   8.970   4.328  0.1470 -0.0411  0.2850
 4234W        W19703  11.425   6.528  13.981 -0.0230 -0.0255  0.1415
 4235W        W19704   9.064   0.553  12.671 -0.0241 -0.0456 -0.0102
 4236W        W19705   4.672  11.965  13.938 -0.0349  0.0278  0.1756
 4237W        W19706  16.650   9.516   1.196  0.1953 -0.4270 -0.0980
 4238W        W19707   5.357  15.999  14.578  0.1756  0.0673  0.0213
 4239W        W19708  15.428  13.928  14.088  0.0411  0.2030  0.2024
 4240W        W19709  10.394  12.584  14.961 -0.0729  0.0939  0.1395
 4241W        W19710   1.924  16.427  14.082 -0.0258  0.2672  0.1058
 4242W        W19711   6.616   0.695  10.505 -0.3125 -0.2397 -0.2832
 4243W        W19712  11.173  14.112  11.753  0.0311  0.1705 -0.6178
 4244W        W19713   0.918   9.290   0.879 -0.0684  0.1787  0.2040
 4245W        W19714   2.155  16.497   1.432  0.4524  0.0367 -0.1536
 4246W        W19715   8.680   2.558  13.796 -0.1061  0.2141  0.2165
 4247W        W19716   6.329   9.827  15.008  0.2654  0.1774 -0.3545
 4248W        W19717   6.115   6.308  14.659  0.2751  0.1161 -0.0049
 4249W        W19718  16.188   5.988  13.820  0.0705  0.0074 -0.1520
 4250W        W19719   4.222  13.704   1.619  0.1154 -0.0027  0.1918
 4251W        W19720  16.524  12.793   3.524  0.0215  0.0392  0.0875
 4252W        W19721  14.167  11.385  10.684  0.0368 -0.5056  0.0906
 4253W        W19722   2.899  12.802  12.220 -0.0130  0.0132  0.4608
 4254W        W19723  11.321  10.150   2.716  0.1669 -0.1925 -0.2660
 4255W        W19724  16.126   3.012  15.709  0.1359  0.0299  0.1152
 4256W        W19725  18.616   8.630  12.529  0.1809 -0.3476  0.2428
 4257W        W19726  16.427  14.985   2.446 -0.1067 -0.0514 -0.0209
 4258W        W19727  17.331  12.511  15.370 -0.1128  0.0659  0.0839
 4259W        W19728   1.817  10.088  14.244 -0.1906  0.0586 -0.0437
 4260W        W19729   5.239  14.734  11.280  0.0540 -0.0302 -0.2295
 4261W        W19730   6.241  10.614   2.148 -0.2242 -0.2475  0.0390
 4262W        W19731  12.030   0.115   2.368 -0.0509 -0.0108 -0.0941
 4263W        W19732  15.561   2.183  14.131  0.1837  0.1195 -0.2441
 4264W        W19733   5.342  10.218  13.209  0.0132  0.1839  0.0773
 4265W        W19734   5.370   3.148   2.362 -0.0930  0.1625 -0.2282
 4266W        W19735   9.200   6.950   2.226 -0.0505 -0.0540  0.0676
 4267W        W19736  18.651  16.541  11.094  0.3969 -0.0555 -0.1760
 4268W        W19737   8.084  14.635   5.635  0.3351  0.1331  0.1431
 4269W        W19738   9.378  13.973  11.171  0.2538  0.0397  0.4090
 4270W        W19739   2.520   6.931  14.007 -0.1071  0.4665 -0.0553
 4271W        W19740   1.592   1.339   4.509 -0.1636 -0.0289  0.0409
 4272W        W19741  17.124  11.974   0.849 -0.0566  0.0821  0.0587
 4273W        W19742  11.113   9.441   2.470 -0.2936 -0.1083  0.1109
 4274W        W19743   1.524  10.461  14.988 -0.1193 -0.0676 -0.1390
 4275W        W19744  17.471  10.563   4.475 -0.1099 -0.1479  0.0576
 4276W        W19745  16.223   4.528   0.672  0.0624  0.3759  0.1165
 4277W        W19746  12.475   7.574  11.336  0.2647  0.0268 -0.3977
 4278W        W19747  10.954  15.947   4.728 -0.1843  0.1444 -0.0232
 4279W        W19748  13.509  13.030   1.639 -0.0338 -0.0541 -0.2106
 4280W        W19749   2.149   8.740   4.608 -0.0651 -0.0633  0.0141
 4281W        W19750  14.151   0.183  11.315 -0.2261  0.1971 -0.1534
 4282W        W19751   5.569   7.637  13.512 -0.0498 -0.4173 -0.0174
 4283W        W19752  12.630   8.285  11.711  0.2600  0.1396 -0.2297
 4284W        W19753  11.911   8.334   3.125 -0.0808  0.3578 -0.1246
 4285W        W19754   5.501  16.373   1.533  0.0221 -0.0804 -0.1784
 4286W        W19755  10.005   5.815   1.852  0.1118 -0.5183 -0.2058
 4287W        W19756  14.305  17.091   1.615 -0.1157  0.1109  0.0000
 4288W        W19757  14.098  15.819   4.845 -0.1292  0.5409 -0.0705
 4289W        W19758  13.713  11.332   2.696 -0.1547 -0.0245  0.1870
 4290W        W19759  13.907  17.983   2.442 -0.0155 -0.2518 -0.2131
 4291W        W19760  10.734   9.251  11.227 -0.0206 -0.0001  0.1285
 4292W        W19761   7.454  17.902  12.362 -0.2610  0.0494  0.0616
 4293W        W19762   0.452  17.541  13.938 -0.0598 -0.0449  0.1068
 4294W        W19763   5.821  14.207  11.364 -0.1312 -0.0419  0.1621
 4295W        W19764  12.049   0.654   2.212 -0.2265  0.6424  0.2405
 4296W        W19765  13.942  12.568   2.056 -0.0773 -0.2475  0.1487
 4297W        W19766   2.031  12.504  13.214  0.0874  0.0285 -0.2498
 4298W        W19767  12.744   7.617   1.931  0.1012  0.1497 -0.4236
 4299W        W19768   5.290  11.553  15.572 -0.2106  0.4517 -0.0694
 4300W        W19769   7.409  15.332  13.173 -0.2626 -0.0160  0.2906
 4301W        W19770  13.927   9.657  11.188  0.1571  0.0734 -0.1601
 4302W        W19771   4.358   0.389  15.708  0.2507 -0.0517  0.0690
 4303W        W19772  11.444   7.457   2.344 -0.2003 -0.0235 -0.1847
 4304W        W19773   7.695   9.342  15.049  0.3198  0.0726 -0.3976
 4305W        W19774  11.065  14.854   2.005 -0.4147 -0.0883 -0.1127
 4306W        W19775   6.628  16.417   1.398 -0.0513  0.0571 -0.1578
 4307W        W19776   5.876  18.358  15.398 -0.0388 -0.3338 -0.0532
 4308W        W19777   9.346  11.515   1.908  0.3110 -0.0076  0.0525
 4309W        W19778   8.066   7.537  13.204 -0.1478  0.4596  0.0640
 4310W        W19779  12.422   7.291  10.919 -0.2140 -0.0397 -0.3365
 4311W        W19780  17.083  17.084  12.101  0.0523  0.1753  0.2888
 4312W        W19781  11.113  10.329   2.259  0.0684  0.2489  0.0693
 4313W        W19782   1.929   2.793  10.799 -0.0730 -0.2834  0.0645
 4314W        W19783   7.039   9.162   5.432 -0.0752 -0.0634  0.1136
 4315W        W19784   8.540  14.675   0.703  0.3185 -0.0315 -0.0924
 4316W        W19785  14.489  14.315   4.791  0.1699 -0.0848 -0.0752
 4317W        W19786  12.619  14.452  15.333  0.0758 -0.0838 -0.0483
 4318W        W19787   3.576  14.660   1.060  0.1694 -0.0045  0.0725
 4319W        W19788   6.853   6.331  12.711 -0.2671 -0.3061 -0.4576
 4320W        W19789   7.056  18.196   1.589 -0.0125  0.2636  0.0508
 4321W        W19790   1.757   7.932   2.835  0.0450 -0.0689 -0.3087
 4322W        W19791  14.033   2.874  12.841  0.0669  0.1184  0.0016
 4323W        W19792  12.853   7.235  13.791  0.1189  0.1434  0.0345
 4324W        W19793  16.132   2.046   2.702 -0.2454  0.1999  0.2772
 4325W        W19794   0.378  16.487  13.189  0.0062  0.2322  0.0826
 4326W        W19795   0.701   7.029   5.221 -0.0202 -0.0046  0.0710
 4327W        W19796   5.232  15.085   1.841  0.0351 -0.0374  0.1639
 4328W        W19797  18.404   9.395   5.598 -0.4639  0.2617 -0.0796
 4329W        W19798   9.725   4.768   3.848 -0.1209 -0.0291 -0.1434
 4330W        W19799  12.145  18.688  11.050  0.0028  0.2155 -0.2443
 4331W        W19800   7.756   0.677   3.003 -0.0389 -0.0768 -0.1856
 4332W        W19801  14.096   7.577   2.473  0.0413 -0.0639  0.2119
 4333W        W19802   5.219  10.043   3.266 -0.3142 -0.5119 -0.1070
 4334W        W19803   2.430  13.749   0.607  0.0364 -0.0523  0.0478
 4335W        W19804  13.588   2.507  12.099  0.4606  0.1322 -0.1526
 4336W        W19805  18.581   5.134  13.872  0.1643 -0.0816 -0.1345
 4337W        W19806   7.675   0.870  10.753 -0.2281 -0.1052  0.0888
 4338W        W19807  16.336  12.724  15.228 -0.1328  0.2346 -0.1765
 4339W        W19808  11.688   5.459   4.424 -0.1181  0.0566  0.1746
 4340W        W19809  10.592  18.474  11.692  0.0018  0.1168 -0.4065
 4341W        W19810  14.572   3.631  11.104  0.0109  0.0333 -0.1103
 4342W        W19811   6.062  10.480  11.371  0.1126 -0.1942  0.3170
 4343W        W19812  16.479   1.573   3.556  0.2233 -0.4679  0.0436
 4344W        W19813  17.841  17.047  10.857  0.0311 -0.0824 -0.1342
 4345W        W19814   2.397  10.937  10.636  0.0674 -0.0794 -0.3014
 4346W        W19815   3.539   3.015   4.987 -0.1599 -0.1209  0.0058
 4347W        W19816   7.575   5.095  13.160  0.4730 -0.1069 -0.1744
 4348W        W19817  13.482  15.600   0.804 -0.1566  0.0842 -0.1042
 4349W        W19818   0.051   8.525   9.782  0.1376  0.0339 -0.0733
 4350W        W19819  12.051   4.271  10.436 -0.1224 -0.1132  0.3208
 4351W        W19820  18.356   4.391  15.336  0.3453 -0.1755 -0.0831
 4352W        W19821  17.590  11.976   0.545  0.0678 -0.1350 -0.1738
 4353W        W19822  17.261   2.652  13.330 -0.1545  0.2782 -0.2680
 4354W        W19823   2.951   7.412   0.134  0.1100  0.0348 -0.0173
 4355W        W19824  18.263  14.801  13.693  0.0849  0.0481  0.0028
 4356W        W19825  14.313  12.653  14.588 -0.0071 -0.0131  0.0213
 4357W        W19826  17.653  14.485  12.326 -0.2929 -0.0461  0.1150
 4358W        W19827  12.939  18.183   1.015 -0.3328  0.1000 -0.1113
 4359W        W19828   7.073   0.829  10.864 -0.1131 -0.0904 -0.1901
 4360W        W19829  16.783  18.345   4.605  0.1495  0.3548  0.0312
 4361W        W19830  11.254  12.874   1.062  0.1160 -0.0559  0.0595
 4362W        W19831   8.607  14.843  15.695  0.0230  0.1659  0.0326
 4363W        W19832  13.074   7.084  11.626  0.1368 -0.1257  0.3774
 4364W        W19833   3.668   3.605  15.509  0.0625  0.2640  0.4962
 4365W        W19834  12.063   7.468  10.623 -0.0712  0.0879  0.1822
 4366W        W19835  12.481  16.600   3.477  0.1066 -0.0365 -0.0886
 4367W        W19836   9.674  10.386   3.871 -0.0997 -0.3118  0.3386
 4368W        W19837  18.226   3.398   3.718  0.1004 -0.0621  0.1190
 4369W        W19838  18.537  17.550  12.594  0.2119  0.0555 -0.3608
 4370W        W19839   0.111  15.492   0.932  0.1195  0.0973  0.2156
 4371W        W19840  12.536  10.527  11.661 -0.3531 -0.0077 -0.0250
 4372W        W19841  13.080   6.875  15.191  0.1788  0.3249  0.0838
 4373W        W19842  10.865  17.186  11.956  0.2839  0.0051  0.0522
 4374W        W19843   9.746  13.162  13.869  0.0819  0.0066  0.0124
 4375W        W19844   5.466   2.411   3.847  0.0214 -0.0433  0.3052
 4376W        W19845  10.687  15.360  11.577  0.3570 -0.1350 -0.1661
 4377W        W19846   7.684  17.510   0.669 -0.3055 -0.1621 -0.2447
 4378W        W19847  16.801  13.220   5.246 -0.1586 -0.0236 -0.0587
 4379W        W19848   3.634  12.781  13.534 -0.1740  0.0320 -0.2610
 4380W        W19849   2.399   1.543   0.537 -0.1119 -0.0064 -0.0670
 4381W        W19850   3.388   3.769  10.681  0.0161  0.2504  0.1749
 4382W        W19851   7.943   6.944  15.462 -0.0497 -0.1895  0.0288
 4383W        W19852   6.045  13.819  13.588 -0.2654  0.2438 -0.3216
 4384W        W19853   4.534   5.572  13.746  0.0953 -0.4815  0.2528
 4385W        W19854   3.904  12.732  15.032 -0.0254 -0.0593 -0.1789
 4386W        W19855  16.489   1.106   0.856 -0.0564 -0.2017  0.0071
 4387W        W19856  15.498   3.240  10.924 -0.1877 -0.1893  0.1144
 4388W        W19857   6.843  11.500   2.280  0.2920  0.2394  0.0630
 4389W        W19858  12.355  15.533  14.355 -0.5327  0.0089 -0.2243
 4390W        W19859  17.901   5.910  12.121  0.0649 -0.2170  0.0847
 4391W        W19860   9.427   9.400   3.524  0.0923 -0.0923 -0.0210
 4392W        W19861   7.789  16.003  11.587 -0.1325  0.1694 -0.1143
 4393W        W19862   4.869   5.921   2.266 -0.0035 -0.0067 -0.2064
 4394W        W19863  12.926   9.239  11.373 -0.0789 -0.0056  0.0577
 4395W        W19864  18.000   3.693   5.059 -0.1625 -0.2290  0.1905
 4396W        W19865   3.845  11.890  12.172  0.0934  0.1023  0.0669
 4397W        W19866  14.843  15.978  15.698  0.1914  0.2965 -0.3117
 4398W        W19867  10.816   1.240   4.901 -0.0436  0.0791 -0.0668
 4399W        W19868   3.208   6.250  13.212 -0.2043  0.1814  0.1855
 4400W        W19869  18.041   5.170   3.268  0.4589 -0.2105  0.5520
 4401W        W19870   5.111  12.256   2.923  0.2974 -0.1623 -0.5000
 4402W        W19871  11.211   3.569  12.773 -0.0846  0.0821  0.2591
 4403W        W19872   2.574  18.280  10.728  0.2228 -0.1060  0.0304
 4404W        W19873  15.170   3.828  13.361 -0.0560 -0.0640 -0.0901
 4405W        W19874   0.442   9.061   2.291  0.3127  0.0932 -0.1334
 4406W        W19875   6.430   7.597   1.386 -0.2297 -0.0613 -0.0405
 4407W        W19876  10.750   3.960   0.822  0.0401  0.3474 -0.0654
 4408W        W19877  11.596   6.178  13.639  0.1562  0.1124 -0.2784
 4409W        W19878  10.556   8.459  11.576 -0.3261 -0.1609 -0.2755
 4410W        W19879   6.871   0.846   4.412  0.0709  0.0277  0.0366
 4411W        W19880  13.221  15.436  13.594 -0.1530 -0.1398 -0.1239
 4412W        W19881  11.022  14.138   6.307  0.0892 -0.2713  0.1015
 4413W        W19882   7.138  15.427  14.704  0.2089  0.2252 -0.0483
 4414W        W19883  13.538  13.920   3.838  0.2570 -0.1936 -0.1032
 4415W        W19884  18.461   9.544  14.696  0.0291  0.2828  0.2300
 4416W        W19885  15.541   7.497   1.659 -0.2307 -0.2735  0.1469
 4417W        W19886  18.318  14.608  15.693  0.0870 -0.1206  0.0214
 4418W        W19887  11.275   6.798   4.419 -0.3529 -0.5610  0.2465
 4419W        W19888   7.003  10.892   0.603 -0.3044  0.1072  0.0045
 4420W        W19889   3.653  10.219   1.476 -0.0514 -0.3337  0.0231
 4421W        W19890   9.512  15.932  14.869 -0.0912 -0.2224 -0.1401
 4422W        W19891  17.973  11.737   5.756 -0.2237 -0.0250  0.0101
 4423W        W19892   0.012   3.209  11.293 -0.0306  0.0955  0.1619
 4424W        W19893  13.019  15.727  15.737  0.2588  0.0373  0.0324
 4425W        W19894  11.645  15.112   1.265 -0.0921 -0.0080  0.0656
 4426W        W19895  17.806   7.677   2.709  0.0535  0.0866 -0.2720
 4427W        W19896   3.618   1.250   4.766  0.0648 -0.0842  0.2305
 4428W        W19897  12.295   7.880   1.282  0.4383  0.0219  0.2516
 4429W        W19898   7.762   0.302   2.073 -0.2239 -0.0346  0.1968
 4430W        W19899   6.963  17.613   0.139 -0.0464 -0.0038 -0.2879
 4431W        W19900   1.933  15.562   2.007 -0.1388 -0.1555 -0.5938
 4432W        W19901  11.595  12.644   2.092  0.1754  0.0797 -0.0855
 4433W        W19902   0.911  17.844  14.744 -0.0817  0.0962  0.1338
 4434W        W19903  15.977   1.973   3.193 -0.0002 -0.0416 -0.0569
 4435W        W19904  18.351  10.709  13.693 -0.2594  0.0951  0.1277
 4436W        W19905  15.097   5.637   1.431 -0.0210  0.0830  0.3243
 4437W        W19906   8.692   2.289  13.233 -0.6350 -0.1226 -0.2039
 4438W        W19907   0.202  17.707   3.442 -0.0136 -0.1236 -0.2843
 4439W        W19908   1.605   5.909   2.314 -0.0523  0.0287  0.2478
 4440W        W19909  16.301   5.408   1.107 -0.2078  0.3028  0.0581
 4441W        W19910   8.833   7.532   3.605  0.3125  0.2074 -0.2304
 4442W        W19911  13.639  10.346   2.293 -0.0050  0.2399  0.3959
 4443W        W19912   8.677  11.586   2.759 -0.4877  0.0592  0.2673
 4444W        W19913   7.613   3.219  13.178  0.1651 -0.1154  0.0352
 4445W        W19914   4.717   1.076   4.371 -0.3203 -0.2393 -0.3969
 4446W        W19915   7.120   9.893  14.437  0.2011  0.0261  0.1305
 4447W        W19916  11.652  16.881  13.735 -0.0018 -0.0203 -0.1310
 4448W        W19917   9.694  18.042  12.607 -0.1566  0.0606  0.1699
 4449W        W19918   5.576  18.515  14.317 -0.0325 -0.0124  0.3385
 4450W        W19919  16.471   9.597  10.822  0.2574  0.3449  0.2341
 4451W        W19920   9.452   0.597  13.090  0.3516 -0.0567  0.0500
 4452W        W19921   7.971  16.199   3.734 -0.2997 -0.2993 -0.1518
 4453W        W19922  10.348  13.135   2.858 -0.0412  0.1067  0.2296
 4454W        W19923   5.490   0.905  14.024  0.1554 -0.0439 -0.2691
 4455W        W19924  17.931  11.394   4.440  0.3077 -0.1953 -0.1553
 4456W        W19925   8.896   1.937   5.370 -0.0493 -0.1428  0.2440
 4457W        W19926   4.714  12.537   4.262  0.1041 -0.3426 -0.2075
 4458W        W19927   1.571  13.401  13.795 -0.1026  0.1302  0.0567
 4459W        W19928   1.904  15.509  13.815  0.2082 -0.1850  0.2207
 4460W        W19929  18.025   7.143  15.223 -0.0507 -0.1156  0.2720
 4461W        W19930  10.634   9.863   4.065 -0.1398  0.0629  0.0996
 4462W        W19931   9.083  10.418   0.844 -0.0332 -0.4141 -0.0257
 4463W        W19932  11.364   9.424   3.350  0.2138 -0.2806  0.1008
 4464W        W19933  16.828   3.597   3.137  0.1560  0.1478  0.0211
 4465W        W19934   9.710  14.202  14.603 -0.0506 -0.0324 -0.0587
 4466W        W19935   4.731   7.814   1.631 -0.1351 -0.1184  0.2708
 4467W        W19936  16.577  17.264   3.578  0.3189 -0.0650  0.4473
 4468W        W19937   6.995  11.624  15.086  0.0409 -0.0653  0.0166
 4469W        W19938  13.627  11.758   1.466  0.0388  0.1056 -0.2820
 4470W        W19939  15.634  12.265  12.572 -0.2106 -0.2116 -0.2023
 4471W        W19940   6.392   6.351  13.055 -0.0265 -0.0006  0.2627
 4472W        W19941   5.826   5.135  13.227 -0.2879 -0.2439 -0.0056
 4473W        W19942  10.377   5.971  15.378  0.3914 -0.0416 -0.2363
 4474W        W19943   5.804   2.348  13.658 -0.0038  0.1726 -0.0814
 4475W        W19944   1.947   8.585  13.797 -0.2031  0.0108  0.0194
 4476W        W19945   1.847  14.940   0.042  0.1169  0.2509  0.0785
 4477W        W19946  12.358   1.390  15.071  0.0317 -0.0765 -0.0358
 4478W        W19947  11.096  11.513  10.982 -0.0867  0.4681 -0.1421
 4479W        W19948   5.410  12.824  15.524 -0.1250  0.0111 -0.0353
 4480W        W19949  15.215   1.051   1.343 -0.0230 -0.0161  0.2288
 4481W        W19950   8.266   4.612   4.089 -0.1029  0.2989 -0.0258
 4482W        W19951   7.322   1.951  13.358 -0.1171 -0.0243  0.2815
 4483W        W19952  12.118   9.802   4.614 -0.2808 -0.3097  0.0820
 4484W        W19953   1.275   8.341   0.314  0.0039 -0.2222  0.0231
 4485W        W19954   9.293  12.021   6.110 -0.3212  0.0815  0.3122
 4486W        W19955  18.242  18.645  13.788 -0.1627 -0.2402  0.0637
 4487W        W19956  14.034   8.692   0.556  0.1212  0.0738 -0.1238
 4488W        W19957  13.127  14.384  14.496  0.2610 -0.0603 -0.0538
 4489W        W19958   0.869   4.692  15.644 -0.0695  0.0418 -0.0180
 4490W        W19959  14.230   1.676  13.195 -0.1667 -0.0215  0.0345
 4491W        W19960   1.598   1.439   1.330  0.0278 -0.0605 -0.0288
 4492W        W19961   7.931   3.698   0.037  0.2471 -0.2380  0.3111
 4493W        W19962  18.676  10.468  14.935  0.2213 -0.1343  0.1632
 4494W        W19963  11.264   0.317   0.723  0.2142 -0.0577  0.2474
 4495W        W19964   3.478   2.815  12.907  0.0671 -0.0692 -0.1922
 4496W        W19965   2.861   1.567  15.285 -0.0347  0.3685 -0.2330
 4497W        W19966   0.127  15.502   5.016 -0.2242  0.1224  0.0833
 4498W        W19967  13.135   4.289   4.320  0.4056  0.3322  0.1811
 4499W        W19968  11.081  12.206   3.814 -0.2094  0.0394 -0.1709
 4500W        W19969   8.460  10.917   3.997  0.1384  0.0413  0.2807
 4501W        W19970  16.926  16.981   0.095 -0.3513 -0.0779 -0.3346
 4502W        W19971  17.365  17.614   2.097  0.0634 -0.2350  0.2972
 4503W        W19972   2.346   3.583   0.185  0.1167  0.2128  0.1368
 4504W        W19973   7.473  13.872  13.101  0.3281  0.0755  0.2078
 4505W        W19974   2.581  17.588  13.469  0.2498 -0.2424 -0.2065
 4506W        W19975  14.668   5.727   2.579 -0.0835  0.1382  0.0402
 4507W        W19976  17.467  17.889   4.755 -0.3821 -0.0484  0.1211
 4508W        W19977  15.093   6.795   2.335  0.2990  0.1198  0.0384
 4509W        W19978   2.033   6.971   2.130 -0.0793  0.2680 -0.2393
 4510W        W19979   7.740  13.682   4.313  0.1566 -0.0666 -0.3155
 4511W        W19980   2.008   8.582  13.319 -0.0789  0.0902  0.3739
 4512W        W19981   1.272   3.768   5.027  0.2469  0.4054 -0.1051
 4513W        W19982  15.196   1.478   1.088 -0.1906 -0.1017 -0.2588
 4514W        W19983  18.307  14.432   0.963 -0.1391  0.1283  0.3179
 4515W        W19984  13.557   5.283   5.659 -0.4475 -0.1490  0.2020
 4516W        W19985  10.769   0.963   0.131  0.0293 -0.0413  0.0901
 4517W        W19986   3.082  18.419  11.443  0.1435  0.1685 -0.2465
 4518W        W19987  14.346  12.081  13.834 -0.3317 -0.2289 -0.1707
 4519W        W19988   3.696   8.727  15.161  0.1059 -0.1568 -0.1715
 4520W        W19989  18.004  18.379   0.598  0.0452  0.1106  0.3798
 4521W        W19990   3.207  13.838  13.759 -0.3018  0.0063 -0.1512
 4522W        W19991   1.991   2.716   1.346 -0.1399  0.2851 -0.1378
 4523W        W19992  12.794   7.235  15.440 -0.4896  0.1380  0.0620
 4524W        W19993   1.875   9.426  11.815  0.0711 -0.2815 -0.0608
 4525W        W19994  14.243  11.075   1.796  0.2246 -0.0975  0.2578
 4526W        W19995   2.442  11.980   4.467 -0.1148 -0.3224  0.0539
 4527W        W19996  13.849   9.035  11.423 -0.0376 -0.1095  0.2025
 4528W        W19997  11.040   4.731   4.248  0.0274  0.2843 -0.3093
 4529W        W19998   8.320   3.782   4.832  0.0955 -0.1021 -0.2964
 4530W        W19999  18.678   5.029  13.404 -0.2336 -0.2554 -0.0521
 4531W        W20000  11.050   3.345  11.480 -0.2551 -0.0244  0.0867
 4532W        W20001   8.289  13.126   5.390  0.3669  0.0040 -0.1238
 4533W        W20002  16.178   9.021  13.961 -0.0251  0.0571 -0.2726
 4534W        W20003   6.627   1.892   0.494 -0.1206  0.2123 -0.2622
 4535W        W20004  18.481  18.570  15.390 -0.2635  0.0326 -0.0558
 4536W        W20005   2.675   8.880  10.808  0.1384 -0.2257 -0.0847
 4537W        W20006  17.174   1.330  14.880  0.0139  0.2651 -0.0040
 4538W        W20007   9.315  12.601  12.454  0.0790 -0.2632 -0.0232
 4539W        W20008   5.920   5.151  11.255 -0.0410  0.2603 -0.4254
 4540W        W20009  12.592   7.907   0.462  0.2315  0.2172 -0.3204
 4541W        W20010  15.318   0.818  15.677 -0.1297  0.1643 -0.0251
 4542W        W20011   9.813  17.649  14.326 -0.0742 -0.1783  0.1330
 4543W        W20012  14.382  16.975   0.843  0.1056  0.0912 -0.3573
 4544W        W20013   4.008   7.703   1.229  0.2053  0.0411 -0.1243
 4545W        W20014   5.578  17.293   1.257 -0.3176  0.2179  0.0602
 4546W        W20015  16.670  17.962   0.438  0.1006 -0.4486 -0.1120
 4547W        W20016   2.330  17.321  13.127 -0.2090 -0.0606  0.1300
 4548W        W20017   6.646   8.051  11.005 -0.1911 -0.1729 -0.0177
 4549W        W20018  13.131   9.666  12.332 -0.0694 -0.0735 -0.0883
 4550W        W20019  16.586  10.778  11.797 -0.0157  0.0993 -0.0447
 4551W        W20020   5.628  17.487   4.567  0.0848 -0.2961  0.1038
 4552W        W20021  14.241  10.053   2.935  0.1417 -0.1203  0.0636
 4553W        W20022   6.221   4.827   4.921 -0.1281  0.0694  0.5074
 4554W        W20023   2.240  12.815  12.161 -0.1132 -0.3761 -0.2978
 4555W        W20024  18.119  11.980   2.826 -0.3150 -0.0167  0.1105
 4556W        W20025  11.460  11.642   5.030 -0.1664 -0.1667 -0.0518
 4557W        W20026  15.311   0.357   3.138 -0.1764 -0.0549 -0.0845
 4558W        W20027   9.071   2.219   4.250  0.1992  0.1503  0.1456
 4559W        W20028   7.922   1.429  11.151 -0.0072 -0.0385  0.0673
 4560W        W20029   9.129  10.601  12.603 -0.0008 -0.1572  0.0124
 4561W        W20030   7.483   3.405   3.064 -0.4585  0.0071 -0.2607
 4562W        W20031  12.819   9.433   2.590  0.1215  0.2817  0.1207
 4563W        W20032  18.435  11.677   0.101  0.0486 -0.2051 -0.2691
 4564W        W20033   5.068   3.585  13.621  0.0668 -0.1814 -0.1228
 4565W        W20034  11.757   2.631   2.989 -0.0399 -0.0466  0.0055
 4566W        W20035   7.705   9.272   2.036 -0.2094  0.0285 -0.1887
 4567W        W20036   5.853  12.767   0.872 -0.2673 -0.2603  0.0198
 4568W        W20037   4.899  18.553  12.578 -0.0788 -0.1875  0.1415
 4569W        W20038  15.040   9.462   1.814 -0.1449  0.0237  0.0776
 4570W        W20039   5.954   3.482  14.286  0.0073  0.0664 -0.1625
 4571W        W20040  18.468  13.310   5.471  0.3181 -0.1848  0.0124
 4572W        W20041   0.421  16.928   4.688 -0.0046 -0.0704  0.0869
 4573W        W20042  14.529   1.465  10.685 -0.1131 -0.0669  0.0879
 4574W        W20043   9.295  10.601  14.618 -0.0552  0.1153  0.0983
 4575W        W20044  18.444   3.505   1.210  0.1586  0.2061 -0.0750
 4576W        W20045   5.153   8.150  14.159 -0.0610  0.0814  0.0761
 4577W        W20046  15.435   7.725  11.083  0.0100  0.1105  0.0431
 4578W        W20047   2.770   3.023   4.437 -0.2323 -0.0933  0.2047
 4579W        W20048  14.954   3.999  10.931 -0.2908  0.2687 -0.0900
 4580W        W20049   0.775   1.130   3.501 -0.2597  0.0289  0.2066
 4581W        W20050  12.742   8.052  15.516 -0.0418  0.1101 -0.1610
 4582W        W20051  14.941  12.727   3.707 -0.1627 -0.3407  0.0615
 4583W        W20052  11.667  17.445   5.749 -0.0147 -0.0607  0.1221
 4584W        W20053   0.559   6.604  11.800 -0.0231  0.2345 -0.3012
 4585W        W20054  12.833   1.956  10.801 -0.3906 -0.4433 -0.3434
 4586W        W20055  18.512   8.295   0.357 -0.3792  0.1051 -0.1082
 4587W        W20056   4.265   9.086   1.735 -0.1606 -0.0094  0.1079
 4588W        W20057   3.245   0.023   3.923  0.0152  0.1982 -0.0658
 4589W        W20058   4.679   5.181   0.590 -0.0198  0.0557 -0.0362
 4590W        W20059  13.058   0.514   0.026  0.0979  0.0206 -0.0932
 4591W        W20060  13.328   9.710   3.913 -0.1433  0.2550 -0.0341
 4592W        W20061  10.767   0.745  15.377 -0.2055  0.1309 -0.3887
 4593W        W20062  11.798   7.619   1.981 -0.0195  0.0538  0.2509
 4594W        W20063   6.395   5.106  13.407  0.5772 -0.3693 -0.0609
 4595W        W20064   3.945   1.560   0.507  0.0587  0.2798  0.1010
 4596W        W20065   8.171  11.612  12.254 -0.0732  0.1857  0.0333
 4597W        W20066  11.249  14.276   3.442 -0.3921 -0.5018 -0.3175
 4598W        W20067   4.674  10.209   4.633  0.0711 -0.3030  0.1845
 4599W        W20068   4.937  12.336  14.249 -0.0282  0.1159  0.0672
 4600W        W20069   0.099   8.642   1.116  0.2071 -0.0935 -0.2153
 4601W        W20070   0.619   6.437   5.090 -0.2590  0.0604 -0.0696
 4602W        W20071  11.669  15.084  13.396 -0.1274  0.2056 -0.0224
 4603W        W20072  16.787  10.263   0.791 -0.2484 -0.0317 -0.1365
 4604W        W20073   6.698  14.447   5.641  0.1361 -0.1403  0.3364
 4605W        W20074   2.163  12.173   1.285 -0.1249  0.0565  0.1226
 4606W        W20075   4.832   2.081  10.635  0.0885 -0.0432 -0.0378
 4607W        W20076   1.824   5.464   3.547 -0.1021  0.3719  0.0926
 4608W        W20077   1.286   2.944   2.488  0.1134 -0.2858 -0.1103
 4609W        W20078   1.359   3.828   0.593  0.2419  0.0948  0.0725
 4610W        W20079   5.567  11.195   2.255  0.1153 -0.0988 -0.1420
 4611W        W20080   8.867   0.487  11.353 -0.0621  0.2532 -0.1837
 4612W        W20081  12.771   1.430   0.565  0.2412 -0.2515 -0.1005
 4613W        W20082  17.560  10.595   0.925 -0.0585 -0.2867  0.0583
 4614W        W20083   8.812  11.148   3.533  0.2129 -0.2676 -0.2217
 4615W        W20084   9.197  18.126  12.914 -0.0230  0.0306 -0.3578
 4616W        W20085  14.638   9.520  15.287  0.1912  0.1706  0.3864
 4617W        W20086  16.711  12.334   4.424  0.5003  0.1084 -0.0870
 4618W        W20087  14.737   7.089   3.134  0.0893  0.0716 -0.0851
 4619W        W20088  15.316  11.027  10.228  0.3082 -0.0748 -0.4101
 4620W        W20089   6.434   4.021  12.533  0.0687 -0.1841  0.6717
 4621W        W20090  18.493  16.059  15.280  0.1567  0.0336  0.2179
 4622W        W20091  16.249   2.539   4.041  0.2799  0.4661  0.4381
 4623W        W20092   2.052   5.232   4.446  0.0017 -0.2438 -0.2653
 4624W        W20093   2.636   4.569  12.551  0.0361 -0.1767 -0.1306
 4625W        W20094  11.532  14.564  12.562 -0.2593 -0.2932  0.2589
 4626W        W20095   0.754   3.904   1.462 -0.1597  0.1228 -0.0538
 4627W        W20096   5.286   8.594  14.847 -0.0337 -0.4197 -0.1333
 4628W        W20097  11.605   0.462   5.312  0.1782 -0.0176 -0.1988
 4629W        W20098   3.718   4.718  12.714  0.1014 -0.0369  0.1795
 4630W        W20099   5.951   5.908   4.752 -0.1357 -0.0338  0.3155
 4631W        W20100  15.555  13.598   4.172 -0.2536  0.0745  0.1120
 4632W        W20101  14.420  13.775   2.178 -0.0621 -0.1108 -0.1731
 4633W        W20102  13.964   7.377   4.285 -0.0796  0.2819  0.4734
 4634W        W20103  12.399   6.837   9.684  0.1506  0.0781  0.0576
 4635W        W20104   4.955   1.704  15.328  0.0378 -0.1255  0.2341
 4636W        W20105   9.366  11.001  15.597 -0.0636  0.0336  0.1625
 4637W        W20106   1.654  12.845  12.104  0.0955  0.1498 -0.0936
 4638W        W20107   8.316  12.781  14.216  0.0246  0.4216  0.0354
 4639W        W20108  13.350   4.254  12.192  0.1863 -0.0030  0.1574
 4640W        W20109   3.253   9.164  11.658 -0.1560  0.0847  0.0616
 4641W        W20110  17.883  14.295   5.283  0.1784  0.0496  0.0784
 4642W        W20111  17.165  14.764   3.786 -0.1952  0.2026 -0.0298
 4643W        W20112  16.534   4.874   2.810  0.2154 -0.1120 -0.1504
 4644W        W20113   9.175   5.124   1.646  0.2857  0.0301  0.2066
 4645W        W20114   9.397   3.779   1.685  0.0288  0.1380  0.1022
 4646W        W20115  16.450   7.331   3.252 -0.2146 -0.1199 -0.1445
 4647W        W20116   7.013  18.696  13.835  0.0675  0.2256 -0.1008
 4648W        W20117   7.609   6.084  15.561  0.0564 -0.0411  0.0969
 4649W        W20118   2.496   5.052  13.569 -0.1231 -0.1231  0.3365
 4650W        W20119  16.216  17.457  14.625  0.0999  0.1554 -0.1305
 4651W        W20120   0.383   0.534  15.084 -0.0823  0.2641 -0.2813
 4652W        W20121   1.312  15.592   1.122 -0.1360  0.0093  0.0176
 4653W        W20122   9.721   0.675  14.474 -0.1332 -0.2514  0.2293
 4654W        W20123   4.338   8.249   2.985 -0.1053  0.0126  0.2868
 4655W        W20124   0.136  17.073   0.841  0.2074  0.2263  0.0477
 4656W        W20125   2.260   0.387   3.395 -0.3034  0.3100 -0.2067
 4657W        W20126   2.528   8.791   3.649 -0.0606 -0.1288 -0.2912
 4658W        W20127   4.472  13.963   2.830 -0.1282  0.5082 -0.1034
 4659W        W20128  16.769   0.269   5.314 -0.0336 -0.2566 -0.0513
 4660W        W20129  18.627  18.592  10.786 -0.3920  0.1078 -0.0063
 4661W        W20130  16.259   1.984  15.493 -0.1493 -0.5726 -0.1780
 4662W        W20131  11.868  15.826  13.787  0.0307 -0.1380 -0.0596
 4663W        W20132   5.304   5.253  14.758  0.0732  0.1946 -0.1022
 4664W        W20133  16.006  10.584  12.749  0.1124  0.0536  0.0233
 4665W        W20134  14.678  17.478   2.565  0.0813  0.2507 -0.0222
 4666W        W20135   7.539  11.139   5.074 -0.2107  0.0052 -0.2140
 4667W        W20136   3.424  11.455   1.345  0.2392 -0.0237 -0.0212
 4668W        W20137   2.245  12.175   9.877  0.2783  0.1340  0.1887
 4669W        W20138   1.794   2.035  11.345 -0.3631 -0.0897 -0.0179
 4670W        W20139  12.543  15.642   2.634  0.1353  0.0325  0.2176
 4671W        W20140  14.632  13.064  13.753 -0.0111 -0.0809  0.1054
 4672W        W20141  14.960   6.022   2.313 -0.3618  0.0520  0.0889
 4673W        W20142  17.491   4.304   4.804 -0.0866  0.1533 -0.0566
 4674W        W20143  16.894   3.308   0.206  0.1750 -0.3491  0.0473
 4675W        W20144   6.656   9.262   3.648  0.0983  0.0666  0.2808
 4676W        W20145   5.937   8.446   3.855  0.0471 -0.0994 -0.2307
 4677W        W20146  12.839  10.031  12.743  0.1779  0.0988  0.2707
 4678W        W20147   9.614   0.318   3.528  0.0570 -0.0677 -0.0741
 4679W        W20148   7.645   1.205   5.551 -0.2699  0.2935  0.1333
 4680W        W20149   9.280   0.518  12.157  0.3181  0.0695 -0.2558
 4681W        W20150   7.428   1.000   1.710 -0.0380  0.2073 -0.0765
 4682W        W20151  14.511  13.597   3.139  0.0647 -0.1867 -0.0960
 4683W        W20152   5.737   5.905  15.185  0.1595 -0.4935  0.0880
 4684W        W20153   6.775   6.548  10.847  0.2648 -0.0233 -0.0018
 4685W        W20154   6.711   2.437  14.033 -0.1042 -0.1860  0.1586
 4686W        W20155  16.587   0.181  11.514 -0.0616 -0.0436  0.0143
 4687W        W20156  12.331   7.810  10.919  0.3320  0.2740  0.3623
 4688W        W20157   6.220   7.699  13.278  0.1798  0.3776  0.0947
 4689W        W20158  16.328  12.406   2.510 -0.0934  0.0391  0.0138
 4690W        W20159  16.344   2.136  11.100 -0.0417 -0.0234  0.2115
 4691W        W20160  13.469  11.473   1.977  0.0963 -0.0349  0.3161
 4692W        W20161  13.217  15.686   5.019 -0.0932  0.1484  0.1089
 4693W        W20162   4.871   7.702  11.161 -0.0986  0.4098 -0.1814
 4694W        W20163   3.750  10.880   5.453 -0.3505  0.0749 -0.1226
 4695W        W20164  14.438  10.118  14.004 -0.2831  0.0467  0.0866
 4696W        W20165   4.754  13.764  12.870  0.0684 -0.0838  0.2149
 4697W        W20166  12.709  14.151  11.874  0.0722 -0.1634 -0.2018
 4698W        W20167   6.042   9.339   1.138 -0.4321  0.4883  0.1043
 4699W        W20168   0.562  13.847   3.911 -0.2437  0.1761 -0.1643
 4700W        W20169  13.803   3.291   1.588  0.0348  0.2160 -0.0349
 4701W        W20170  18.291  16.002   2.580  0.1684  0.1276  0.2091
 4702W        W20171   4.629   1.388  15.509  0.0715 -0.0655 -0.0415
 4703W        W20172   1.553  12.715  14.525 -0.0828  0.0304 -0.0173
 4704W        W20173   7.077   4.593   0.702 -0.1709 -0.0535 -0.1177
 4705W        W20174   9.616   5.955  12.649  0.0233  0.0963  0.0868
 4706W        W20175  17.548  14.624  13.913 -0.0931  0.0243 -0.1725
 4707W        W20176   6.114   8.447   4.788 -0.4455  0.0575 -0.5449
 4708W        W20177  12.705   5.022  15.415  0.0280  0.1013 -0.0789
 4709W        W20178  15.926  15.946   3.917  0.0582 -0.1131 -0.1164
 4710W        W20179   4.299   2.409   1.190 -0.2760 -0.1338  0.0228
 4711W        W20180   3.370   3.812  11.363  0.1093  0.2337 -0.0803
 4712W        W20181   3.834   9.645  14.799  0.1660  0.0004  0.0116
 4713W        W20182   5.204  17.153   1.523 -0.0272 -0.3256 -0.2586
 4714W        W20183  13.520  13.528   0.229 -0.1163  0.0721 -0.4054
 4715W        W20184   5.063  16.959  12.877  0.1036  0.0495 -0.1555
 4716W        W20185  16.221   2.090   2.129  0.1581  0.3135  0.0789
 4717W        W20186   2.903   8.376  12.062 -0.3878  0.0160 -0.2542
 4718W        W20187   7.675  12.002  15.370 -0.1397 -0.0427  0.0851
 4719W        W20188   6.295   2.310  13.679  0.2348 -0.0486 -0.3109
 4720W        W20189   9.926  15.996   3.275 -0.0828  0.0963  0.3463
 4721W        W20190  13.345   6.397   0.296  0.0687 -0.0287  0.0395
 4722W        W20191  16.126  16.163   1.707 -0.0922 -0.2716  0.3240
 4723W        W20192  14.618  14.486  12.621  0.0896 -0.1310 -0.2020
 4724W        W20193   8.213   6.680   2.554 -0.0416  0.0710 -0.2845
 4725W        W20194  14.909  15.887   0.909 -0.0244  0.3648 -0.0847
 4726W        W20195  16.882  16.465  10.508 -0.1852 -0.2439  0.4003
 4727W        W20196   9.220   3.126   1.569  0.0657 -0.1616  0.2938
 4728W        W20197   1.921   8.283  15.464  0.5570  0.0117  0.0669
 4729W        W20198  16.723  18.696   0.976 -0.0697 -0.0859  0.1834
 4730W        W20199   5.206   6.321   2.173 -0.0457 -0.0530  0.3263
 4731W        W20200  16.844  14.084   3.835 -0.2300 -0.0586  0.0932
 4732W        W20201   6.690  10.318  15.581 -0.1235  0.1207  0.0842
 4733W        W20202   2.819  18.107   0.493 -0.1169 -0.1525  0.1987
 4734W        W20203  12.624   9.017  12.360  0.0150  0.3766  0.0484
 4735W        W20204  11.396   5.810   0.390 -0.4532  0.0952  0.1101
 4736W        W20205  14.100  13.099   3.935  0.4383 -0.2705  0.1614
 4737W        W20206   5.366   8.882   2.241  0.1262  0.1025 -0.1366
 4738W        W20207  12.099  10.998   0.519  0.1009 -0.1297  0.1457
 4739W        W20208  16.473  11.667   1.599 -0.3496 -0.2502  0.0095
 4740W        W20209  13.944  16.270   5.093  0.0650  0.1381 -0.2371
 4741W        W20210   6.849   3.325   1.165 -0.0892  0.3386 -0.1164
 4742W        W20211   8.087  15.021  10.426 -0.0104  0.1784  0.2089
 4743W        W20212  17.752  10.007  14.937 -0.1860 -0.2526 -0.1475
 4744W        W20213  11.125   9.911  12.769 -0.0647  0.2095 -0.2077
 4745W        W20214  17.357  12.372   3.605 -0.1594  0.1075  0.4286
 4746W        W20215   6.315  15.880   4.911  0.0942  0.0898  0.1052
 4747W        W20216  10.924  11.522   2.496 -0.0057  0.0241 -0.1931
 4748W        W20217  18.213   1.520   2.104 -0.0334 -0.2787  0.3292
 4749W        W20218  11.370   3.249  13.785  0.2167 -0.2466  0.0034
 4750W        W20219   2.955   8.017   0.831 -0.0821  0.2625 -0.2184
 4751W        W20220   6.652   8.860  14.004 -0.2189 -0.1443 -0.2308
 4752W        W20221   4.027   0.768  15.440  0.1716  0.2033 -0.1712
 4753W        W20222   1.944  15.519   3.408  0.0295 -0.0525 -0.0465
 4754W        W20223  18.327  12.460   2.124  0.1339  0.0721 -0.2169
 4755W        W20224   3.523   7.561  10.213 -0.1038  0.0738  0.1079
 4756W        W20225   8.806  18.597   5.050  0.0402 -0.0745  0.0495
 4757W        W20226  17.319   6.517  12.238 -0.3244 -0.1081  0.4924
 4758W        W20227  12.655   3.214   3.263 -0.1513  0.1198  0.1351
 4759W        W20228   8.974   0.749  13.183 -0.0639  0.1172  0.5338
 4760W        W20229  16.108  15.699   3.552 -0.0491  0.3246 -0.1912
 4761W        W20230   5.892  12.156  13.796  0.0689  0.0890  0.0340
 4762W        W20231  15.644   4.689  13.255  0.0412  0.1407 -0.0692
 4763W        W20232   2.420  16.710  12.446 -0.2212 -0.1623  0.2170
 4764W        W20233   8.511   5.504  15.024  0.1517 -0.0503  0.0974
 4765W        W20234  18.527  11.180  15.752 -0.0862  0.4111  0.0690
 4766W        W20235   8.601  10.443   9.965 -0.0916  0.1004 -0.0055
 4767W        W20236   7.575  15.117  10.463 -0.3441 -0.0998  0.0002
 4768W        W20237  17.119  11.227  14.719  0.0261 -0.1786  0.0258
 4769W        W20238   0.684   9.237   5.411 -0.1547  0.1290  0.5339
 4770W        W20239  14.637   1.612  11.564 -0.1294 -0.2121  0.0400
 4771W        W20240  11.121   9.878  10.623  0.0371 -0.2745 -0.1311
 4772W        W20241   4.228   3.406   4.666 -0.0479 -0.2914  0.0661
 4773W        W20242   2.861  11.025   1.556  0.0036 -0.0737 -0.0725
 4774W        W20243  14.741   4.261  11.427 -0.0199 -0.3632  0.2012
 4775W        W20244  11.937   4.555   4.854  0.2077  0.0422  0.3955
 4776W        W20245   7.395   5.437   0.414 -0.1312 -0.1585  0.3348
 4777W        W20246   4.476  17.394   5.094 -0.0208 -0.0275  0.2809
 4778W        W20247   4.900  17.617   3.572  0.0058 -0.0279  0.0658
 4779W        W20248   6.334  13.210   3.352 -0.2159  0.0555  0.1612
 4780W        W20249  17.693   0.014  10.444  0.5826 -0.2077 -0.2308
 4781W        W20250  17.162   9.172   4.838  0.2170  0.0142 -0.1496
 4782W        W20251   3.222   4.093  12.152 -0.0081 -0.0881  0.1799
 4783W        W20252  14.177   0.833  12.746 -0.1811 -0.0971 -0.2488
 4784W        W20253   1.610   5.760  12.606  0.1306 -0.0506  0.1668
 4785W        W20254  11.166  15.323   1.283  0.2189  0.2694 -0.2032
 4786W        W20255   4.298   3.997  15.321  0.3113  0.0061  0.2486
 4787W        W20256   7.990   2.653   0.666 -0.2134 -0.1744 -0.2525
 4788W        W20257   5.623   3.635  15.717 -0.1438 -0.0843  0.0886
 4789W        W20258  11.912   0.493  10.831 -0.1168 -0.0497 -0.0111
 4790W        W20259  13.364   7.352   6.004 -0.0171  0.1853 -0.1069
 4791W        W20260  12.150  15.152   5.723  0.0603  0.1946  0.0038
 4792W        W20261   8.728   9.804  14.092 -0.1429 -0.0611  0.5101
 4793W        W20262   8.980   2.462   3.723 -0.1555 -0.3009  0.2975
 4794W        W20263   0.088   3.136   1.365  0.0965  0.1102 -0.3791
 4795W        W20264   1.072   1.173  11.033 -0.0758 -0.1857  0.0093
 4796W        W20265  15.068   0.041  11.501 -0.2570 -0.2310 -0.1945
 4797W        W20266  18.381   0.557   0.921 -0.3807 -0.0323  0.1985
 4798W        W20267   3.631  16.046   3.795 -0.1051 -0.3688 -0.2203
 4799W        W20268   0.934   2.223   3.625  0.0765 -0.0618  0.1383
 4800W        W20269  18.577  16.352   5.041  0.2872  0.3743 -0.0935
 4801W        W20270   0.755   0.884  10.811 -0.1545 -0.3518 -0.1463
 4802W        W20271   8.455   7.029  15.345  0.0704  0.1550  0.0445
 4803W        W20272   6.643   5.476  11.082  0.0578  0.0188 -0.0237
 4804W        W20273  17.605   2.715  13.732  0.0488  0.0724 -0.0567
 4805W        W20274   2.100   5.634  13.039  0.1700 -0.0135 -0.1551
 4806W        W20275  17.324   6.304   2.638  0.1466 -0.2801 -0.3259
 4807W        W20276  17.000  15.649   1.901  0.4012  0.0120  0.1326
 4808W        W20277   7.769  18.251   2.690 -0.0722 -0.2140 -0.3698
 4809W        W20278  17.577  16.970  12.311  0.2733 -0.0944 -0.1307
 4810W        W20279  12.682  15.381  13.460  0.1720  0.3395 -0.0047
 4811W        W20280   6.889   4.044   3.356 -0.3029 -0.0703 -0.3267
 4812W        W20281  11.142  17.591   2.309 -0.3527 -0.1269  0.0846
 4813W        W20282   8.534   2.726   0.959  0.0618 -0.1260 -0.1197
 4814W        W20283  10.017   0.853   1.218 -0.2669 -0.1942  0.1360
 4815W        W20284   5.885  12.141  15.088 -0.1355 -0.0097 -0.1305
 4816W        W20285   6.284   2.616   3.244 -0.0853 -0.5011  0.1857
 4817W        W20286   4.200  11.658  13.885  0.2978  0.0954 -0.3844
 4818W        W20287   1.634   1.536  11.974 -0.1464  0.2200 -0.2459
 4819W        W20288  11.939  14.810  10.243  0.3254 -0.2397  0.1977
 4820W        W20289  16.885   9.132  15.053 -0.1268 -0.0552  0.3206
 4821W        W20290  12.843  13.719  15.709 -0.0788 -0.0478 -0.1479
 4822W        W20291   6.199   8.705  13.737  0.0638  0.1770 -0.1436
 4823W        W20292   6.582   7.603  11.841 -0.1489  0.3169 -0.1804
 4824W        W20293   1.601  14.294  15.207 -0.2355 -0.0241 -0.0708
 4825W        W20294  13.766   4.452   4.134  0.1859 -0.3610 -0.1183
 4826W        W20295   1.974   2.753  12.409  0.0006 -0.0836 -0.1578
 4827W        W20296  10.662   3.385  11.753 -0.2778 -0.0624  0.2162
 4828W        W20297   5.031   1.957   0.473  0.2055 -0.2321  0.1590
 4829W        W20298  17.166  17.513   3.123  0.1592 -0.1646 -0.0117
 4830W        W20299   7.821   1.946  12.170 -0.4607  0.0520 -0.0010
 4831W        W20300  10.944   5.156  11.109 -0.1145 -0.1781 -0.1730
 4832W        W20301   7.922  18.689  15.032  0.1257 -0.4147  0.1960
 4833W        W20302  12.760  11.635   0.441 -0.2214 -0.0509 -0.0017
 4834W        W20303   5.176  17.169   1.008 -0.0776 -0.1393 -0.0940
 4835W        W20304   5.895  13.607  12.472  0.0179  0.0899  0.3758
 4836W        W20305  14.780   5.200   2.299 -0.2550  0.0239  0.1996
 4837W        W20306   2.334   7.367  15.223 -0.2398  0.2471 -0.3964
 4838W        W20307   2.223  15.823  13.150 -0.1763  0.1101  0.2238
 4839W        W20308   2.847   6.329   3.381  0.0015  0.1517  0.2019
 4840W        W20309  17.378   7.310   5.324  0.0492 -0.0813 -0.0708
 4841W        W20310   1.767   5.157  15.159 -0.0419 -0.4132  0.3691
 4842W        W20311   6.649   1.221  14.355 -0.3523 -0.1271  0.0196
 4843W        W20312  16.099   5.612  10.648 -0.2536 -0.2021 -0.1922
 4844W        W20313   7.997  12.171   5.019  0.0458 -0.1764 -0.0289
 4845W        W20314   5.237   5.581  11.711  0.3839 -0.1792  0.0607
 4846W        W20315   9.443  11.632  11.438 -0.0401  0.1055  0.0361
 4847W        W20316   4.249   7.288  11.681  0.1878 -0.1745 -0.2266
 4848W        W20317   6.698  16.022   5.258 -0.2915  0.2472  0.0069
 4849W        W20318   4.860  13.735  12.391  0.1506 -0.1074 -0.1807
 4850W        W20319   1.939  16.240   3.809 -0.0817  0.0010  0.2001
 4851W        W20320  12.106  18.038   1.632  0.3698  0.0774  0.0848
 4852W        W20321  15.592   8.971  15.316 -0.1595  0.0580  0.1020
 4853W        W20322   0.813  17.627   3.350 -0.2384 -0.5565 -0.1889
 4854W        W20323   8.996  13.479   1.830  0.3149  0.1181 -0.1847
 4855W        W20324  18.427   7.997  12.655 -0.1783  0.0415 -0.0200
 4856W        W20325   5.414   3.792  11.725  0.3897  0.1203  0.0758
 4857W        W20326   3.661   5.110  13.899 -0.1963  0.1002 -0.2441
 4858W        W20327   4.197   8.643   3.988 -0.0614  0.0483 -0.4350
 4859W        W20328   8.886   8.844  15.373 -0.1058  0.2704  0.1085
 4860W        W20329  11.024  13.281  11.884 -0.2929 -0.2769  0.0305
 4861W        W20330  16.785   1.449   4.307 -0.1079 -0.0658  0.2026
 4862W        W20331  10.026   6.606   2.730  0.1624  0.2149 -0.0129
 4863W        W20332   0.680   3.899  10.379 -0.1411 -0.1272 -0.3101
 4864W        W20333   1.726   8.731   5.032  0.3437  0.0584  0.1920
 4865W        W20334  16.485   1.546  12.028 -0.1332 -0.0813 -0.1803
 4866W        W20335  10.211   6.702   1.832  0.1862 -0.2174 -0.1248
 4867W        W20336  11.983  18.354   4.279  0.0301 -0.1921  0.0225
 4868W        W20337   5.299  11.442   4.490 -0.0891  0.3574 -0.0961
 4869W        W20338  16.892   5.150  12.682  0.0628  0.0473  0.0821
 4870W        W20339  18.621  12.539  12.928 -0.1835  0.0651  0.1444
 4871W        W20340  10.063   2.109   3.018 -0.5019  0.0579 -0.0319
 4872W        W20341   8.485   5.350  14.071  0.0749  0.0811  0.3927
 4873W        W20342   7.752  16.585  13.341 -0.1413 -0.2679  0.1369
 4874W        W20343   1.221   5.982   4.544  0.3887 -0.0982  0.3433
 4875W        W20344   0.110  16.832   2.742  0.0689  0.1223 -0.1290
 4876W        W20345   1.077  12.202  14.916  0.1873 -0.0066  0.4188
 4877W        W20346  15.323   1.065  14.584  0.1608  0.1761  0.0568
 4878W        W20347   7.501  15.366   1.619  0.2288 -0.1486  0.2759
 4879W        W20348   4.661   6.021  13.653  0.3195  0.2118 -0.0286
 4880W        W20349   6.199   3.699  12.227  0.1302 -0.3555 -0.0046
 4881W        W20350   2.734  16.257  10.943 -0.0294  0.0440 -0.1226
 4882W        W20351  11.211   6.946  10.601  0.2014 -0.3912  0.2559
 4883W        W20352  13.420  14.226  12.207 -0.0944  0.3381 -0.0935
 4884W        W20353   7.887  18.181   5.396 -0.0946  0.0231  0.2398
 4885W        W20354   0.064   9.168   0.219  0.0414 -0.1796 -0.0657
 4886W        W20355  16.184   2.109   3.694 -0.1461  0.3084  0.0780
 4887W        W20356  13.548   0.910  13.262 -0.0895 -0.1759 -0.3548
 4888W        W20357   4.821  10.503  15.657 -0.1812 -0.0322  0.1666
 4889W        W20358   1.854  11.199   6.011 -0.2381  0.2156  0.0444
 4890W        W20359  18.075  15.683  11.954  0.0090 -0.2268 -0.0646
 4891W        W20360   3.980  16.824  15.236 -0.1296  0.1273 -0.0251
 4892W        W20361   9.196   8.613  12.299  0.0676 -0.0299  0.0612
 4893W        W20362   7.729  11.517   1.512 -0.0650  0.1099 -0.2238
 4894W        W20363   4.381   5.509   1.446 -0.1087  0.1621 -0.0463
 4895W        W20364   3.143   1.286  10.760  0.1634 -0.0381  0.4893
 4896W        W20365   4.256  15.631   1.249  0.1459  0.0340  0.0694
 4897W        W20366   8.919   0.255   1.390  0.5050 -0.3436  0.0949
 4898W        W20367  15.687  13.957   1.004 -0.0374 -0.1135 -0.0006
 4899W        W20368  17.378  13.160  11.940 -0.1564  0.1869  0.2252
 4900W        W20369  17.839   0.751  11.426  0.3188 -0.2354 -0.3477
 4901W        W20370   1.410  11.139   0.385  0.1822  0.0096  0.0922
 4902W        W20371  15.446   2.661  14.717 -0.1736  0.1247  0.0860
 4903W        W20372   8.164  16.315  11.955 -0.0610  0.0893  0.0392
 4904W        W20373   3.899   5.124   4.501  0.2414  0.1539  0.1763
 4905W        W20374   7.951   8.849   5.268 -0.2130  0.0179 -0.3205
 4906W        W20375   1.977   4.348  14.928  0.1963  0.3587  0.0313
 4907W        W20376   3.346  13.467  11.873 -0.1349  0.0774 -0.2257
 4908W        W20377  14.809   8.095   0.478 -0.0767 -0.0325  0.3288
 4909W        W20378   1.392  16.312   3.544 -0.1350  0.1790 -0.0766
 4910W        W20379  11.400  16.168  13.114  0.1707  0.3414  0.0077
 4911W        W20380  14.794   0.101   2.264 -0.1494  0.0405  0.0866
 4912W        W20381  11.822  12.773   1.104 -0.1851  0.3898  0.0761
 4913W        W20382  14.247  13.983   0.480  0.0277  0.0835 -0.0029
 4914W        W20383  14.644   7.741  12.876  0.2585  0.1044  0.1375
 4915W        W20384   8.864   6.629   0.437 -0.0431 -0.0773  0.0011
 4916W        W20385  17.077   0.132  11.328 -0.0768  0.1536 -0.2345
 4917W        W20386   5.997   6.050   3.053 -0.1721 -0.1541  0.1910
 4918W        W20387   6.443  11.420  14.080 -0.2870 -0.0364 -0.0995
 4919W        W20388   8.458   5.704  15.511  0.3460 -0.1022 -0.0365
 4920W        W20389   9.061  12.035   1.052 -0.3054 -0.1555  0.2982
 4921W        W20390   6.121  16.888   1.147  0.1861 -0.3817  0.0639
 4922W        W20391   1.735  15.864   1.027 -0.1858  0.0882  0.2999
 4923W        W20392  16.209   2.622   2.070  0.1245  0.0682 -0.0445
 4924W        W20393   4.835  13.548   0.764 -0.0710  0.2310 -0.1436
 4925W        W20394  12.746  13.772   1.120  0.0282 -0.0041 -0.1390
 4926W        W20395  12.592  12.332   5.096 -0.0871  0.0103  0.1413
 4927W        W20396  10.704   4.028  10.409  0.1606  0.1680 -0.0840
 4928W        W20397  11.369   2.782   9.589 -0.3699 -0.0968  0.1716
 4929W        W20398   2.714  17.107   1.877 -0.3571 -0.1675  0.3013
 4930W        W20399   7.931  17.179   2.624 -0.0881  0.0751  0.2537
 4931W        W20400   8.801   0.566   0.643 -0.3111 -0.0650 -0.0500
 4932W        W20401   8.260   4.287  11.980  0.0818  0.2470  0.2332
 4933W        W20402  17.525   5.890   0.332  0.2104  0.1016 -0.1608
 4934W        W20403   2.155  18.325  13.641 -0.3785  0.2084 -0.1966
 4935W        W20404  10.895  11.120  13.866  0.1203 -0.0091  0.1777
 4936W        W20405   8.637   2.939  11.386  0.2978  0.2286  0.2609
 4937W        W20406   5.189   3.902  10.675  0.2261  0.0904  0.0295
 4938W        W20407  18.638  16.700   0.339 -0.0091  0.0999  0.0530
 4939W        W20408   4.082  15.033   3.110  0.1336  0.1624  0.0528
 4940W        W20409   0.019   4.488   1.333 -0.0028  0.1728  0.1937
 4941W        W20410  10.141   0.108   1.653 -0.1369 -0.1204 -0.1098
 4942W        W20411  16.894  18.030   9.833  0.3184  0.2175 -0.1829
 4943W        W20412  15.907   5.083  10.823  0.0085 -0.1286  0.3208
 4944W        W20413  12.457  16.035  14.484 -0.2046 -0.0786 -0.0867
 4945W        W20414   8.583  16.480   3.443 -0.0040 -0.0307 -0.0630
 4946W        W20415  11.515   7.911  13.196 -0.1204  0.1639 -0.0138
 4947W        W20416   8.650  16.260   4.360  0.0622 -0.0292  0.1626
 4948W        W20417   9.364   7.685   5.089 -0.1909  0.0977 -0.2772
 4949W        W20418  14.866  12.987   4.152  0.1336 -0.0307 -0.1502
 4950W        W20419  14.711   3.872   5.732  0.2397  0.1859 -0.2482
 4951W        W20420   1.941   5.957   5.355  0.0527 -0.0673  0.0096
 4952W        W20421  12.917   7.562  11.511 -0.0059 -0.1764 -0.3978
 4953W        W20422   8.454   2.746  15.651 -0.2176  0.2742  0.0973
 4954W        W20423  13.567   8.955   2.868  0.0612 -0.1040 -0.0154
 4955W        W20424  13.771  15.114   5.105 -0.0560 -0.2935 -0.0279
 4956W        W20425   6.588   7.131  12.732  0.2251 -0.0548  0.1481
 4957W        W20426   4.765   8.033  14.541  0.2512  0.0366  0.0269
 4958W        W20427   6.882  18.497   2.405  0.0838 -0.0715  0.1927
 4959W        W20428  10.516  16.117  12.654  0.0272  0.1861  0.0754
 4960W        W20429  11.680  13.265  11.043 -0.0046  0.2228 -0.1505
 4961W        W20430   1.547  11.455  13.476  0.0729 -0.2206  0.0274
 4962W        W20431   4.682   8.748  15.142  0.2396  0.2388 -0.2656
 4963W        W20432   5.278   1.287  13.292 -0.2557 -0.0947 -0.0864
 4964W        W20433   5.259  18.382   9.705  0.3228  0.0780  0.0043
 4965W        W20434   5.433   0.701   4.885 -0.0342 -0.3102 -0.0936
 4966W        W20435   2.351  13.788   4.324 -0.2342  0.2006 -0.0831
 4967W        W20436  11.593   0.010  13.378 -0.0638  0.0620  0.0521
 4968W        W20437  13.887  13.758  11.556 -0.2766 -0.3390 -0.2837
 4969W        W20438  16.799   4.129  10.594 -0.0715 -0.2281 -0.0526
 4970W        W20439   4.521  16.622  13.611 -0.1866 -0.1970  0.2287
 4971W        W20440  14.577  18.125  11.718  0.1301 -0.0441  0.3706
 4972W        W20441  10.639   1.338   3.940 -0.1802  0.1445  0.0328
 4973W        W20442  11.402   6.112  14.869 -0.1769 -0.1032  0.1453
 4974W        W20443   1.212   9.125  13.105 -0.3287 -0.1518 -0.1811
 4975W        W20444   7.355   6.584  11.339 -0.0209 -0.0529 -0.1789
 4976W        W20445   0.177  14.880  13.018  0.1424  0.2602  0.0204
 4977W        W20446  15.083   4.014   1.952  0.0038  0.2416 -0.2413
 4978W        W20447  12.904   1.802   0.963 -0.1346  0.0020  0.0046
 4979W        W20448  11.449   5.385   3.472 -0.1833  0.4119 -0.0139
 4980W        W20449   5.301   6.054   4.347 -0.0033  0.1696 -0.1702
 4981W        W20450  13.148  13.109   4.250 -0.2068 -0.3462  0.1109
 4982W        W20451   8.892   4.241   4.125 -0.5177  0.1904 -0.2128
 4983W        W20452   9.519   6.272   5.207 -0.3035 -0.0751  0.0022
 4984W        W20453  10.895  17.078  13.263  0.3261  0.1542 -0.1489
 4985W        W20454  18.625  15.057   1.778  0.0678  0.3758  0.2240
 4986W        W20455   7.929   6.652   0.423 -0.0825 -0.1514  0.1185
 4987W        W20456  16.723   5.041  14.499  0.3130 -0.2800 -0.2299
 4988W        W20457  15.135   9.314  15.204 -0.2060 -0.1990 -0.0739
 4989W        W20458   1.697   9.412  12.841 -0.2641 -0.0698  0.2631
 4990W        W20459  11.096  17.859  13.380 -0.0120 -0.2086 -0.0753
 4991W        W20460   3.459  18.343   9.340 -0.3437 -0.1255  0.0243
 4992W        W20461  16.267  16.478   5.314  0.3013  0.4654  0.0636
 4993W        W20462  13.241  15.438  14.568 -0.0102 -0.0953  0.2284
 4994W        W20463   7.239   9.233  14.786 -0.0340 -0.1347 -0.2349
 4995W        W20464  11.962   0.781   2.686  0.0169 -0.0204  0.2879
 4996W        W20465  13.488   8.681   1.842  0.1252  0.1894  0.1885
 4997W        W20466  13.845  10.944  11.810  0.0968  0.2645 -0.0173
 4998W        W20467   8.025  17.621  15.096 -0.3226 -0.1481  0.1541
 4999W        W20468   1.410  13.277   2.871  0.2857 -0.1110  0.0331
 5000W        W20469   8.457  15.090   4.775 -0.2682 -0.0064  0.1196
 5001W        W20470  17.934   2.189   3.383  0.1241 -0.1293 -0.4923
 5002W        W20471  10.391   8.569   0.847 -0.0066 -0.0585  0.4462
 5003W        W20472  11.073  11.729  14.433 -0.1764 -0.1784  0.0091
 5004W        W20473  17.517  11.356  15.098 -0.0098  0.0875  0.1312
 5005W        W20474   6.605   9.057   1.390  0.2121 -0.1342 -0.0433
 5006W        W20475   8.072  14.023   0.140  0.2387  0.1563  0.1319
 5007W        W20476  13.398  17.969  13.589  0.2465  0.0119 -0.0690
 5008W        W20477  15.307   2.690   4.144 -0.0158 -0.2216  0.0132
 5009W        W20478   6.075   0.939  13.608  0.1785  0.0236 -0.1694
 5010W        W20479   3.899   6.677  14.263  0.0708  0.2050  0.0068
 5011W        W20480  17.440   7.231   1.758  0.0415 -0.3469  0.0354
 5012W        W20481   6.079  14.287  12.950  0.0193 -0.0731 -0.0598
 5013W        W20482   4.612  16.529   4.895 -0.1979  0.1350 -0.0591
 5014W        W20483  12.299   8.345  10.983  0.0667 -0.1055  0.0152
 5015W        W20484  18.418   0.095  12.698  0.1288  0.1176 -0.0585
 5016W        W20485  17.902   1.402   0.526  0.0243 -0.0681 -0.0426
 5017W        W20486   5.867  10.170   4.459 -0.0268 -0.0344 -0.0007
 5018W        W20487   3.608  13.990   0.322 -0.2419 -0.1261  0.1206
 5019W        W20488  18.516  12.582   2.947  0.1112  0.1941 -0.2345
 5020W        W20489   2.086  18.401   0.895 -0.0343  0.4990 -0.1050
 5021W        W20490  16.808   2.599  12.940  0.0313 -0.1157  0.2772
 5022W        W20491  13.618  14.422  10.406  0.1349  0.0942  0.2709
 5023W        W20492   7.723   8.543  12.967 -0.0024  0.0626  0.1699
 5024W        W20493   5.691  18.158  11.298 -0.0027  0.2197 -0.2696
 5025W        W20494  10.347   4.581  10.122  0.0959 -0.0667 -0.0585
 5026W        W20495   1.916  10.922  11.128  0.0096 -0.0098  0.4311
 5027W        W20496   8.272   3.168   4.129 -0.2883 -0.5325  0.3794
 5028W        W20497   7.444   7.863  14.984 -0.3833 -0.0658  0.1046
 5029W        W20498   2.857  17.087   3.184  0.2322  0.1283 -0.1744
 5030W        W20499  10.205  12.933  13.892  0.1342  0.0149 -0.0611
 5031W        W20500   0.618   2.169   3.252  0.2542  0.1978 -0.0527
 5032W        W20501  11.755  14.414   5.075 -0.2358 -0.0259  0.1471
 5033W        W20502   2.027  15.685  14.775  0.3530  0.1850  0.0299
 5034W        W20503  16.283  18.609   2.655 -0.1587  0.1367 -0.3646
 5035W        W20504  13.877   7.252   1.019  0.0126 -0.0525 -0.4228
 5036W        W20505   0.260  15.975   4.855 -0.0528  0.0144 -0.1615
 5037W        W20506  10.069   1.055   4.511 -0.1470  0.5553  0.1008
 5038W        W20507  14.635   3.238   0.203 -0.4186  0.1171 -0.3340
 5039W        W20508  12.134  12.583   5.102 -0.1088 -0.1488 -0.0450
 5040W        W20509   6.162  12.180   2.849 -0.2921 -0.0150 -0.3498
 5041W        W20510   2.774   5.558   2.126  0.1423  0.0737 -0.1725
 5042W        W20511   1.857   4.518  13.821 -0.0896  0.1644 -0.2069
 5043W        W20512   1.408  10.028   4.606  0.1847 -0.1437  0.0743
 5044W        W20513   1.676  15.901  11.813 -0.1324 -0.0005 -0.0705
 5045W        W20514   8.012  10.061   2.980  0.2193  0.2221  0.1069
 5046W        W20515   9.288   1.747   1.953 -0.0580 -0.3530 -0.0362
 5047W        W20516   9.656  12.668   3.259  0.3782 -0.2055 -0.0259
 5048W        W20517  10.251  11.138   1.587 -0.1133  0.1756 -0.0168
 5049W        W20518  16.602   9.354  12.993 -0.0922 -0.0676 -0.0203
 5050W        W20519  10.805   5.509   1.448  0.2955  0.1218 -0.1149
 5051W        W20520   6.718  16.487   2.624  0.1035 -0.1004 -0.2883
 5052W        W20521   4.397   8.261   3.678 -0.0428  0.1185 -0.1648
 5053W        W20522   7.085   2.114   1.432  0.0356 -0.3206  0.0204
 5054W        W20523   0.281  18.597  11.711  0.1148  0.0524 -0.2602
 5055W        W20524   5.350  12.924  12.804  0.2646 -0.3352  0.0202
 5056W        W20525   3.743  17.398  12.355  0.1240  0.1993 -0.0934
 5057W        W20526   8.350   6.465   0.250 -0.1478 -0.1415 -0.1029
 5058W        W20527  16.004  13.627  15.249  0.4034 -0.2533 -0.3858
 5059W        W20528   3.244  16.920   5.329  0.0643 -0.3281  0.0180
 5060W        W20529  10.483   7.777  14.789  0.0382  0.0318  0.2676
 5061W        W20530   9.302   6.282  14.517  0.2873  0.1715 -0.0713
 5062W        W20531  10.217   0.611  12.007  0.1658  0.1744  0.2097
 5063W        W20532   6.819  17.433  15.042  0.1434  0.0316 -0.0116
 5064W        W20533  10.820   5.406  10.219 -0.0500  0.1678  0.1070
 5065W        W20534   8.675   8.653   4.555  0.1614 -0.0680 -0.0280
 5066W        W20535   7.521  15.793   2.850 -0.3200 -0.0278  0.1509
 5067W        W20536  14.011   0.901   3.967  0.0502  0.0850 -0.1700
 5068W        W20537   6.336  15.397  15.423 -0.1727  0.0501  0.0050
 5069W        W20538   7.105  17.190  13.065 -0.0011  0.0055  0.2945
 5070W        W20539   9.475  12.169   0.750 -0.3819 -0.1195  0.0663
 5071W        W20540  16.877  11.693  11.699  0.1716  0.1400  0.0736
 5072W        W20541   5.455  11.307  12.463 -0.0605 -0.2410 -0.0037
 5073W        W20542  15.584  16.547   4.696 -0.1568 -0.0690 -0.3672
 5074W        W20543   9.071  17.950  13.782  0.1417  0.0892 -0.4531
 5075W        W20544  11.963  15.820   5.423  0.0292  0.2765  0.2366
 5076W        W20545  13.643   0.459  11.193  0.1100 -0.0069 -0.1108
 5077W        W20546  14.405  17.969   3.525 -0.0717  0.0253  0.0496
 5078W        W20547  18.233  18.057  10.587 -0.4973  0.2653 -0.0210
 5079W        W20548   6.044  16.876  11.058  0.0216 -0.0405 -0.0477
 5080W        W20549   4.801  16.847   1.089 -0.2937  0.0556  0.0656
 5081W        W20550  13.107  13.328   1.826  0.1224  0.2397 -0.1212
 5082W        W20551   0.960   1.827   4.650 -0.0712  0.0760  0.0849
 5083W        W20552  16.785  10.132   3.483  0.2875  0.3256 -0.1784
 5084W        W20553  16.482  12.070  12.511  0.1605  0.2529 -0.4374
 5085W        W20554  15.940   5.985   1.631  0.1117 -0.2026 -0.0030
 5086W        W20555   9.056  13.653  12.836 -0.1332  0.0231 -0.2333
 5087W        W20556   7.294  14.931   0.707 -0.0511 -0.0854 -0.1643
 5088W        W20557   4.727   3.784  11.148 -0.2628 -0.0436  0.0604
 5089W        W20558   6.849  10.547  15.165  0.1782 -0.1823 -0.2602
 5090W        W20559  17.114  12.786  14.005 -0.4619  0.2820 -0.2415
 5091W        W20560   8.138  16.735  14.593  0.2596 -0.0691 -0.0879
 5092W        W20561   6.172  18.310  11.341 -0.1498  0.0651 -0.2131
 5093W        W20562   4.929  14.191  14.907  0.3395 -0.1641  0.1419
 5094W        W20563  15.381   2.617  13.293 -0.3494 -0.2288 -0.5670
 5095W        W20564   2.327   3.616   2.306  0.0888  0.2410  0.3648
 5096W        W20565  18.360   2.462  14.187  0.2687 -0.2055 -0.0971
 5097W        W20566  18.388   3.930   1.535 -0.0225  0.0231  0.0146
 5098W        W20567  12.734   7.662   1.422  0.0666  0.3722  0.1270
 5099W        W20568  16.652  17.151  11.863 -0.2074 -0.2498 -0.1829
 5100W        W20569   4.813   4.180   4.228 -0.1921  0.2252 -0.1922
 5101W        W20570  11.151   1.102   0.653 -0.1889  0.1779 -0.1671
 5102W        W20571  12.692   8.083   3.611  0.0614 -0.1483  0.1046
 5103W        W20572   1.738  14.654  12.841 -0.1092 -0.1904 -0.2411
 5104W        W20573   7.838   6.788  12.743  0.1369  0.0535  0.0925
 5105W        W20574  14.286  16.242   1.915  0.1048 -0.0732  0.0480
 5106W        W20575   6.675   9.839   3.831  0.1157  0.1797  0.0665
 5107W        W20576   7.585  10.148  15.111  0.2796 -0.0626  0.2129
 5108W        W20577  12.260   6.301   1.826 -0.2079  0.1454 -0.0081
 5109W        W20578  16.075  15.257  15.557 -0.0825  0.1005 -0.1577
 5110W        W20579  17.697  11.075   2.172  0.2569 -0.1723  0.0657
 5111W        W20580   0.277  13.771   2.470 -0.1354  0.2606  0.0367
 5112W        W20581   7.867  16.294   0.630  0.1711  0.1041 -0.2379
 5113W        W20582   7.396   5.955  13.319  0.1697 -0.0304 -0.2013
 5114W        W20583  12.094   7.399  14.456 -0.2104  0.1773  0.2264
 5115W        W20584   9.274   9.579   4.115 -0.1227 -0.2999 -0.1041
 5116W        W20585  15.468  14.780   2.603 -0.0205  0.1683 -0.1319
 5117W        W20586   9.621   5.323  15.768  0.2904  0.0435  0.2665
 5118W        W20587   3.653   1.314   2.877  0.0456 -0.0315  0.0530
 5119W        W20588   5.089   0.813   3.772 -0.1706 -0.0207  0.0811
 5120W        W20589   1.206  16.571  10.586 -0.2271  0.1027 -0.0617
 5121W        W20590  11.605  18.352  13.989  0.0344  0.0969  0.1421
 5122W        W20591   0.362  16.631  12.683 -0.2373  0.3435 -0.1411
 5123W        W20592   0.433   7.671   2.779  0.0885  0.0380  0.0316
 5124W        W20593   3.935   2.686  12.639  0.0194  0.0531  0.1824
 5125W        W20594   1.930  11.721  13.639  0.1802 -0.0336 -0.2082
 5126W        W20595  18.622  15.950  12.085  0.0553  0.0871  0.6044
 5127W        W20596  14.288  17.993  11.051 -0.1527 -0.1140 -0.0769
 5128W        W20597   4.737   1.357  12.746 -0.0054 -0.1905  0.0543
 5129W        W20598  14.590   9.381  14.679  0.0446 -0.0009 -0.1888
 5130W        W20599  17.194  16.326  13.484 -0.0231 -0.2274 -0.2085
 5131W        W20600   6.839   3.779   1.977  0.1546 -0.0294 -0.0517
 5132W        W20601  10.161   4.196   1.198  0.0243 -0.2259 -0.0243
 5133W        W20602  11.895   0.424   0.519 -0.0952  0.0439 -0.0317
 5134W        W20603  15.468  17.624  15.416  0.1764  0.1001 -0.1123
 5135W        W20604  11.958  13.634   6.232 -0.0558  0.3478  0.3443
 5136W        W20605  17.312  17.226   3.944  0.2501 -0.3308  0.3145
 5137W        W20606   1.584   7.553  12.159 -0.1777 -0.1221  0.2455
 5138W        W20607  10.058  13.121   4.697 -0.1694  0.1752 -0.1840
 5139W        W20608   6.011   7.211   2.782  0.2256  0.1389 -0.1170
 5140W        W20609  12.723   6.557  14.968  0.3377 -0.0033 -0.0053
 5141W        W20610   8.541  11.359  12.959  0.0231  0.0498 -0.1965
 5142W        W20611  18.338  11.795   0.571  0.0115 -0.0568 -0.0290
 5143W        W20612  18.319   3.676  15.185 -0.0763  0.2517  0.2980
 5144W        W20613  16.357  18.227  14.812 -0.1685  0.0934 -0.2983
 5145W        W20614   8.873  11.564   0.642  0.2014 -0.0625 -0.1476
 5146W        W20615  16.332   7.639  15.616  0.3279 -0.1864  0.0916
 5147W        W20616  17.059   7.879  15.250 -0.1647 -0.2118 -0.0222
 5148W        W20617   9.229  12.623   2.425  0.1487  0.0624  0.0518
 5149W        W20618  14.362   8.540   1.343 -0.1633 -0.2349  0.2175
 5150W        W20619   3.515   4.176  12.747 -0.5061  0.3295 -0.0761
 5151W        W20620  12.390   1.847  12.355 -0.1878  0.2218  0.1422
 5152W        W20621   5.329  16.724   3.089 -0.1183 -0.0777 -0.0898
 5153W        W20622   8.559   4.187   0.734  0.1281 -0.2753  0.2790
 5154W        W20623  10.508  15.566  15.639 -0.3017  0.1482 -0.0172
 5155W        W20624  13.256   0.821  15.224 -0.1277  0.2006  0.1878
 5156W        W20625  15.204  16.240   2.519  0.2400 -0.0044  0.1691
 5157W        W20626  12.041  16.057   3.757 -0.3979  0.0820  0.2340
 5158W        W20627  16.609   8.155   3.573 -0.1995 -0.4518  0.0592
 5159W        W20628  14.390   6.724  14.503  0.3634  0.0483  0.1250
 5160W        W20629   0.871   6.104   3.212 -0.0025 -0.2396  0.0284
 5161W        W20630   5.056  18.462  10.772  0.1991  0.2004 -0.0346
 5162W        W20631   2.724   2.522   5.093  0.2925  0.1523  0.1175
 5163W        W20632   0.382  14.751   4.162  0.0127 -0.1550 -0.1823
 5164W        W20633   3.473   9.413  14.046 -0.2840  0.1402 -0.1968
 5165W        W20634  17.188   4.527   1.699 -0.4708 -0.1399 -0.2074
 5166W        W20635   4.332  11.073   3.202  0.2695 -0.0417 -0.0707
 5167W        W20636   4.854  16.085   5.208 -0.1096  0.0680  0.0660
 5168W        W20637   7.563  16.956  12.840 -0.2652  0.1174 -0.0438
 5169W        W20638  18.029   4.015  13.553 -0.1509 -0.3288 -0.0420
 5170W        W20639   0.462   6.826  11.026 -0.1198  0.5119  0.0720
 5171W        W20640   6.464  15.336  12.587 -0.0860  0.0864 -0.2243
 5172W        W20641  13.599   3.486  11.162  0.0701  0.0623  0.0746
 5173W        W20642  11.582  13.922   5.173  0.1559 -0.2743 -0.0281
 5174W        W20643   2.284   2.612  13.416 -0.1627 -0.5679  0.3851
 5175W        W20644  11.372   3.019  12.309 -0.1424  0.1399  0.0033
 5176W        W20645  13.579  10.994  11.242 -0.0578  0.1908  0.0807
 5177W        W20646  14.301  16.586   2.479 -0.0905  0.2927 -0.2954
 5178W        W20647  10.815  11.162   3.146  0.0953 -0.2354  0.2788
 5179W        W20648  15.883  15.498   4.033 -0.1391  0.2779  0.3732
 5180W        W20649   9.298  14.509   1.851 -0.2861  0.2783  0.2600
 5181W        W20650   4.727   1.003  15.140 -0.1248  0.2029 -0.0808
 5182W        W20651   3.346  16.839  10.735 -0.1558  0.0883 -0.0156
 5183W        W20652   5.820   6.956   4.885  0.1510 -0.1920  0.0388
 5184W        W20653  12.514  11.496   5.152 -0.0538  0.1243  0.1919
 5185W        W20654   8.088  11.737  14.570  0.0783  0.1386  0.0326
 5186W        W20655  11.695   0.468  13.066 -0.1983  0.1667  0.2747
 5187W        W20656  14.434  17.640   2.078 -0.1203  0.1290 -0.1185
 5188W        W20657   7.286   0.044   2.135  0.3322  0.2563  0.0565
 5189W        W20658  15.160  15.176  11.340 -0.3312 -0.2441 -0.1259
 5190W        W20659  17.780  15.088  14.991  0.2801 -0.1595 -0.2431
 5191W        W20660   6.140  12.864   2.533 -0.1039  0.1624 -0.0708
 5192W        W20661   7.835  13.511  12.672 -0.1419 -0.2314 -0.0137
 5193W        W20662  16.270  15.843   2.675 -0.0132 -0.0614 -0.0214
 5194W        W20663  12.343   5.204   5.793 -0.2210  0.2377 -0.2666
 5195W        W20664   7.542   9.899   3.182  0.1093  0.3713 -0.2225
 5196W        W20665   1.086  10.136  11.529 -0.1176 -0.0635  0.0680
 5197W        W20666   0.410   7.610   1.296  0.2053 -0.1056  0.1878
 5198W        W20667  14.278  17.664  13.007  0.1796 -0.0850  0.2166
 5199W        W20668  16.903  10.090  11.472  0.1984  0.0123  0.4786
 5200W        W20669  15.756  10.104   1.864 -0.1055  0.2103  0.0543
 5201W        W20670  18.335   5.004  15.251 -0.0517  0.1231 -0.1301
 5202W        W20671   9.535   9.560   2.582  0.1451  0.2813 -0.1007
 5203W        W20672  14.883   2.269   5.271 -0.0776 -0.2230  0.0933
 5204W        W20673   0.821  18.036  12.026 -0.0431  0.1833 -0.0064
 5205W        W20674   6.020   3.572  14.808  0.3031 -0.3085  0.3878
 5206W        W20675  13.730   1.527   5.611  0.2303  0.0520 -0.2477
 5207W        W20676   6.820   9.494   1.623  0.0689  0.3221 -0.1148
 5208W        W20677   3.849   8.141   4.850 -0.0777 -0.2369  0.1270
 5209W        W20678   0.853  17.111  14.720 -0.1149 -0.2174  0.2581
 5210W        W20679   9.437   6.724  10.668  0.2303  0.2941  0.1923
 5211W        W20680  12.028  14.859   3.449  0.0150  0.1345 -0.1113
 5212W        W20681   6.224  13.100  12.300  0.3967 -0.3201  0.0963
 5213W        W20682  13.595   3.220   2.084  0.0241 -0.2433 -0.0411
 5214W        W20683  13.070   8.757   5.165  0.1944  0.3358  0.1148
 5215W        W20684   5.399   8.883   0.626  0.3429  0.1512 -0.1911
 5216W        W20685   4.478   8.725   3.527 -0.0698  0.0519  0.0782
 5217W        W20686  11.682  12.043  12.595  0.1743  0.0067 -0.1962
 5218W        W20687   4.322   8.289   4.757 -0.0629  0.2965 -0.0027
 5219W        W20688  14.473  11.536  13.903 -0.3307 -0.2481  0.0233
 5220W        W20689  18.170  18.498   1.361  0.0030  0.0355  0.0966
 5221W        W20690   1.980  12.811  14.248 -0.0789 -0.1470  0.0011
 5222W        W20691   0.509  16.092   5.744 -0.0126  0.0805  0.2043
 5223W        W20692   8.629  12.886   0.383  0.1076 -0.1825  0.2605
 5224W        W20693  18.526  17.140  11.711  0.0097 -0.0272  0.1948
 5225W        W20694  18.021   9.761   2.595  0.0987 -0.1860  0.5231
 5226W        W20695   2.059   3.244  14.237  0.0120  0.0916  0.0451
 5227W        W20696  12.717   1.551   3.662  0.0719 -0.3627 -0.0271
 5228W        W20697   1.243  13.914   2.220 -0.2999 -0.0656  0.1176
 5229W        W20698  11.114  13.153   3.452  0.0219 -0.1567 -0.4584
 5230W        W20699  17.068  16.296   1.231  0.2019  0.4645 -0.1275
 5231W        W20700   5.298  15.049  13.976  0.1115  0.0394 -0.2065
 5232W        W20701   8.219  12.126  12.998 -0.0081 -0.1669 -0.0854
 5233W        W20702   5.270  11.561   2.364 -0.0814  0.0134 -0.1474
 5234W        W20703  16.694   9.161   5.102 -0.0353 -0.0837  0.0915
 5235W        W20704  18.259   1.528  11.423  0.1009 -0.0986 -0.1872
 5236W        W20705   2.456   0.146  14.476  0.1989  0.0705 -0.2497
 5237W        W20706  18.063  11.619  10.894  0.1695  0.0060 -0.2709
 5238W        W20707   9.494   7.033  12.726 -0.1957  0.0867  0.0236
 5239W        W20708   8.915  15.858   4.156 -0.2957  0.1714  0.0383
 5240W        W20709  18.558  17.941  11.437  0.0806  0.1699  0.0596
 5241W        W20710   6.152   5.225   2.102  0.0701  0.0094  0.0779
 5242W        W20711   4.100  18.221   5.348 -0.1242  0.0143 -0.3200
 5243W        W20712   6.557   5.936  14.693 -0.1350  0.1725  0.0267
 5244W        W20713   5.311  12.898   4.356  0.0510 -0.0869 -0.5033
 5245W        W20714   3.354   5.841  12.851 -0.0723  0.0237  0.2630
 5246W        W20715   6.851   1.484   3.709  0.1417 -0.1320 -0.0766
 5247W        W20716  10.070   3.277   2.084 -0.1492  0.2374 -0.0274
 5248W        W20717   5.281   5.987   3.862  0.2370  0.0838 -0.2254
 5249W        W20718  18.523   6.247  15.276 -0.0188 -0.2162 -0.0766
 5250W        W20719   1.516  12.654   2.029 -0.2224  0.1053  0.1294
 5251W        W20720   2.458   3.500   1.830  0.0083  0.0715  0.0658
 5252W        W20721   6.833  11.916   3.314 -0.0692 -0.2908 -0.0254
 5253W        W20722   8.994  15.292  13.390 -0.2082  0.0175  0.0021
 5254W        W20723  10.193   3.309  11.927  0.3027  0.1743 -0.0768
 5255W        W20724  14.780   1.809   1.530  0.0883 -0.2731  0.2941
 5256W        W20725  18.259  16.868   9.954 -0.0885  0.5490 -0.1027
 5257W        W20726  10.636   5.725  14.289 -0.1292 -0.1926  0.2398
 5258W        W20727  12.082   9.523  11.770 -0.1523 -0.0238  0.3065
 5259W        W20728   5.955   5.555  12.482 -0.2538  0.0241  0.0766
 5260W        W20729   8.175   9.736  11.595 -0.1198 -0.0921  0.1073
 5261W        W20730  15.645  10.583   4.554  0.1240 -0.1331  0.0699
 5262W        W20731   8.836  16.692   4.756 -0.4478 -0.2090  0.1676
 5263W        W20732  18.263  13.531   4.539 -0.1197 -0.2515 -0.3866
 5264W        W20733  11.076   2.947   2.890  0.0923  0.1451 -0.1083
 5265W        W20734   6.470  10.536  14.823  0.1742 -0.1027 -0.3905
 5266W        W20735  14.180   3.116  13.598 -0.0446  0.1914 -0.0546
 5267W        W20736   4.112   6.853   4.057 -0.0491  0.0256 -0.1387
 5268W        W20737   7.380  14.726   3.340 -0.5299 -0.0259 -0.1777
 5269W        W20738   3.348  17.510  11.024  0.0905  0.1458  0.2438
 5270W        W20739  13.119  17.068   9.549 -0.2245  0.0551  0.3317
 5271W        W20740  16.769  10.684  10.772 -0.0867  0.0916 -0.0145
 5272W        W20741   7.417  13.023   2.592  0.0827 -0.0010 -0.1818
 5273W        W20742   6.429   6.257   1.598  0.0865 -0.1335 -0.0587
 5274W        W20743   4.291  14.096   3.376  0.0186  0.5738  0.0142
 5275W        W20744  12.338  11.907  10.185 -0.2898  0.3353  0.3007
 5276W        W20745  10.726   7.825   5.815  0.0373 -0.2320 -0.2222
 5277W        W20746   1.577   0.283  13.996  0.2309  0.2554  0.1996
 5278W        W20747   1.023  13.569   4.834  0.0432 -0.1746 -0.3063
 5279W        W20748   0.941   8.500   4.614 -0.0875 -0.0249  0.0694
 5280W        W20749   0.897   8.456  11.425 -0.1194 -0.0833  0.2447
 5281W        W20750  13.206   8.295  15.732  0.1465  0.0277 -0.1310
 5282W        W20751  15.277   8.291  13.354  0.1798 -0.0956 -0.1584
 5283W        W20752   6.986   2.117  12.433  0.1487  0.1569  0.1311
 5284W        W20753  12.599  16.476   1.145 -0.0707  0.1881 -0.0749
 5285W        W20754   9.385   6.524   3.424 -0.4518  0.0359  0.1865
 5286W        W20755  17.435   4.575   0.691 -0.4140 -0.2688  0.1970
 5287W        W20756   6.667   9.820  13.622 -0.0931  0.1726  0.1349
 5288W        W20757   4.704  13.620   4.081  0.0954  0.0847 -0.4058
 5289W        W20758   4.622   2.090   2.908 -0.1001 -0.0451  0.0392
 5290W        W20759   5.989   7.600  12.047 -0.0472  0.0871 -0.1812
 5291W        W20760   4.840   2.929   3.369 -0.0144 -0.1571  0.1256
 5292W        W20761  14.571   5.233  15.043 -0.2740  0.0376 -0.0380
 5293W        W20762   1.265  14.085  11.224  0.4280 -0.3255 -0.1036
 5294W        W20763  17.051   9.354   3.916 -0.0340 -0.0368  0.0034
 5295W        W20764   8.464   7.300   4.282 -0.0125  0.2276 -0.1104
 5296W        W20765  11.249  17.377  14.503 -0.1310 -0.1313 -0.2071
 5297W        W20766  15.210  13.729  12.388  0.0668 -0.0612  0.3715
 5298W        W20767  10.536  16.270   0.155  0.2847 -0.1148 -0.0338
 5299W        W20768  16.343   8.271  15.381  0.2695 -0.0037 -0.1391
 5300W        W20769  16.484   9.900   3.850 -0.2159 -0.0043  0.1143
 5301W        W20770  17.841  10.993   0.709 -0.1020 -0.1025 -0.2163
 5302W        W20771   9.510  18.533  10.710  0.2250  0.3395 -0.0053
 5303W        W20772  10.560  10.917  13.403 -0.0267 -0.0735 -0.0069
 5304W        W20773   1.720  10.558   0.548 -0.3951  0.3033  0.0020
 5305W        W20774  10.917   0.681  11.227 -0.4124 -0.1620  0.0602
 5306W        W20775  13.907   0.056   3.807 -0.1649 -0.0245  0.1853
 5307W        W20776   7.384   6.433  13.105  0.0760  0.1550  0.2516
 5308W        W20777  13.928  11.310   5.610  0.0343  0.0695  0.2622
 5309W        W20778  13.630   0.855  11.563  0.0399  0.0928  0.2945
 5310W        W20779   1.111   6.598   5.287 -0.2099  0.0309  0.1546
 5311W        W20780   7.652  18.217   4.790  0.1226  0.1417 -0.4580
 5312W        W20781  10.116   9.012  15.316 -0.3617 -0.1252  0.0811
 5313W        W20782   8.143   8.981   3.622  0.1261  0.0615 -0.0274
 5314W        W20783   0.075  15.594  10.910  0.2337  0.3551 -0.1429
 5315W        W20784  16.747  17.319  10.964 -0.1116 -0.1578  0.1155
 5316W        W20785  18.318  11.026   1.213  0.0230 -0.0876 -0.0506
 5317W        W20786  11.970   9.179   1.649  0.1245 -0.0316  0.1585
 5318W        W20787   4.765   1.809  11.913 -0.1647  0.0667 -0.0180
 5319W        W20788  13.257  15.755   5.510  0.0042  0.0972 -0.0413
 5320W        W20789   6.066   4.220  12.173  0.0368 -0.0315  0.2009
 5321W        W20790   7.058  10.233   2.905  0.1234 -0.3353  0.0262
 5322W        W20791   8.966  10.712  11.661 -0.0317  0.0252  0.1564
 5323W        W20792   1.728  15.829   4.164 -0.0925  0.0436 -0.1660
 5324W        W20793   7.339   1.642   4.117  0.0501  0.0181 -0.2779
 5325W        W20794  16.887   5.048   4.400  0.3088 -0.1421 -0.0986
 5326W        W20795  17.847   1.986  14.902 -0.0550  0.1776 -0.0285
 5327W        W20796  16.662   4.387   1.524  0.0402  0.0280 -0.1279
 5328W        W20797   9.036  11.645  11.742  0.0132 -0.2229 -0.1040
 5329W        W20798   5.807   6.262   4.454  0.2391 -0.0501  0.0544
 5330W        W20799  11.229   6.706   1.769  0.1042 -0.0048 -0.0729
 5331W        W20800  18.655  16.053  10.930  0.0853 -0.2062 -0.0454
 5332W        W20801  13.043  13.443   0.339  0.1009  0.1976  0.0313
 5333W        W20802  14.838   9.049  11.920 -0.0251 -0.0483 -0.2172
 5334W        W20803  10.665  13.585  14.666  0.1553 -0.0389 -0.1239
 5335W        W20804  18.407   7.022   2.302  0.2668  0.0836 -0.2861
 5336W        W20805   9.653   5.253   1.748  0.0474 -0.2415  0.0129
 5337W        W20806  10.668  15.233   1.313  0.0154 -0.0276 -0.0026
 5338W        W20807  15.871  18.529   2.939  0.1238  0.4375 -0.1962
 5339W        W20808  18.689   1.763   1.426 -0.0329  0.3440  0.0675
 5340W        W20809  10.549  16.217  14.678 -0.0701  0.2959 -0.0942
 5341W        W20810   6.689  16.308  15.717  0.2206  0.0910  0.1668
 5342W        W20811   3.935   4.007   3.679  0.5472  0.0347 -0.0691
 5343W        W20812  17.941   3.509  10.924 -0.0387 -0.5328  0.2734
 5344W        W20813  16.801   9.178  12.553 -0.2090 -0.0512  0.1532
 5345W        W20814   3.224   5.601  13.393 -0.3002 -0.3807  0.2682
 5346W        W20815   7.981   2.161  11.281  0.3493 -0.1903  0.3695
 5347W        W20816   8.377  18.345   4.655  0.1216  0.2724  0.0780
 5348W        W20817  12.471   6.819  11.022  0.0519  0.0778 -0.2909
 5349W        W20818  16.816   0.194  12.826 -0.2510 -0.3313  0.1426
 5350W        W20819  11.369  11.804  13.057 -0.1557  0.1443 -0.3541
 5351W        W20820  14.726   5.291   1.166 -0.0396 -0.1942 -0.3988
 5352W        W20821  16.508  11.804   3.698  0.2182  0.4804 -0.0330
 5353W        W20822   8.874   0.856   2.161  0.0931  0.0493 -0.1924
 5354W        W20823   1.383   5.064  12.586  0.1421  0.0356 -0.2674
 5355W        W20824   6.415  11.356   6.057 -0.2956 -0.2081  0.0249
 5356W        W20825  14.186  15.295   4.042  0.0414  0.1264 -0.0728
 5357W        W20826  12.571   2.679   4.906  0.1714 -0.0607 -0.2807
 5358W        W20827   6.599   9.581   3.300 -0.2631 -0.1360  0.0283
 5359W        W20828   7.643  12.226   3.707 -0.1063 -0.2665 -0.0544
 5360W        W20829  11.980   0.848  11.250  0.2531  0.2308 -0.3157
 5361W        W20830   9.166  10.409  13.048  0.2473  0.0859  0.3254
 5362W        W20831  18.567  13.115   0.802 -0.4025 -0.1669  0.0723
 5363W        W20832  17.912  12.303   9.867  0.2334 -0.4271  0.2184
 5364W        W20833   2.696  17.517   4.013 -0.0106  0.1204  0.1862
 5365W        W20834  15.881  18.260   1.936 -0.6226  0.1622 -0.2541
 5366W        W20835  12.950   9.338  15.748  0.0572  0.1129 -0.0425
 5367W        W20836  12.674   7.024   4.785 -0.2823  0.0469  0.1937
 5368W        W20837   2.543  10.478  14.764 -0.1722  0.2350  0.0387
 5369W        W20838  16.391  15.759   4.062  0.2443  0.0754 -0.0433
 5370W        W20839  14.833  18.579   2.792  0.2049 -0.1445 -0.2245
 5371W        W20840   2.990   1.296   4.189 -0.3092  0.0905 -0.0776
 5372W        W20841   8.366  17.965  15.133 -0.2575 -0.0347 -0.0507
 5373W        W20842   1.942  16.491   2.391  0.0699 -0.0216  0.0050
 5374W        W20843  16.049   3.981  15.573 -0.2825  0.2841 -0.0305
 5375W        W20844  16.387   8.958   4.737 -0.1227  0.2049 -0.2064
 5376W        W20845   6.530   9.376  12.214  0.0354 -0.1667  0.3288
 5377W        W20846   5.795  10.688  15.637 -0.2375 -0.0219  0.2667
 5378W        W20847  14.849  10.156  15.754 -0.0025  0.1206 -0.3938
 5379W        W20848   5.374   7.162   4.802 -0.3182  0.1367 -0.0501
 5380W        W20849   1.512   8.103   3.272 -0.1884 -0.1990 -0.2161
 5381W        W20850   3.833  15.916   4.265 -0.0892  0.0582 -0.0454
 5382W        W20851   5.346   3.061   3.548 -0.0039 -0.0580  0.1189
 5383W        W20852  10.952  13.579  12.606  0.0673  0.0052  0.3095
 5384W        W20853   6.649  15.680   0.671 -0.1009  0.0224  0.1794
 5385W        W20854  16.190  13.120   4.910  0.1220  0.2389  0.0292
 5386W        W20855   0.299   3.173  13.613 -0.1144  0.0300 -0.0842
 5387W        W20856   7.436   8.041  12.929 -0.0676  0.0977  0.0936
 5388W        W20857   4.585   6.563   4.843 -0.1801 -0.2169  0.0069
 5389W        W20858   7.560   1.044   2.629 -0.2081 -0.0732 -0.0481
 5390W        W20859  18.310   9.953  14.903 -0.0393 -0.1351 -0.0529
 5391W        W20860  11.620  16.208  11.277  0.3860 -0.1158  0.0939
 5392W        W20861   6.982  16.452   5.113  0.3387  0.0572  0.3399
 5393W        W20862   1.493   8.501   1.793 -0.4298 -0.1255  0.2285
 5394W        W20863   6.525   6.422  14.221 -0.0986  0.0909 -0.5386
 5395W        W20864  11.828   1.374   1.615  0.1187 -0.1302  0.0566
 5396W        W20865  10.825  13.665  15.670 -0.1684  0.1229  0.1006
 5397W        W20866   8.770  17.247  13.526 -0.2598 -0.0862 -0.0000
 5398W        W20867   7.293  17.563  12.707  0.1807  0.0634 -0.1481
 5399W        W20868  13.997  15.124  10.904 -0.0560  0.0524  0.0814
 5400W        W20869  12.901   8.593  13.279 -0.2657  0.0361 -0.1025
 5401W        W20870   2.563   3.774   4.898  0.0896 -0.1508  0.1044
 5402W        W20871   8.984  16.875  13.826  0.0004 -0.2588  0.1751
 5403W        W20872  15.075  14.991   1.141  0.2733  0.1482  0.3551
 5404W        W20873  13.320   7.709   2.034  0.3357 -0.2789 -0.1552
 5405W        W20874  16.702  17.767  10.674  0.0264  0.0019  0.0228
 5406W        W20875  12.890  10.932   3.847 -0.4913 -0.0749 -0.2340
 5407W        W20876   3.873  16.813   4.102 -0.0224  0.0989  0.0790
 5408W        W20877  12.712  11.026  15.614  0.0440  0.0953 -0.0572
 5409W        W20878  14.319   6.572  11.743 -0.1745  0.2733  0.1184
 5410W        W20879  15.294   2.608  14.193 -0.1221  0.1398  0.1436
 5411W        W20880   8.092  10.942   2.010 -0.3023  0.1628  0.1985
 5412W        W20881  15.853  11.113   0.314 -0.2151  0.1894 -0.0153
 5413W        W20882   3.076   3.546   3.673  0.0886 -0.0792  0.1165
 5414W        W20883  16.534   7.997  14.008 -0.4367  0.1215  0.1400
 5415W        W20884   4.890   7.407   4.992 -0.0803  0.1349 -0.0819
 5416W        W20885  17.202  18.040  15.479 -0.5191  0.3979 -0.0325
 5417W        W20886   5.374   2.809  11.501 -0.2105 -0.0540 -0.2665
 5418W        W20887   5.166   7.655   2.114  0.3567  0.0526 -0.1328
 5419W        W20888   9.804   6.418   1.464  0.2762 -0.2500 -0.1676
 5420W        W20889  12.903  17.575   5.445 -0.0633  0.2286  0.2357
 5421W        W20890  13.673  12.892  12.839  0.0776  0.0933  0.3150
 5422W        W20891   8.798   8.668  14.358 -0.1872  0.1839  0.0679
 5423W        W20892  17.257  13.748  14.340 -0.0352 -0.3460  0.2069
 5424W        W20893  10.531   1.900  15.604 -0.1261 -0.0738  0.1671
 5425W        W20894  16.141  17.736   4.478 -0.3708  0.0631 -0.0431
 5426W        W20895   5.820  11.345  11.199  0.0749  0.1504  0.0682
 5427W        W20896   2.030  18.626  14.675  0.2499 -0.0048 -0.3014
 5428W        W20897  11.997  15.236   0.371 -0.0412 -0.2651  0.1659
 5429W        W20898   6.366   3.087   3.373  0.2745 -0.0437 -0.1341
 5430W        W20899   1.348   6.721   3.415  0.0055  0.0494 -0.1371
 5431W        W20900   8.490   0.894   2.713  0.0950 -0.2097 -0.1460
 5432W        W20901  18.346   1.329   0.762 -0.0428 -0.0555  0.1239
 5433W        W20902   9.606  15.176   3.043 -0.0658  0.0932 -0.1466
 5434W        W20903  16.635  10.052   4.393  0.2335 -0.4993 -0.2186
 5435W        W20904  16.267  10.458  11.044  0.0693 -0.1808  0.1779
 5436W        W20905  13.861  12.956   0.507  0.2512  0.2331 -0.1071
 5437W        W20906   9.318   7.191   0.012  0.3231  0.4060 -0.1433
 5438W        W20907   2.089   4.082   0.306 -0.1609  0.1433  0.0250
 5439W        W20908  15.691   8.585  13.485 -0.0086 -0.1691  0.1459
 5440W        W20909  18.658  17.749  10.433 -0.0763 -0.1264  0.2827
 5441W        W20910   7.705   1.678   2.111 -0.4153 -0.0515 -0.0132
 5442W        W20911   0.964  10.753  15.701  0.0980 -0.3979 -0.0659
 5443W        W20912  17.223   2.430  10.398  0.4174 -0.0661  0.0933
 5444W        W20913   6.647  13.714   4.193  0.0316  0.2247 -0.5075
 5445W        W20914  13.834  12.769   2.579 -0.0914 -0.0091  0.0728
 5446W        W20915  10.502  16.633  11.907  0.0300  0.1175  0.0943
 5447W        W20916   5.060   3.867   1.704  0.0329  0.2132 -0.0113
 5448W        W20917  11.263   8.878   1.418  0.0995 -0.0967 -0.3480
 5449W        W20918   3.508   2.785  15.512  0.3564  0.0601 -0.2319
 5450W        W20919   3.241   1.914   1.382 -0.0049 -0.1292  0.1021
 5451W        W20920  14.388  18.158   2.017 -0.0065  0.0032 -0.0566
 5452W        W20921   9.473   2.687   9.994 -0.0995 -0.2237  0.1298
 5453W        W20922  12.436  17.738   0.279 -0.3064  0.0962  0.0194
 5454W        W20923   7.948  13.673   0.479 -0.1783 -0.4293  0.1920
 5455W        W20924   7.385   7.267   5.334  0.1874 -0.1100 -0.0693
 5456W        W20925   3.760  17.710  13.213 -0.2192  0.4033  0.0257
 5457W        W20926  13.365  17.038  15.233  0.3158 -0.0231 -0.0679
 5458W        W20927  14.086   6.299  11.397 -0.0564 -0.1198 -0.2016
 5459W        W20928   5.512   3.541  14.049 -0.0852  0.0752 -0.2456
 5460W        W20929  17.598   5.229   3.522  0.1004  0.0828 -0.0703
 5461W        W20930  16.387   5.015   1.394  0.0761  0.2484  0.0152
 5462W        W20931  14.965  11.170  11.249 -0.0939  0.0193  0.1066
 5463W        W20932   6.330  17.271  13.692 -0.2438 -0.1705  0.0335
 5464W        W20933  11.908   6.130  10.986 -0.0272  0.3747  0.2300
 5465W        W20934   4.090  17.816   0.603  0.1813 -0.0762  0.2766
 5466W        W20935  15.263  15.042  12.275  0.2049  0.1676 -0.1730
 5467W        W20936  10.355   4.954  13.337  0.0349 -0.1194 -0.1188
 5468W        W20937  12.424  11.289   0.182 -0.1138  0.1657  0.1929
 5469W        W20938  16.187   9.181   1.173 -0.1750 -0.0720  0.1117
 5470W        W20939  11.254  15.216   4.182  0.0660  0.0291 -0.0241
 5471W        W20940   9.377  18.394   5.123  0.0156  0.0985  0.2439
 5472W        W20941   3.763   0.506   3.374  0.0002  0.1217  0.3236
 5473W        W20942   6.747  14.100  12.324  0.1678 -0.1447  0.0157
 5474W        W20943   5.102  12.389  11.830  0.1488  0.2053  0.1303
 5475W        W20944   1.763   8.232  14.906  0.2181 -0.0677 -0.2188
 5476W        W20945   3.010  16.039  13.011  0.0867 -0.1572 -0.1300
 5477W        W20946   6.904   0.965   3.489 -0.3516  0.1625 -0.2282
 5478W        W20947  12.322   7.803  13.599 -0.2116 -0.0587 -0.1803
 5479W        W20948  17.508   2.035  14.144  0.1762 -0.2759 -0.3304
 5480W        W20949  17.761   7.957   9.964  0.1848 -0.0131 -0.1912
 5481W        W20950   8.923   6.794  15.272 -0.0033  0.3243  0.0276
 5482W        W20951  14.754   5.371   0.018  0.1524 -0.0903 -0.2125
 5483W        W20952  14.512   1.739   0.519  0.3174 -0.3307 -0.3051
 5484W        W20953   6.659  11.593   1.139  0.1260 -0.0135  0.1182
 5485W        W20954  10.451  13.825   1.348 -0.0907  0.0014 -0.2704
 5486W        W20955  13.234   6.179   4.355 -0.3214 -0.0393 -0.0874
 5487W        W20956   1.074  10.358   2.892  0.0509 -0.1276  0.1483
 5488W        W20957   6.477  10.360   1.196  0.0832 -0.0152  0.0835
 5489W        W20958   8.049   4.858   0.275  0.0136  0.1254 -0.1983
 5490W        W20959   3.263  15.752   4.817  0.1472  0.4902  0.1812
 5491W        W20960  18.263  13.279   4.942  0.3709 -0.0289 -0.1907
 5492W        W20961   6.869   9.921   1.115  0.1177 -0.2677  0.0980
 5493W        W20962   8.946  17.403   3.507  0.5077 -0.0284 -0.0470
 5494W        W20963  13.134   8.333  11.611  0.1807 -0.2788 -0.1560
 5495W        W20964  17.383   8.472  13.972  0.0805 -0.2697 -0.5757
 5496W        W20965   3.811   2.148   5.514  0.2861  0.1324 -0.2757
 5497W        W20966  10.129  15.641  12.418  0.0874  0.0044  0.1568
 5498W        W20967  11.371   0.264  15.067  0.4168 -0.1840 -0.1328
 5499W        W20968   8.541   8.880   5.043  0.2969 -0.0478 -0.2503
 5500W        W20969   7.268   1.572  13.005 -0.1320  0.1509 -0.0865
 5501W        W20970   5.448   7.661   3.943 -0.3137  0.1562 -0.0444
 5502W        W20971   9.637  17.875   2.784 -0.2922 -0.1662 -0.2197
 5503W        W20972   0.356   1.944  13.090  0.3486 -0.5285  0.0672
 5504W        W20973   1.027  12.000  12.085 -0.2076 -0.2267  0.0000
 5505W        W20974  16.675   6.918   3.047 -0.3315  0.0969  0.1531
 5506W        W20975  17.419   3.724  12.612  0.1474 -0.2448 -0.1737
 5507W        W20976  17.143   4.388   2.568 -0.2839  0.0891  0.0830
 5508W        W20977   0.373   2.147  13.608  0.1462  0.2510 -0.1188
 5509W        W20978  10.265  18.613  14.810  0.1625  0.0490  0.0477
 5510W        W20979   3.606   7.867   3.009  0.1854 -0.0603  0.0449
 5511W        W20980  12.647   3.785   3.305  0.1559 -0.0197 -0.1583
 5512W        W20981   1.658  18.581  11.299 -0.0078 -0.0317 -0.1747
 5513W        W20982   4.154   2.892   1.547  0.0137 -0.2137 -0.1155
 5514W        W20983   5.246  11.175   1.288 -0.2512  0.1416 -0.0937
 5515W        W20984  18.294  10.069  12.030 -0.3119  0.1215 -0.1431
 5516W        W20985   9.432   3.766  15.387  0.2384  0.0304  0.1539
 5517W        W20986   0.832  12.026  12.586  0.2706 -0.4267  0.0347
 5518W        W20987   7.701   5.259   3.872 -0.1360 -0.2640  0.0570
 5519W        W20988  12.614  18.404   3.175 -0.1373 -0.0420  0.1267
 5520W        W20989  11.066  10.684   1.433 -0.0939  0.1303 -0.2233
 5521W        W20990  15.923   8.246  12.717 -0.1654 -0.0132  0.0232
 5522W        W20991   9.135  14.277   3.193 -0.0224 -0.0400 -0.0265
 5523W        W20992   7.511   7.529  12.961  0.1923 -0.1345 -0.2232
 5524W        W20993   2.342   0.285  12.083 -0.0958 -0.1641 -0.0580
 5525W        W20994   1.352   6.104   1.515  0.1926  0.0768 -0.5057
 5526W        W20995   2.925   1.105   1.715  0.2406 -0.2915  0.5098
 5527W        W20996   6.693  10.230   3.495  0.4219 -0.0639 -0.2692
 5528W        W20997  15.891  13.864   1.435 -0.1453  0.3304 -0.1352
 5529W        W20998   1.701   4.614  15.250  0.0692 -0.0159  0.2006
 5530W        W20999   0.480   4.496   3.886  0.0633  0.2298 -0.1755
 5531W        W21000  15.753   6.415  12.964 -0.1087  0.3539  0.0127
 5532W        W21001   4.342  14.506   5.361 -0.1211 -0.0260  0.1343
 5533W        W21002  14.393   7.801   2.893  0.3362 -0.1512 -0.2998
 5534W        W21003  11.659   2.415  13.526  0.0466  0.0418 -0.0275
 5535W        W21004   6.916   3.349  14.862 -0.0571 -0.4399  0.1579
 5536W        W21005  17.340   2.087  10.780  0.1504 -0.2160  0.0715
 5537W        W21006   0.972  16.513   0.093  0.0071 -0.4624 -0.1229
 5538W        W21007  14.969   5.668  14.345  0.0450 -0.1959 -0.0854
 5539W        W21008   0.311  10.623  14.592  0.1200  0.0933 -0.1598
 5540W        W21009   5.465   0.043   3.738  0.1912  0.0557  0.2039
 5541W        W21010  17.546   5.425   0.017  0.2019  0.1026  0.1152
 5542W        W21011   0.675   8.269  14.811 -0.3040 -0.0359  0.1919
 5543W        W21012   8.002  16.533  15.477  0.5315 -0.1859  0.1675
 5544W        W21013   9.556   4.997  11.306 -0.1849 -0.0715  0.1226
 5545W        W21014  12.767  17.477  12.832  0.0519 -0.1476  0.2531
 5546W        W21015   0.024   3.579   4.891 -0.3317  0.0780 -0.0363
 5547W        W21016  11.046  13.741   3.335  0.0636 -0.2669 -0.3390
 5548W        W21017   6.346   0.999  14.041 -0.1989  0.2657  0.1028
 5549W        W21018   4.251   1.444  11.066 -0.1901  0.0047  0.1788
 5550W        W21019   4.783  11.498   5.378  0.1130 -0.0523  0.0469
 5551W        W21020   6.869   9.082  12.742  0.1095 -0.2667  0.0859
 5552W        W21021   3.050  10.480   5.493  0.1766  0.1169  0.2484
 5553W        W21022   9.855   8.217  13.068  0.3041 -0.0927  0.1921
 5554W        W21023  13.767  10.721   2.580 -0.2754 -0.2789  0.0696
 5555W        W21024   6.017  17.646   4.329 -0.0828  0.1474  0.0450
 5556W        W21025   0.971  18.591  11.881 -0.0603  0.1497  0.2938
 5557W        W21026   8.611   2.042   2.570 -0.1038  0.0735 -0.1896
 5558W        W21027  17.921   8.444   4.582 -0.0232  0.0870 -0.1362
 5559W        W21028   6.096  15.630  12.774 -0.1744 -0.1591 -0.2707
 5560W        W21029  16.631   4.588   3.294  0.1823 -0.1662 -0.2536
 5561W        W21030  14.215   6.868   3.236 -0.1788 -0.0744 -0.2296
 5562W        W21031   0.016   8.654  14.353 -0.1454 -0.0042 -0.0577
 5563W        W21032  11.133  16.722   4.905 -0.1900 -0.4048 -0.2037
 5564W        W21033   8.682  17.162   4.542 -0.0345 -0.0052 -0.2627
 5565W        W21034   5.037  12.184  10.866 -0.0860 -0.0219  0.0069
 5566W        W21035   0.425   9.472   1.048 -0.1643  0.0110  0.2039
 5567W        W21036   2.696   7.367  10.179  0.3722 -0.0254  0.2151
 5568W        W21037  12.115   0.483  12.733 -0.0523  0.3922 -0.0620
 5569W        W21038   5.657   9.694   1.195  0.0734  0.0879 -0.1915
 5570W        W21039   0.486   6.336   4.245  0.1278  0.0117 -0.0784
 5571W        W21040   4.540  17.300   9.734  0.2722 -0.0182 -0.3651
 5572W        W21041   7.925   1.741  14.413 -0.1344  0.2037  0.1706
 5573W        W21042  14.914  10.019  15.274  0.2816  0.0389  0.2709
 5574W        W21043   0.234   8.610   1.650  0.1201  0.2027 -0.1230
 5575W        W21044  18.015   3.570   1.470  0.2674  0.2591  0.2609
 5576W        W21045   5.903  14.023   3.084  0.5312 -0.0616 -0.0090
 5577W        W21046  16.035   3.153  15.255  0.0182 -0.0902 -0.4704
 5578W        W21047   3.185  16.253   3.936  0.1693  0.1089 -0.1070
 5579W        W21048   6.577   7.199   1.667 -0.3070  0.2018 -0.0693
 5580W        W21049  10.824   2.110   3.070 -0.0813 -0.5351  0.3744
 5581W        W21050   7.450  14.979  14.463 -0.1955  0.1117  0.1417
 5582W        W21051   6.806  11.830  13.687 -0.1768  0.2209 -0.0991
 5583W        W21052   3.576   3.340  12.891  0.2549 -0.0005 -0.1272
 5584W        W21053  16.459   0.968  15.442  0.0148 -0.1291 -0.0540
 5585W        W21054   5.956  17.267  12.403 -0.1308  0.3554 -0.1573
 5586W        W21055   0.073  17.533   1.057 -0.1420  0.3326 -0.0973
 5587W        W21056   1.754   4.076   0.687 -0.0762  0.0048  0.3017
 5588W        W21057  16.734   1.841   4.041 -0.2178  0.1966  0.1351
 5589W        W21058   7.574   6.454   4.598 -0.2099  0.1296  0.1633
 5590W        W21059   8.861  17.932  14.969  0.2596  0.1275  0.1907
 5591W        W21060   0.917  15.346  14.146 -0.0726  0.1462 -0.0102
 5592W        W21061   8.273   4.199   3.073 -0.0368  0.2030 -0.2466
 5593W        W21062  16.859   8.290  11.233 -0.1665  0.1081 -0.1308
 5594W        W21063   0.721   9.326  12.989  0.1431  0.0943 -0.0332
 5595W        W21064   7.229   2.528   2.724  0.0717  0.2790 -0.0207
 5596W        W21065   8.028   1.967  10.258  0.0583 -0.0318  0.0288
 5597W        W21066  10.010  15.676  14.845  0.2075 -0.0645  0.0545
 5598W        W21067   5.846  17.142  11.906 -0.2339  0.1211  0.1492
 5599W        W21068  15.098   5.493   5.690  0.1215 -0.3404 -0.0465
 5600W        W21069  16.725  11.509   5.471  0.0138 -0.0435 -0.1730
 5601W        W21070   8.182   7.637   2.621  0.0863  0.2061 -0.2589
 5602W        W21071  17.448   3.834   4.455 -0.0523  0.1412 -0.1508
 5603W        W21072   9.549  16.548  12.574 -0.3344 -0.1632 -0.1044
 5604W        W21073   3.017   5.658  12.033 -0.1614 -0.3050 -0.2475
 5605W        W21074  11.878  17.846   3.175  0.2940  0.0960 -0.1176
 5606W        W21075  15.832   9.796  14.563  0.0227  0.3073 -0.2148
 5607W        W21076  18.656  10.633   0.150  0.1576  0.0092 -0.2043
 5608W        W21077   3.943   7.830  12.594 -0.2771  0.1144 -0.1578
 5609W        W21078  11.019  17.099   0.436 -0.1407 -0.5197  0.0400
 5610W        W21079   7.421   8.383  14.876  0.2314 -0.0282 -0.1243
 5611W        W21080   1.858   3.685  15.102  0.0136 -0.1964  0.1263
 5612W        W21081  14.678   2.725  14.564 -0.0171 -0.0739 -0.0787
 5613W        W21082  18.614  16.446  12.914  0.3127 -0.0934 -0.3528
 5614W        W21083  10.670  10.165  13.135  0.1857  0.4517  0.0634
 5615W        W21084   9.664  16.668   3.462 -0.2873  0.2011 -0.2280
 5616W        W21085  15.564   7.679  15.138  0.2420  0.0854  0.2070
 5617W        W21086   2.122  11.368   0.919  0.1979  0.1771 -0.0068
 5618W        W21087   8.517   9.126   4.560 -0.0767 -0.0700 -0.4414
 5619W        W21088   7.705   1.581  11.779  0.2909 -0.0317  0.0253
 5620W        W21089  10.071   2.975   3.742  0.1226  0.2732  0.2697
 5621W        W21090  14.576   1.796  14.863  0.3910 -0.1615  0.1212
 5622W        W21091  15.355  11.776   5.848 -0.1503  0.0793 -0.1968
 5623W        W21092   1.700  17.334  11.206 -0.0618  0.2193 -0.0972
 5624W        W21093  12.683   1.906   4.903  0.3617 -0.0360  0.1142
 5625W        W21094  15.059   5.019   1.395  0.1275 -0.4683  0.1137
 5626W        W21095   9.199  16.438   1.012 -0.2178 -0.2522  0.3631
 5627W        W21096  17.469  11.500   1.448 -0.2305  0.2567  0.1953
 5628W        W21097   1.789   1.418  14.476  0.0855  0.2356 -0.0348
 5629W        W21098   4.393   7.242  10.273  0.4459  0.0692 -0.0264
 5630W        W21099  13.217   6.982   4.193 -0.2979  0.2023 -0.0103
 5631W        W21100   6.032  16.692   3.175  0.1767  0.0695  0.0520
 5632W        W21101   0.575   1.076  13.846  0.2670  0.1588 -0.4128
 5633W        W21102  11.442  11.436   1.188  0.1388  0.0478  0.2625
 5634W        W21103  15.717   1.487   5.159  0.0860 -0.0465  0.1097
 5635W        W21104  12.561  10.658  10.956  0.1422 -0.2865  0.0116
 5636W        W21105  15.356  11.449  12.825  0.0249  0.2934 -0.0090
 5637W        W21106  14.828  15.144   2.738  0.2120  0.2776 -0.0115
 5638W        W21107   1.810   3.146   3.890  0.0727  0.0590  0.3264
 5639W        W21108  17.577   5.446  10.254 -0.2193  0.4638 -0.2893
 5640W        W21109  16.357   9.013   2.932 -0.1122 -0.2093  0.0774
 5641W        W21110   9.236   9.217  12.392  0.3145 -0.1232 -0.0041
 5642W        W21111  16.092   3.641  15.126 -0.2345 -0.2449 -0.1039
 5643W        W21112  10.690  10.743  14.228  0.0155  0.0508  0.0577
 5644W        W21113   4.311   4.429  12.048  0.2768  0.0576 -0.1925
 5645W        W21114   9.571  10.481   1.474  0.1889  0.2846 -0.0090
 5646W        W21115   3.515  12.507  15.740  0.1428 -0.1509  0.3081
 5647W        W21116   0.607  12.543   1.232  0.0739 -0.1446 -0.2460
 5648W        W21117   2.534   1.330   3.659 -0.2347 -0.1085  0.1679
 5649W        W21118   0.085   0.542  14.627  0.2185 -0.0164  0.4041
 5650W        W21119  15.187  15.124   4.509 -0.0118 -0.0428 -0.1624
 5651W        W21120  17.957   8.346  11.618  0.2175  0.1288 -0.0716
 5652W        W21121   7.011   4.708  15.337  0.0887  0.0091 -0.0790
 5653W        W21122   4.229   8.575   2.600  0.1158  0.0180  0.0111
 5654W        W21123   1.616  14.348   4.007  0.1708  0.2250  0.0678
 5655W        W21124   4.883  18.168  11.883 -0.0726  0.1179  0.0523
 5656W        W21125   4.874  13.119  14.685  0.1325 -0.0420  0.0311
 5657W        W21126  14.122   1.700   4.372  0.2589  0.2523 -0.0658
 5658W        W21127   7.650   3.875  12.488  0.0401  0.1209 -0.3297
 5659W        W21128   2.688   4.126  12.308  0.1822 -0.3245  0.1251
 5660W        W21129  16.056  17.278   3.616 -0.1461  0.2088 -0.2928
 5661W        W21130  15.939   8.787   4.784 -0.1160  0.1468  0.2305
 5662W        W21131   3.375  13.394  15.418  0.1497  0.1767 -0.0839
 5663W        W21132  17.545  11.010   1.669 -0.0906  0.0130 -0.0286
 5664W        W21133  10.026  16.659   0.084 -0.2506 -0.0207 -0.1093
 5665W        W21134   6.174  12.401   0.012  0.0912 -0.3095 -0.2732
 5666W        W21135   2.377   6.577  11.213  0.1533 -0.2800  0.0695
 5667W        W21136  12.083   2.284   3.345 -0.1723 -0.0771 -0.1074
 5668W        W21137  18.227   6.816   1.654 -0.1601  0.0532 -0.0201
 5669W        W21138   3.965   6.613  14.774 -0.1627 -0.1715 -0.2407
 5670W        W21139   3.501   6.692  14.984 -0.0941  0.1061  0.1767
 5671W        W21140  13.230  13.395   2.416 -0.0869 -0.2543  0.1965
 5672W        W21141   4.401   9.026   0.516 -0.2843  0.1103  0.1443
 5673W        W21142   4.806  11.248   5.960 -0.1943  0.0348  0.0268
 5674W        W21143  15.226  14.414   2.317  0.0706  0.1864 -0.0250
 5675W        W21144  12.027   5.373   2.491 -0.0327 -0.2168  0.2623
 5676W        W21145  10.745  17.124  15.393 -0.0327 -0.1495 -0.1942
 5677W        W21146  15.086  14.485  12.385  0.2457  0.0746 -0.1510
 5678W        W21147   1.086  16.707  14.237 -0.1139  0.1159 -0.2045
 5679W        W21148   6.624   4.839   5.353 -0.2110  0.0948  0.0630
 5680W        W21149   9.852   2.978  12.097 -0.0971 -0.1461 -0.1942
 5681W        W21150   5.563  12.882  11.168 -0.3146  0.0999  0.0819
 5682W        W21151  15.006  15.812  14.295 -0.0398 -0.1277  0.0981
 5683W        W21152  13.414   7.074   1.309 -0.0469 -0.2201 -0.0810
 5684W        W21153  12.228   4.747  15.412 -0.0139  0.2153  0.2700
 5685W        W21154   5.887   2.463   2.812  0.1390 -0.0867 -0.0982
 5686W        W21155   1.007   5.686   5.541 -0.2341  0.1980 -0.1557
 5687W        W21156   7.809   8.194  15.118  0.0630  0.2550  0.1053
 5688W        W21157  18.572  15.981   4.556 -0.1232  0.0092  0.0216
 5689W        W21158   3.937   0.113  11.583  0.0766 -0.1512  0.0834
 5690W        W21159   0.347  11.856  12.569  0.1051  0.0996  0.2052
 5691W        W21160   7.233   9.359   4.981 -0.0552 -0.0873  0.0997
 5692W        W21161  13.694  18.332   1.631 -0.1146 -0.1837 -0.1347
 5693W        W21162  16.432  13.579  13.951  0.0034 -0.0830 -0.0591
 5694W        W21163   3.205   4.370   0.420 -0.3343 -0.2285 -0.0425
 5695W        W21164  15.223  11.897   2.881 -0.2707  0.3204  0.0602
 5696W        W21165   4.551  15.711  13.530 -0.1180  0.0674 -0.0943
 5697W        W21166   0.570   9.126  12.141 -0.1265  0.1680  0.0403
 5698W        W21167  17.800   8.596  10.695 -0.2598  0.3427  0.6184
 5699W        W21168  13.441   7.383   5.477 -0.1948 -0.3157  0.3947
 5700W        W21169   0.329   1.033   1.477  0.0580 -0.2454  0.1162
 5701W        W21170   0.693  10.387   2.442 -0.0417 -0.1177  0.2013
 5702W        W21171   9.013   2.736   2.529  0.0660 -0.0775  0.1909
 5703W        W21172  18.072  13.477  11.265 -0.1287  0.2983 -0.1141
 5704W        W21173   5.512  16.315  14.079  0.1299 -0.1213 -0.3345
 5705W        W21174   0.402   5.034  10.456 -0.1572  0.0091  0.2030
 5706W        W21175  13.727   7.798   0.023 -0.0379  0.1960  0.1821
 5707W        W21176  16.188  16.033  13.810  0.1821 -0.1396 -0.2212
 5708W        W21177  16.258  10.662   3.887 -0.0139 -0.2778 -0.1160
 5709W        W21178  17.225  13.344   4.931  0.1577  0.0586 -0.1449
 5710W        W21179  14.409   0.452   0.557 -0.2318  0.1331  0.0778
 5711W        W21180   5.037  13.749  15.237 -0.0031 -0.1835  0.0496
 5712W        W21181  15.337  13.253   1.035  0.0637  0.0363  0.2031
 5713W        W21182   5.737  12.583   1.348 -0.5763 -0.0241  0.1596
 5714W        W21183  13.452  12.740  11.541  0.0543  0.2060  0.0241
 5715W        W21184  12.338  10.521   0.683  0.0876 -0.1123 -0.1543
 5716W        W21185   0.103  13.065   2.892  0.0370  0.2026  0.0898
 5717W        W21186   3.490   3.372  11.052  0.0419 -0.0240  0.1736
 5718W        W21187  11.438  11.930   1.120 -0.0885 -0.0614  0.3532
 5719W        W21188  17.924   0.484  12.652  0.1837 -0.0432 -0.1007
 5720W        W21189  16.629   1.406   1.768 -0.3531  0.3326 -0.0286
 5721W        W21190   4.886   9.652  11.705 -0.2506  0.0468  0.3133
 5722W        W21191  11.302   8.710   5.231  0.0900  0.1213  0.0136
 5723W        W21192   5.012  15.624   3.113  0.0020  0.0372 -0.0864
 5724W        W21193  10.125   8.419  11.026 -0.1895  0.2603 -0.0001
 5725W        W21194   0.507  12.446   0.695  0.0817 -0.2085 -0.1536
 5726W        W21195   6.042   4.151  15.106 -0.0451 -0.0198 -0.3542
 5727W        W21196   3.974   3.682  14.684  0.1637 -0.2112 -0.3445
 5728W        W21197   2.656   2.094  12.667  0.1649  0.2566 -0.1822
 5729W        W21198  14.774   6.751   4.309  0.0206 -0.3419 -0.1004
 5730W        W21199   0.867   6.888   1.360 -0.1691  0.0646  0.2255
 5731W        W21200   8.044  14.841   4.494 -0.0299  0.0994 -0.0108
 5732W        W21201   7.971   2.725   4.689  0.0191  0.1967 -0.0391
 5733W        W21202  15.845   2.517  10.538  0.0222  0.0538 -0.0257
 5734W        W21203  15.621  13.955  10.878 -0.3187 -0.1158 -0.2567
 5735W        W21204   0.215  16.510   4.190  0.1695 -0.1560 -0.0765
 5736W        W21205  13.387   8.497   3.304  0.1260 -0.2985 -0.0833
 5737W        W21206  13.553   3.504  14.291 -0.0440  0.1350  0.2695
 5738W        W21207   5.773  10.092  12.875  0.1285  0.0825 -0.0329
 5739W        W21208   0.931  17.785  11.598  0.0484 -0.1407  0.0937
 5740W        W21209  17.595   0.044  10.889  0.1667 -0.0854  0.0962
 5741W        W21210  16.587  12.272   2.106 -0.0304  0.3425 -0.0299
 5742W        W21211  13.501   7.195   3.681 -0.4295 -0.0198  0.1816
 5743W        W21212   7.351   5.578   3.707 -0.1606  0.0631  0.2010
 5744W        W21213   5.769  16.837  12.297 -0.0877 -0.1165 -0.2143
 5745W        W21214  17.581   0.672   2.445  0.3870  0.0708  0.2206
 5746W        W21215   3.124   9.300   6.201 -0.5264  0.0324  0.1279
 5747W        W21216  13.246   3.002   1.726 -0.1982 -0.2272 -0.1261
 5748W        W21217  15.985   2.215  15.044 -0.3669 -0.0203  0.1802
 5749W        W21218   5.612   7.801   9.982  0.1693  0.2305  0.1972
 5750W        W21219  16.146   8.902   2.491  0.0610 -0.0582  0.3833
 5751W        W21220   1.157   8.501  15.528 -0.0744  0.1628  0.2396
 5752W        W21221  12.879   6.688  14.515  0.3253  0.2215  0.0810
 5753W        W21222   1.758   4.859  12.948 -0.3209 -0.4535  0.0195
 5754W        W21223   5.725  18.639   5.319 -0.2880  0.0851 -0.1526
 5755W        W21224   7.963   4.613  15.529  0.0619 -0.3868  0.2745
 5756W        W21225   5.460   2.133  14.069 -0.0188  0.0107  0.2651
 5757W        W21226  11.412   9.500  14.423 -0.0447  0.4830  0.1125
 5758W        W21227   1.472   9.192   4.310 -0.1575 -0.0811 -0.2725
 5759W        W21228   5.602   0.289   0.172  0.2659  0.2293  0.0729
 5760W        W21229   8.217   3.319   2.269  0.1835 -0.0668 -0.3041
 5761W        W21230  12.148   5.408   5.422  0.0135  0.0475  0.2266
 5762W        W21231  12.761   4.641  12.786 -0.2030 -0.1921  0.3260
 5763W        W21232   3.438   2.107  14.594 -0.0859  0.0024  0.0307
 5764W        W21233  13.239   8.644  11.098 -0.0387 -0.2214  0.0790
 5765W        W21234   2.484   4.659   3.388  0.3353 -0.1490  0.2764
 5766W        W21235   7.188  11.584   2.834 -0.2909 -0.2117 -0.3421
 5767W        W21236  11.561  11.666  14.450  0.0161 -0.0120  0.2597
 5768W        W21237   6.145   4.613  13.950 -0.1876  0.0343 -0.0696
 5769W        W21238  11.104   0.959   2.176 -0.0114  0.2642  0.1728
 5770W        W21239   2.267   6.844  11.744  0.3737  0.0574 -0.2888
 5771W        W21240  11.530  15.324   4.608 -0.0745  0.2271  0.0196
 5772W        W21241  17.825   2.322   2.193  0.2517 -0.3455  0.2251
 5773W        W21242   6.134  12.678  13.213  0.1666  0.0197 -0.2484
 5774W        W21243   2.815   0.648  15.019 -0.0737 -0.1538 -0.1727
 5775W        W21244  11.797   0.049   0.174 -0.4427  0.1679  0.1626
 5776W        W21245  13.230   4.310   2.500 -0.0158  0.0869 -0.0598
 5777W        W21246  15.070  10.697   2.274  0.1237 -0.1848 -0.1473
 5778W        W21247  14.343  14.026  12.103 -0.0259  0.2514  0.1561
 5779W        W21248   3.095  12.468   0.838 -0.2453 -0.1027  0.2218
 5780W        W21249  17.292   3.938   5.038 -0.0589  0.2369  0.0686
 5781W        W21250   6.649   7.733  13.667  0.6631 -0.1788  0.1604
 5782W        W21251   1.780   1.513  11.292 -0.1714  0.0243  0.0480
 5783W        W21252   7.941   3.063  12.070 -0.0453  0.0032  0.2596
 5784W        W21253  15.090  17.942   0.773  0.0561 -0.2434  0.0721
 5785W        W21254   2.214  13.806   2.033 -0.2299  0.2952  0.3857
 5786W        W21255  17.995  16.751   1.846  0.0345  0.0509 -0.0669
 5787W        W21256  11.019  17.456  13.699 -0.0926 -0.1868  0.0238
 5788W        W21257  10.003  12.295   1.427 -0.1445 -0.1453 -0.0305
 5789W        W21258   1.040   4.846   0.322  0.1843  0.2590 -0.0995
 5790W        W21259  14.912   3.496   1.915  0.0301 -0.0368 -0.0323
 5791W        W21260   3.698  17.273  10.684 -0.0867 -0.4184 -0.5889
 5792W        W21261   2.405  10.970  15.071 -0.1135  0.1692 -0.1563
 5793W        W21262   6.828  10.927  14.785  0.0241  0.2924  0.1632
 5794W        W21263  13.631  18.408   0.488  0.0909  0.1499  0.3237
 5795W        W21264   2.551  12.578   1.175  0.2438 -0.0450  0.1445
 5796W        W21265  10.266   7.705   2.013 -0.0797  0.1052 -0.2315
 5797W        W21266   5.303   4.709   3.771 -0.0436 -0.0439 -0.2811
 5798W        W21267   3.861   4.109  11.411 -0.0158 -0.1919  0.1748
 5799W        W21268  15.780   0.929  13.480 -0.0528  0.1343 -0.1028
 5800W        W21269  10.977   3.562   3.712 -0.0276  0.1514  0.3703
 5801W        W21270   6.261  17.519   4.760 -0.2058  0.2812 -0.0826
 5802W        W21271  16.999   9.533   4.432 -0.4917  0.2398  0.4412
 5803W        W21272  15.764  16.947   9.495 -0.2708 -0.2659  0.2277
 5804W        W21273   1.743   8.451  11.070 -0.1537  0.0257  0.2643
 5805W        W21274   5.554   5.042  10.937 -0.0202 -0.1397 -0.1311
 5806W        W21275   5.038   3.743  15.766  0.1398  0.0970 -0.2605
 5807W        W21276  11.616   1.111  14.904 -0.0119  0.2483  0.0995
 5808W        W21277   8.338   0.941   3.755  0.1670 -0.3934 -0.1706
 5809W        W21278   7.996  14.795  14.360  0.0050  0.2514  0.0569
 5810W        W21279  15.845   6.262   3.924 -0.3244 -0.1244 -0.0035
 5811W        W21280   2.084   7.991   1.043 -0.2480 -0.0308 -0.2368
 5812W        W21281   1.838   5.623  11.371  0.0851  0.1547 -0.0014
 5813W        W21282   2.236  14.775  11.969 -0.2874 -0.0541  0.0825
 5814W        W21283  14.407  10.996   3.604 -0.0234 -0.2302 -0.2024
 5815W        W21284   0.027  11.191   2.635  0.3688 -0.1637 -0.1093
 5816W        W21285   6.679   4.136  13.464  0.1051 -0.1870  0.2004
 5817W        W21286  17.324  15.492  14.950  0.3460  0.1338  0.1605
 5818W        W21287   9.459  13.442  11.250 -0.2100  0.0622 -0.1965
 5819W        W21288   7.251  16.162   4.727  0.1342  0.0305 -0.0158
 5820W        W21289   4.238  12.221   6.448  0.1440 -0.1222 -0.1054
 5821W        W21290   9.488  17.466   1.352 -0.2125  0.1427  0.3836
 5822W        W21291  12.145   3.668   1.207  0.1060  0.0665 -0.1194
 5823W        W21292  16.132  18.295  10.852  0.6893 -0.1044 -0.1158
 5824W        W21293  16.249   6.991   4.821  0.0498  0.3764  0.0041
 5825W        W21294  12.754   0.940   1.105 -0.1202  0.1573 -0.1883
 5826W        W21295  10.429  18.367  15.618 -0.2153  0.0689  0.1625
 5827W        W21296  12.207  15.707   0.475  0.0399  0.2031  0.3071
 5828W        W21297  17.158  15.698  12.247 -0.4515 -0.3300  0.3787
 5829W        W21298   8.580   7.523  15.163 -0.4073  0.0490 -0.1081
 5830W        W21299   0.945   7.666   0.312  0.1209 -0.0051  0.2309
 5831W        W21300   4.762   7.883  13.896  0.1056 -0.1617  0.0402
 5832W        W21301  14.393   2.270  11.319  0.1810 -0.4745  0.1834
 5833W        W21302  16.308  12.935   0.285  0.2270 -0.2077 -0.0432
 5834W        W21303   1.007   5.995   0.390 -0.1931 -0.2755 -0.2248
 5835W        W21304  10.380  10.701   1.933 -0.1007 -0.0165 -0.0086
 5836W        W21305   8.434  15.018  14.644 -0.2644  0.0905 -0.1641
 5837W        W21306  13.245  16.126  14.908 -0.2731 -0.1895  0.2805
 5838W        W21307  10.241  16.556  14.005 -0.0306  0.4676 -0.1210
 5839W        W21308  13.664  11.866   4.067  0.3449  0.0193  0.1865
 5840W        W21309   9.266   3.772   4.861  0.0506  0.0324  0.0437
 5841W        W21310   6.600   3.614  11.176 -0.1428 -0.1086 -0.0976
 5842W        W21311   2.809  14.831   0.241 -0.1813  0.2388 -0.2993
 5843W        W21312   6.946  13.477   1.023  0.2232 -0.1671 -0.1994
 5844W        W21313   3.585  12.836  15.413 -0.0583  0.1234 -0.0387
 5845W        W21314  11.667   7.324  15.091  0.1942 -0.0902  0.0074
 5846W        W21315  14.323  11.009   4.605  0.0641  0.1218  0.0614
 5847W        W21316  14.784   7.143   2.614  0.3095  0.1516 -0.0721
 5848W        W21317  15.799  17.744   0.031 -0.1259 -0.1948 -0.2651
 5849W        W21318   6.578  16.709  11.145  0.2339 -0.1992 -0.0670
 5850W        W21319  15.886   9.820   3.873  0.1537 -0.0566  0.1989
 5851W        W21320   3.290  16.110  13.394  0.2221  0.2742  0.0136
 5852W        W21321   1.903   9.772   2.685 -0.2799 -0.1437 -0.2647
 5853W        W21322  18.394  14.519   5.624 -0.0135 -0.1350 -0.5099
 5854W        W21323  12.489  10.441   3.025 -0.0432  0.1886 -0.0490
 5855W        W21324  14.521  18.020   2.538  0.1651  0.1038  0.0538
 5856W        W21325  12.229  12.370   4.692 -0.4728  0.1334  0.0883
 5857W        W21326  16.874  17.487   2.260  0.2924  0.3471 -0.4276
 5858W        W21327   2.145   4.952   1.660 -0.2038  0.1639  0.2261
 5859W        W21328   8.505  11.925   5.105 -0.0350 -0.1565  0.4312
 5860W        W21329   2.817   6.625   4.915 -0.3829 -0.0078 -0.4324
 5861W        W21330   9.038  11.247   2.536 -0.2757  0.2252  0.1904
 5862W        W21331   1.914  14.780   5.722 -0.3468  0.1026 -0.0922
 5863W        W21332  17.814  13.496  15.605 -0.2736 -0.0526 -0.1163
 5864W        W21333   1.003  11.861   0.103  0.1602 -0.0657 -0.0592
 5865W        W21334   6.168   1.175  10.424 -0.3313  0.0106 -0.1013
 5866W        W21335  16.891  11.093   3.898 -0.0869  0.3732  0.3590
 5867W        W21336  13.003  18.608  10.582 -0.4405  0.1606  0.2088
 5868W        W21337  13.011   7.346   2.849  0.0989  0.1689  0.3452
 5869W        W21338  12.529  12.894   0.057 -0.0411  0.1064  0.1461
 5870W        W21339   9.431  17.079  15.514 -0.0160  0.2156  0.0321
 5871W        W21340   4.785   8.676   1.283 -0.1864  0.3005  0.2193
 5872W        W21341   7.154   8.000   3.569  0.0835 -0.2260  0.1972
 5873W        W21342  12.842  13.683   4.639  0.3401 -0.2553  0.1286
 5874W        W21343   2.615  13.204   3.405  0.1038  0.0481  0.0853
 5875W        W21344  17.620   5.533  13.769  0.2158 -0.0476  0.2374
 5876W        W21345  15.880  18.615  11.231  0.2955  0.3384 -0.0045
 5877W        W21346   1.853   3.277  15.387 -0.1647  0.1746  0.4089
 5878W        W21347   8.759   5.058  10.693 -0.1604 -0.2663  0.1984
 5879W        W21348  15.241   6.324  11.675  0.0660  0.2971  0.1456
 5880W        W21349   0.126   3.005   3.516  0.0485 -0.1562  0.0441
 5881W        W21350  12.558  15.978   4.305  0.0507 -0.5326 -0.0744
 5882W        W21351  14.924   0.220  14.126 -0.2747  0.1683  0.1571
 5883W        W21352   1.279  17.765  12.176 -0.2123  0.1340  0.5186
 5884W        W21353   3.737  17.949   4.372  0.0836  0.0400  0.1072
 5885W        W21354  11.816  14.129  14.912 -0.0954  0.1437 -0.1516
 5886W        W21355  12.426   2.015   0.929 -0.0406 -0.2793 -0.0015
 5887W        W21356   1.447   8.203  15.283 -0.2981 -0.3733 -0.2123
 5888W        W21357  17.065  18.268  12.077 -0.3031  0.0310  0.2927
 5889W        W21358   3.678   6.654  15.540  0.0423 -0.6529 -0.1503
 5890W        W21359   4.200   9.026  11.747  0.0662  0.3127 -0.0995
 5891W        W21360  10.591  12.519   2.243 -0.2176 -0.0657  0.1407
 5892W        W21361   2.998   3.954   1.191  0.2596 -0.1911 -0.4175
 5893W        W21362  12.140   4.337  10.931  0.0736 -0.0349  0.1180
 5894W        W21363   4.238  18.522  13.073 -0.1819  0.1278 -0.1195
 5895W        W21364  15.438  11.406   2.860  0.3567  0.1185 -0.0142
 5896W        W21365   2.047   9.476   4.493  0.3762 -0.4425  0.1987
 5897W        W21366   1.830   3.622   3.086 -0.2156 -0.4020 -0.0156
 5898W        W21367   0.674  17.892  14.231  0.0876  0.1378  0.0641
 5899W        W21368   2.702   5.735   3.420  0.0506 -0.1715 -0.2340
 5900W        W21369   1.509  18.154  12.633 -0.0139 -0.1607 -0.1117
 5901W        W21370   1.861  11.990  11.014 -0.0075  0.0715  0.1601
 5902W        W21371  17.237   4.133  14.528 -0.1015  0.0027  0.0228
 5903W        W21372   3.409   8.672  11.850  0.0406  0.1714 -0.0949
 5904W        W21373  17.347  14.882  15.012  0.1084 -0.2315 -0.0688
 5905W        W21374  10.461  14.103   5.037  0.4587  0.3705  0.0542
 5906W        W21375  13.070   9.340  11.912  0.0995 -0.0537  0.2759
 5907W        W21376   4.841  12.708   0.422  0.1571  0.0327 -0.0919
 5908W        W21377  15.407   4.595   0.385  0.1771 -0.0665  0.2919
 5909W        W21378  11.984   7.546  13.866 -0.1742 -0.1596  0.2495
 5910W        W21379  14.828   4.398   1.460 -0.1382  0.0299 -0.1055
 5911W        W21380  17.100  18.064   2.634  0.3006  0.2965 -0.2460
 5912W        W21381   7.808  11.240  12.076 -0.0052  0.0710  0.0696
 5913W        W21382  17.231  10.995  13.316  0.0039  0.0421 -0.0816
 5914W        W21383  18.147  16.093  14.896  0.1705 -0.0953  0.0968
 5915W        W21384   7.032  12.572   5.042  0.3401 -0.4170 -0.0088
 5916W        W21385   1.883   6.807  13.607 -0.1809  0.1341 -0.1219
 5917W        W21386   7.125   8.910   4.586  0.1035  0.1292  0.2245
 5918W        W21387  13.167  16.653  12.947 -0.0439 -0.0831 -0.1506
 5919W        W21388  16.912  17.520   4.217  0.1395  0.1088 -0.0024
 5920W        W21389  10.408  10.769  12.443  0.2303  0.0180  0.0000
 5921W        W21390  11.422   1.198   1.101  0.0405 -0.3866  0.1955
 5922W        W21391  17.445   0.107   4.482  0.0877 -0.1475  0.1278
 5923W        W21392  10.232   4.653   0.244 -0.0735 -0.4482 -0.2989
 5924W        W21393   7.642   2.607  14.327  0.0940 -0.3767  0.2471
 5925W        W21394   6.782   4.256   0.335 -0.3429 -0.2574  0.1987
 5926W        W21395   4.742   3.959  13.519  0.3062 -0.0174  0.0530
 5927W        W21396   0.298   3.579   0.449 -0.0763 -0.0731 -0.0174
 5928W        W21397   5.029   4.925  12.650  0.1080 -0.2318  0.1787
 5929W        W21398  17.545   7.164   5.842 -0.2394  0.3910  0.1894
 5930W        W21399   3.845   1.833  15.512  0.2728  0.0724 -0.1980
 5931W        W21400   0.186   0.395  11.591 -0.2200  0.1233  0.3531
 5932W        W21401   9.725   4.477   1.082  0.2067 -0.1049 -0.0958
 5933W        W21402   6.762   8.939  12.009  0.2261  0.0688  0.0686
 5934W        W21403  17.182  15.158  14.585  0.2461 -0.1105 -0.1822
 5935W        W21404   8.048  13.337  12.237 -0.0075 -0.0055  0.1625
 5936W        W21405  10.336  17.250   2.609 -0.0454 -0.1437 -0.1630
 5937W        W21406   0.589  12.955   0.905  0.3388 -0.2220  0.2241
 5938W        W21407  16.960   4.490   0.077 -0.1527  0.0886  0.0190
 5939W        W21408   6.541  13.391  11.510 -0.3957 -0.1467 -0.2699
 5940W        W21409  10.169  12.656  12.039 -0.1806 -0.2301 -0.2837
 5941W        W21410  11.681   6.640   5.560  0.1015 -0.1803  0.0910
 5942W        W21411   1.248   8.253   5.566 -0.1478 -0.0426  0.0785
 5943W        W21412   6.148   4.855   1.755  0.1172  0.2207  0.1402
 5944W        W21413   7.915   0.270   9.661  0.1090  0.3017  0.3784
 5945W        W21414  15.834  16.173   0.832  0.1758 -0.1964 -0.2849
 5946W        W21415   9.641   5.774  11.057 -0.2104 -0.1354  0.0983
 5947W        W21416  17.706   4.344  15.159 -0.0263  0.0003  0.0548
 5948W        W21417   8.639   5.076  11.695 -0.2572 -0.0143  0.0506
 5949W        W21418   8.695  17.298  10.546 -0.2573  0.2430 -0.2128
 5950W        W21419   4.667  15.162   4.848  0.3631 -0.0735 -0.0993
 5951W        W21420   9.338   1.162  14.985 -0.0607 -0.5282 -0.1768
 5952W        W21421  11.844  16.246  10.830 -0.2801  0.0494  0.0575
 5953W        W21422   5.135   1.004   1.428  0.2900  0.0733  0.1361
 5954W        W21423   0.550  13.513  12.641 -0.1454 -0.1109  0.3189
 5955W        W21424  15.128   3.428  11.948  0.0964  0.0446  0.3109
 5956W        W21425   3.547   7.718   5.026  0.1257 -0.1645  0.2641
 5957W        W21426   6.409  15.424  13.421  0.0639 -0.0617  0.0423
 5958W        W21427  10.893   3.689  15.248  0.0566 -0.0892  0.0491
 5959W        W21428   8.729   0.194   0.331  0.1738  0.0012  0.0792
 5960W        W21429   0.667  12.446   5.057 -0.0300 -0.0102 -0.1667
 5961W        W21430   0.796   6.298  13.440 -0.0847 -0.2585  0.2979
 5962W        W21431   7.638   7.409   1.338 -0.0422 -0.0474  0.1522
 5963W        W21432   9.819  12.351   2.631  0.1287  0.2603 -0.0746
 5964W        W21433   9.327  17.695  14.172 -0.0904  0.0543  0.3393
 5965W        W21434  11.279   9.894  14.099 -0.3163  0.0405  0.2283
 5966W        W21435   6.176   9.209   3.684 -0.0275 -0.0407 -0.1864
 5967W        W21436  16.302   4.473  13.196  0.0674  0.0500  0.1833
 5968W        W21437   8.884  13.473   0.865  0.1330 -0.1299  0.1170
 5969W        W21438  17.826   4.478  14.339 -0.0513  0.2419 -0.2198
 5970W        W21439  14.972  11.704  15.772  0.2445  0.1075  0.0447
 5971W        W21440  12.439  16.503   2.876 -0.0530 -0.0728 -0.0535
 5972W        W21441   0.166   4.140   0.639  0.2472 -0.2848 -0.2761
 5973W        W21442  17.366   8.422   3.102  0.3247  0.1588  0.1579
 5974W        W21443  13.788   6.823  12.171 -0.1382  0.6315 -0.1494
 5975W        W21444  11.979  18.646   5.123 -0.1408 -0.0666 -0.0354
 5976W        W21445  12.632  18.515  12.451 -0.0084 -0.0568 -0.1278
 5977W        W21446  17.557  12.917  15.658 -0.2108 -0.2381 -0.2354
 5978W        W21447   9.695  11.304   0.911 -0.0881  0.0566 -0.2047
 5979W        W21448   0.983  16.150  12.432 -0.4684 -0.2000  0.2407
 5980W        W21449   6.010   5.239  13.706  0.2095  0.4582  0.0343
 5981W        W21450  11.032  10.198   4.111  0.0446 -0.1273  0.0216
 5982W        W21451   7.721  14.524   2.874  0.4666  0.2309 -0.0346
 5983W        W21452  12.520   5.945  12.157  0.1013 -0.0560  0.4153
 5984W        W21453  15.738  12.845  13.843  0.0511 -0.0178  0.0346
 5985W        W21454   0.677  16.501   4.439  0.2094 -0.1315  0.2125
 5986W        W21455  11.399   2.844   0.531 -0.0441  0.2435 -0.1663
 5987W        W21456   4.905   4.309  11.179 -0.0319  0.0370 -0.0572
 5988W        W21457   3.987   7.489   3.287  0.0772  0.2032  0.1060
 5989W        W21458   0.561   0.360  12.113  0.1086 -0.0832 -0.1789
 5990W        W21459   7.747   6.270  11.549 -0.1234 -0.0904  0.1911
 5991W        W21460  15.293  17.011  14.830 -0.2286  0.1255 -0.2077
 5992W        W21461  18.158  18.685   1.838 -0.0355 -0.2707 -0.3205
 5993W        W21462   3.642  11.194   0.146 -0.1911 -0.0211 -0.2190
 5994W        W21463  18.609   4.427  11.814  0.2727 -0.1073 -0.2695
 5995W        W21464   2.855   7.641  13.175 -0.0699 -0.0125 -0.2592
 5996W        W21465   4.390   2.874   2.466 -0.1460 -0.0013 -0.0523
 5997W        W21466   1.501  18.455   4.218 -0.4113  0.2347 -0.2904
 5998W        W21467   5.096   7.984   3.583  0.3077 -0.2296 -0.1476
 5999W        W21468  14.774   6.894  10.884  0.0866  0.1659  0.0907
 6000W        W21469  11.833   1.053  15.756  0.1661 -0.0011  0.3282
 6001W        W21470  17.620  14.711   4.007 -0.0537  0.2653 -0.0069
 6002W        W21471  17.771   0.540  14.936 -0.2150  0.0876  0.2621
 6003W        W21472  18.159   5.762  13.513  0.0881  0.3522 -0.0202
 6004W        W21473   0.752   0.174  14.363 -0.2637 -0.0769  0.0532
 6005W        W21474  17.506  16.543  13.042 -0.1837 -0.1420  0.1298
 6006W        W21475  18.697  15.864  12.666 -0.0646  0.1594  0.0813
 6007W        W21476   9.068  12.242   2.003  0.2143  0.0739  0.1234
 6008W        W21477  15.090   9.831  13.031 -0.2256 -0.3155  0.1783
 6009W        W21478   1.682  11.020  14.447 -0.3009  0.1344 -0.4047
 6010W        W21479  12.283  12.820  12.556 -0.1101 -0.0499 -0.2508
 6011W        W21480   4.487   2.626  15.616  0.0860  0.0742 -0.1891
 6012W        W21481   8.589  16.533  11.702 -0.0147  0.0436  0.1740
 6013W        W21482  12.109   8.162   4.631  0.0934  0.0720  0.0241
 6014W        W21483   4.105   2.891   2.953 -0.0846  0.1370  0.1973
 6015W        W21484   4.109   7.845   5.182  0.2079  0.2957  0.0676
 6016W        W21485   1.655  13.491  14.812  0.2887 -0.0333  0.0071
 6017W        W21486  10.257   4.852   0.819  0.2428  0.0573  0.1008
 6018W        W21487  10.688   4.393   0.469 -0.0133  0.1880  0.2062
 6019W        W21488   1.787   6.015  12.946  0.1800  0.0717 -0.1810
 6020W        W21489  14.905   8.555  10.550 -0.1310  0.0301  0.0429
 6021W        W21490   2.596  17.172  12.478 -0.0954  0.0572  0.1040
 6022W        W21491   1.141   9.382  11.279  0.3006  0.0610  0.1411
 6023W        W21492  15.394  10.226   0.919 -0.3150  0.2202 -0.0297
 6024W        W21493   4.173   0.779   3.536  0.0223 -0.2540 -0.0584
 6025W        W21494   1.092   1.606   1.253  0.2453 -0.0922  0.0641
 6026W        W21495   9.793  13.746   2.957  0.2008  0.1220  0.1281
 6027W        W21496   8.684   5.380   0.065 -0.0663  0.2903 -0.1407
 6028W        W21497   4.516  18.689   2.385  0.2370 -0.2663  0.0247
 6029W        W21498   1.719   3.128   0.753  0.1734 -0.1735  0.3131
 6030W        W21499   8.313  12.670   2.159  0.2907 -0.1002 -0.0373
 6031W        W21500   1.332   9.287  10.730  0.4436 -0.3238  0.1051
 6032W        W21501   6.390  17.134  12.088  0.2444 -0.0262 -0.1204
 6033W        W21502  11.342  10.125  15.146  0.3094 -0.1315  0.1735
 6034W        W21503  15.120  15.376   3.664 -0.3988 -0.1078  0.0865
 6035W        W21504   8.706   9.683  11.533 -0.0249 -0.1526 -0.0743
 6036W        W21505  12.114   9.245   5.085  0.1845  0.2679  0.1024
 6037W        W21506   4.436  12.415   5.134  0.3107  0.0842 -0.1601
 6038W        W21507  17.939  10.643  12.385 -0.2530 -0.0197  0.0737
 6039W        W21508   7.473   9.674  14.762  0.2217  0.0928 -0.0737
 6040W        W21509   2.746  12.770   4.344 -0.2984 -0.0035 -0.2390
 6041W        W21510   8.892   0.239  13.780 -0.0109 -0.0378 -0.0664
 6042W        W21511   4.025   8.979   3.631  0.1141 -0.1444  0.1385
 6043W        W21512   9.614   9.646  11.861 -0.0959  0.2691 -0.0070
 6044W        W21513  13.976   5.342   4.274 -0.0759  0.1179  0.0931
 6045W        W21514  16.439  11.286   0.613  0.1382 -0.0497  0.1630
 6046W        W21515   6.746  16.866  12.344  0.3857  0.2971  0.0686
 6047W        W21516  16.175   6.692  12.920  0.0385 -0.0952  0.1156
 6048W        W21517  13.620   2.571  14.678 -0.0811 -0.1183  0.1413
 6049W        W21518   1.408  10.518   4.846 -0.1331  0.6052 -0.0140
 6050W        W21519   1.065   8.447   1.021 -0.0714 -0.0850  0.1974
 6051W        W21520   3.238  16.217   2.045 -0.0693 -0.1388  0.6614
 6052W        W21521  12.817   2.854   1.984 -0.0527  0.5200 -0.0311
 6053W        W21522   8.090   2.788   1.200 -0.1131  0.2476 -0.0849
 6054W        W21523   5.401  14.203  15.272 -0.0162  0.0365 -0.1521
 6055W        W21524  12.225   9.700   1.804  0.2081 -0.1395  0.2694
 6056W        W21525   7.598  17.923  15.114 -0.0673  0.1316  0.0595
 6057W        W21526   8.629   2.469   2.337  0.0954  0.0909  0.2834
 6058W        W21527   3.784   5.212   0.428 -0.1462  0.4975  0.1529
 6059W        W21528   9.326   9.788  15.262 -0.0878 -0.0354 -0.0342
 6060W        W21529   6.014  17.751  14.479  0.0414  0.1599  0.1030
 6061W        W21530   7.759   9.582  11.277 -0.0204  0.2025  0.0904
 6062W        W21531   4.639  17.121   0.038 -0.3644  0.0866 -0.1760
 6063W        W21532  12.338   1.988  13.938 -0.0335  0.3852  0.0582
 6064W        W21533   0.213  18.281  14.946 -0.3375  0.2835 -0.1839
 6065W        W21534   1.928   0.204  15.153 -0.1310  0.2703  0.2487
 6066W        W21535   6.352   4.907  11.168  0.0561  0.3374  0.0702
 6067W        W21536   0.365  13.544  13.780  0.1771  0.4276  0.3183
 6068W        W21537   4.903   4.254   1.510  0.1592  0.0039 -0.0178
 6069W        W21538   5.788  16.745   4.487 -0.0823  0.3050  0.1480
 6070W        W21539  13.433   7.154   0.738  0.1398  0.2222  0.1675
 6071W        W21540   0.174  15.273  12.618 -0.2085 -0.0742 -0.1307
 6072W        W21541  11.154   6.535  11.085 -0.1743  0.0055 -0.1217
 6073W        W21542   7.869   1.614   0.015 -0.0857 -0.0464  0.1388
 6074W        W21543   3.911  10.329   1.896 -0.0409  0.1317  0.1197
 6075W        W21544   0.542  11.896   2.013  0.0359  0.0387 -0.1301
 6076W        W21545   5.166  12.777  13.761  0.0679  0.2992 -0.0015
 6077W        W21546  10.712   7.235  15.187 -0.0404 -0.0410 -0.0013
 6078W        W21547  16.976  13.623   6.017 -0.0734 -0.0318  0.1185
 6079W        W21548  10.096   4.408  14.286 -0.2424  0.2734 -0.4041
 6080W        W21549  12.908  13.631  11.685  0.0200 -0.2257 -0.0267
 6081W        W21550  13.311   4.557  14.385 -0.1193 -0.4679  0.1280
 6082W        W21551   9.957   0.129  12.671  0.1605 -0.1385  0.0522
 6083W        W21552   7.209  14.580  10.912  0.0789 -0.0619 -0.1739
 6084W        W21553  12.905  14.818   5.260 -0.2041  0.4720  0.1260
 6085W        W21554  10.398   4.132   2.669  0.1786 -0.0109 -0.0832
 6086W        W21555  17.229   0.247   3.011  0.2165 -0.0755 -0.2477
 6087W        W21556   5.083  14.185  14.384  0.0329 -0.1586 -0.3652
 6088W        W21557   8.400   5.101  12.703  0.0954  0.0518  0.2849
 6089W        W21558  10.942   3.496   5.127  0.1557  0.0258  0.0003
 6090W        W21559  18.689  18.650   9.505  0.0636  0.3315  0.1548
 6091W        W21560   1.375   9.089  12.574  0.2552 -0.1285 -0.1962
 6092W        W21561   0.555  10.722  12.137  0.1268  0.1546  0.0612
 6093W        W21562   7.200  18.563   1.308  0.0170 -0.2603  0.0348
 6094W        W21563  18.641  14.868   3.993  0.1771 -0.1140 -0.0368
 6095W        W21564   4.891  15.494  11.423  0.1810  0.0101  0.0877
 6096W        W21565  15.024   5.033   0.364  0.0586  0.0146 -0.0422
 6097W        W21566   3.593   7.289  13.515  0.0847 -0.0080  0.4165
 6098W        W21567  17.151   5.875   4.791  0.2341  0.0135 -0.0151
 6099W        W21568   5.519   5.476   5.053 -0.1798 -0.0311 -0.1155
 6100W        W21569   5.362   8.424  13.130 -0.3459  0.2154 -0.1077
 6101W        W21570  17.847   2.292  13.879 -0.2812 -0.2289  0.0570
 6102W        W21571  14.389   6.763   2.812  0.0094  0.0758  0.0315
 6103W        W21572   9.964   0.406   3.891  0.1438 -0.0176  0.2668
 6104W        W21573  18.473  12.648  14.645  0.1914 -0.1608  0.0938
 6105W        W21574  17.535  13.915   3.467  0.1766 -0.4835 -0.0523
 6106W        W21575   6.206  16.279  13.563  0.1654  0.2127 -0.0097
 6107W        W21576   0.010   2.873  11.660  0.0133  0.6510 -0.2790
 6108W        W21577   4.047   8.276   0.605  0.0372  0.1856 -0.2369
 6109W        W21578   0.641  15.254   2.245  0.0512  0.0053  0.0445
 6110W        W21579  17.288   8.381   4.318  0.0207  0.0406 -0.0796
 6111W        W21580  12.146  10.561   5.374  0.0335 -0.1254 -0.2228
 6112W        W21581   2.183  16.584   3.313 -0.1512 -0.1870 -0.0399
 6113W        W21582   4.809   2.403   4.555 -0.0503 -0.1652  0.1656
 6114W        W21583   5.360  13.943  14.723 -0.0763 -0.1965  0.0269
 6115W        W21584   6.725  17.835   4.938  0.3451  0.3052  0.0265
 6116W        W21585  14.810   6.034   5.388  0.2990  0.1238 -0.1519
 6117W        W21586  14.833  11.040   6.127 -0.0427  0.2741  0.1808
 6118W        W21587   7.584   9.663  10.362 -0.2530 -0.0111  0.0691
 6119W        W21588   5.172  12.706   1.314  0.0283  0.2645 -0.3840
 6120W        W21589   7.005  11.150   5.011 -0.2782  0.2105  0.1369
 6121W        W21590   8.504  17.643  10.254 -0.3258  0.1978  0.2324
 6122W        W21591  16.738   7.942   4.245 -0.1981 -0.1938  0.4097
 6123W        W21592  11.917   1.113   3.016 -0.0793  0.0717 -0.0167
 6124W        W21593  12.895   6.445   5.215  0.2191  0.2095 -0.0658
 6125W        W21594   2.390   6.244   3.629 -0.0418 -0.0661 -0.0430
 6126W        W21595  11.147  10.851   2.083 -0.1280  0.1156 -0.0596
 6127W        W21596  10.414   4.799  12.879 -0.0331 -0.0527 -0.0592
 6128W        W21597  14.243  17.089  15.375  0.4164 -0.0316 -0.4529
 6129W        W21598   4.922   5.473   4.978  0.0485 -0.1480  0.1683
 6130W        W21599  13.416   7.863  11.304 -0.1947 -0.0481  0.1591
 6131W        W21600  13.554  14.388   3.696  0.0041  0.0308  0.7086
 6132W        W21601  13.183  12.539  10.743 -0.0152  0.0851 -0.0302
 6133W        W21602   0.226   0.229   5.170  0.1054 -0.0018  0.1439
 6134W        W21603  14.235  18.237  14.712  0.0577  0.0732  0.2722
 6135W        W21604  12.151   4.781   0.507  0.0398 -0.1109 -0.1258
 6136W        W21605   8.386  10.159   5.495 -0.1615  0.5741 -0.1738
 6137W        W21606   5.271  12.378   4.388 -0.1773 -0.3045  0.0424
 6138W        W21607   0.225   0.824   3.088  0.0362 -0.1837 -0.1899
 6139W        W21608  14.794   0.061   0.208  0.1378 -0.2265  0.5680
 6140W        W21609   5.102   0.364  10.909  0.2446  0.0503 -0.1834
 6141W        W21610   7.482  16.522  10.759 -0.0812 -0.0702  0.1350
 6142W        W21611   8.319  15.695   1.094  0.2041  0.2193 -0.1820
 6143W        W21612   0.143   5.063   4.081  0.0861  0.2249  0.1126
 6144W        W21613  17.107  10.550  13.092  0.2065 -0.0188 -0.1767
 6145W        W21614   0.347   6.907   2.913 -0.0753  0.1366 -0.3081
 6146W        W21615   9.062   3.369  15.288  0.2658  0.0334  0.0288
 6147W        W21616   7.320   3.759   4.224  0.2038 -0.4216 -0.2835
 6148W        W21617  12.543  12.879  15.220 -0.0599 -0.1573  0.0701
 6149W        W21618  14.223  10.634   3.304 -0.1876  0.0661  0.4086
 6150W        W21619   1.389   7.606   6.290 -0.1983  0.0949  0.1708
 6151W        W21620   6.461   1.410   0.609  0.1109  0.2637 -0.3131
 6152W        W21621   0.781   5.666  11.999 -0.0011  0.0070 -0.0025
 6153W        W21622   4.978  13.231  11.734  0.1434 -0.4621  0.0561
 6154W        W21623   5.464   2.680  14.514 -0.0743 -0.2219 -0.0754
 6155W        W21624  17.847  15.085  13.582  0.1252  0.0701  0.2633
 6156W        W21625  13.280  11.019   4.648  0.1079  0.1841  0.0204
 6157W        W21626   0.080   5.976   2.606 -0.1173 -0.0588 -0.0988
 6158W        W21627   2.815  17.454  12.865  0.0675  0.3880 -0.1748
 6159W        W21628  13.924   9.101  15.582  0.1932  0.1888  0.2037
 6160W        W21629  10.072  10.256   4.776  0.0538 -0.0013 -0.0932
 6161W        W21630   5.925   2.439  14.144  0.0068 -0.2988 -0.4192
 6162W        W21631   4.278   9.579  10.886 -0.0541 -0.1795  0.2792
 6163W        W21632   9.414   5.462   9.953 -0.2253  0.0938 -0.1287
 6164W        W21633  14.182   9.656   1.238  0.1671 -0.0031  0.0436
 6165W        W21634   3.823   3.740  11.138  0.2217  0.2830  0.0340
 6166W        W21635   9.055  10.291   1.414 -0.2590  0.3555 -0.1502
 6167W        W21636   8.530   1.702  15.769  0.2149  0.1886 -0.0817
 6168W        W21637  12.337   5.893  11.213  0.1512 -0.0740  0.1837
 6169W        W21638   3.688   3.468   2.999 -0.1767  0.2071  0.0352
 6170W        W21639  12.325  14.723  13.633  0.2463 -0.2985  0.1949
 6171W        W21640  13.924  10.054  15.764 -0.1394 -0.3086  0.0111
 6172W        W21641  15.987   8.221  14.463 -0.0931 -0.1290  0.1739
 6173W        W21642  15.475   6.293   1.034 -0.0055  0.0375  0.2116
 6174W        W21643   4.829   5.141   0.066  0.1040  0.3265  0.1339
 6175W        W21644  13.876   2.792   2.017 -0.0826 -0.1280  0.1716
 6176W        W21645  11.833   9.278  15.472  0.1182  0.0532  0.1316
 6177W        W21646   3.299   4.313   2.986  0.2258 -0.0797  0.2282
 6178W        W21647   7.613  11.023  15.337 -0.2685 -0.0453 -0.1962
 6179W        W21648   2.545  17.060  11.198 -0.0582 -0.3605 -0.0213
 6180W        W21649  10.570  10.512   3.783  0.0567  0.0403 -0.3466
 6181W        W21650   5.251  12.098   3.898  0.1078 -0.0571  0.1157
 6182W        W21651  18.316  12.770   3.463 -0.1272  0.1095  0.1104
 6183W        W21652   4.311  12.813   2.102 -0.1970 -0.0542 -0.2451
 6184W        W21653  16.258   1.601   4.087  0.0055 -0.0987  0.1227
 6185W        W21654   9.695  18.281   0.391 -0.0246 -0.1791  0.0836
 6186W        W21655  10.725   5.991   2.965  0.0741 -0.0414 -0.0030
 6187W        W21656  17.444   7.487   3.005  0.0443  0.1378 -0.1491
 6188W        W21657  17.809   8.053   6.194  0.0178  0.2096 -0.0779
 6189W        W21658   4.020   0.676   1.419 -0.1819  0.2158  0.1435
 6190W        W21659   2.189  18.659   5.376 -0.0489 -0.1952  0.3052
 6191W        W21660   8.841   7.242   4.584 -0.1860  0.0852 -0.1899
 6192W        W21661   9.050   4.743   4.910  0.2630 -0.0889 -0.1496
 6193W        W21662  16.377  13.383   4.472  0.2195  0.2943  0.4324
 6194W        W21663  14.959   9.270  12.811  0.1525 -0.0710  0.1776
 6195W        W21664   4.798  18.360  14.523 -0.1832 -0.1541  0.4003
 6196W        W21665  11.873  18.268  12.137 -0.1643  0.0081  0.0308
 6197W        W21666   6.306  11.119  10.955 -0.0030  0.1773  0.1571
 6198W        W21667   5.871  16.707  14.789  0.0231  0.3078 -0.2022
 6199W        W21668   8.716  15.142   2.498 -0.0097  0.0366  0.0184
 6200W        W21669  17.006   2.557  10.951  0.1736 -0.3781  0.1390
 6201W        W21670  11.583  10.582  13.468  0.1634 -0.2495  0.1933
 6202W        W21671   9.224  15.432   5.210 -0.1066  0.1100 -0.2235
 6203W        W21672   7.987   2.283   1.069  0.2098  0.0275  0.1360
 6204W        W21673   3.940  14.930  13.574  0.2796 -0.1489 -0.0322
 6205W        W21674  11.276   2.963   4.501  0.1004 -0.1317 -0.2843
 6206W        W21675  16.167   9.984  10.389  0.0532 -0.1780  0.0380
 6207W        W21676  11.822   4.663   0.982 -0.0033  0.3078 -0.3005
 6208W        W21677   5.831  11.858  11.341  0.0841 -0.0501  0.1870
 6209W        W21678  13.796   0.125   1.810 -0.1872  0.4161 -0.1050
 6210W        W21679   5.292   2.250  14.764 -0.0969  0.1216  0.0299
 6211W        W21680  10.781   1.099   1.035 -0.0791  0.0088 -0.0293
 6212W        W21681   0.545   9.555   2.052  0.2281 -0.1157 -0.0827
 6213W        W21682   2.515  13.321  11.058  0.0026  0.1028 -0.1769
 6214W        W21683  10.783  13.582  15.143  0.1879 -0.3896  0.2982
 6215W        W21684   0.873  17.896  10.975  0.3239 -0.0156  0.2829
 6216W        W21685  15.392  13.852   1.493  0.1437 -0.0498 -0.1003
 6217W        W21686   2.287   4.128  12.589 -0.3216 -0.1255  0.1767
 6218W        W21687   2.833  12.323   1.515  0.0821 -0.0447  0.3301
 6219W        W21688   8.777   0.005  12.421 -0.1010 -0.6201  0.3165
 6220W        W21689   5.031   0.001   3.966  0.0412  0.2088 -0.1602
 6221W        W21690   9.554   6.407   4.259  0.1264 -0.0450 -0.1324
 6222W        W21691   0.279  11.281   2.235 -0.3283  0.1273  0.0405
 6223W        W21692  10.081  18.646   0.366 -0.2847 -0.0773  0.1987
 6224W        W21693   1.004   7.041   3.540 -0.2505  0.3956 -0.1770
 6225W        W21694   3.037   9.332   2.123 -0.0331 -0.0880  0.1896
 6226W        W21695  18.049   5.394  15.419 -0.1450 -0.0206  0.1569
 6227W        W21696  11.618  15.298   0.072 -0.0244  0.3103  0.3232
 6228W        W21697  14.581  11.243   2.149 -0.1635 -0.1325  0.2137
 6229W        W21698  13.251   0.884   3.399  0.2249 -0.1373  0.1265
 6230W        W21699  10.579   9.589  12.137 -0.0378 -0.0287  0.0257
 6231W        W21700   3.632   9.779  12.512  0.1507 -0.1075  0.0731
 6232W        W21701  12.776   2.039   3.887 -0.2190  0.2578 -0.1763
 6233W        W21702  16.990   6.041   1.504  0.1824 -0.3292 -0.0429
 6234W        W21703  12.125  15.083   4.242  0.4214 -0.1314 -0.2170
 6235W        W21704   7.137  16.565   1.373 -0.1104 -0.2802 -0.0450
 6236W        W21705  16.768  16.778   2.709 -0.0273 -0.1853  0.0893
 6237W        W21706   7.807  13.102   3.442  0.1724 -0.4900 -0.2560
 6238W        W21707   1.400   5.863  14.911 -0.2503  0.4076  0.0804
 6239W        W21708  14.159  16.314  15.250  0.0330  0.1821 -0.2589
 6240W        W21709   3.168   3.156  13.062 -0.1462  0.4119 -0.2689
 6241W        W21710  17.581   3.899  11.817  0.2880 -0.0829  0.1250
 6242W        W21711  12.319   2.196   2.107  0.0689  0.0241  0.2372
 6243W        W21712   6.105   0.379   4.430 -0.3517 -0.3103  0.2887
 6244W        W21713  15.250   4.452   1.188  0.1393 -0.0450  0.0847
 6245W        W21714   9.437   1.802  13.724 -0.3101 -0.3024 -0.1969
 6246W        W21715  13.667   7.804  13.030  0.2209 -0.4204 -0.0354
 6247W        W21716   3.430   1.322  10.323 -0.0681 -0.2718 -0.0359
 6248W        W21717  15.077   0.570   4.017  0.2519 -0.0649  0.1593
 6249W        W21718   6.871  17.528   3.956  0.2985 -0.0460 -0.2694
 6250W        W21719   5.000  14.739   2.782 -0.0978 -0.0440  0.2369
 6251W        W21720  13.713  12.877  14.377 -0.0309  0.1239  0.4628
 6252W        W21721   9.892  17.370   2.721  0.2309 -0.0428  0.0971
 6253W        W21722   4.998  10.013  14.761  0.0167  0.0747  0.0058
 6254W        W21723   8.515   2.457   0.529 -0.0123 -0.0636  0.3943
 6255W        W21724   2.726   1.541   4.911 -0.0522 -0.2462  0.0994
 6256W        W21725  12.324   1.378  12.479  0.0126  0.0840  0.0233
 6257W        W21726   8.249   6.186   2.718 -0.0192 -0.0004 -0.0683
 6258W        W21727   5.941  10.746  15.203  0.1277 -0.0161  0.2963
 6259W        W21728   8.504   7.740   3.256  0.2341 -0.1469 -0.1534
 6260W        W21729   3.470   8.564   4.691 -0.0306 -0.1434 -0.1152
 6261W        W21730  15.410  11.662  11.273  0.3035 -0.1088  0.1004
 6262W        W21731   5.353  15.212  10.087  0.3794  0.0624 -0.0870
 6263W        W21732   6.961   8.600   5.589  0.1470 -0.1823  0.1416
 6264W        W21733  14.495  15.776   3.962  0.3159 -0.0535 -0.0360
 6265W        W21734  17.978  11.478   0.825  0.0181  0.0210  0.4863
 6266W        W21735   5.714  13.363   4.323  0.0182 -0.3443 -0.3748
 6267W        W21736  17.084  14.671  12.113 -0.1146  0.2779  0.0862
 6268W        W21737  15.507  13.422   6.072 -0.3055  0.1276  0.0264
 6269W        W21738   3.853  15.489   0.947  0.0340 -0.2159 -0.0815
 6270W        W21739   2.847  14.379   0.682 -0.0342 -0.4264  0.0404
 6271W        W21740  11.267   7.443  12.445  0.0363  0.2382 -0.2382
 6272W        W21741   0.948  17.448  11.170  0.1728  0.1581  0.0078
 6273W        W21742   2.117  12.014  12.331 -0.1080  0.0346 -0.0067
 6274W        W21743  17.449  14.314   3.009 -0.3184  0.1740 -0.2885
 6275W        W21744  13.271   1.736  11.665 -0.3691  0.2149  0.1478
 6276W        W21745  18.506   4.934  14.696 -0.0028 -0.1685 -0.0444
 6277W        W21746  16.060   0.697   3.957  0.0823 -0.1960  0.1123
 6278W        W21747   4.977  11.175  11.577 -0.1526 -0.0220  0.3256
 6279W        W21748   2.421   2.593   1.083 -0.3845  0.0823  0.0459
 6280W        W21749  17.312  14.786   3.249  0.2648 -0.2570 -0.0730
 6281W        W21750   0.790   0.608   0.798  0.2513  0.1881  0.2204
 6282W        W21751   3.089  11.407   5.517  0.4018 -0.0620  0.0852
 6283W        W21752  12.863   7.081   0.326 -0.1200 -0.1331 -0.0830
 6284W        W21753   1.896   2.415  10.010  0.0543  0.3791  0.1693
 6285W        W21754   1.650  14.844   1.060  0.1703  0.3819 -0.0113
 6286W        W21755   8.809  14.233   3.593  0.1068 -0.0961 -0.2903
 6287W        W21756  14.074   1.466   0.534 -0.0628 -0.5779 -0.1370
 6288W        W21757   7.707  16.011  12.581  0.0297 -0.1508 -0.1815
 6289W        W21758   8.508   4.429  14.468 -0.1877 -0.0531  0.0546
 6290W        W21759   4.565   4.398   3.251  0.5108 -0.1850 -0.3625
 6291W        W21760   2.002  16.097   4.881 -0.0405  0.2980  0.0532
 6292W        W21761   8.881   8.639   3.191  0.1072 -0.1874 -0.0607
 6293W        W21762   1.710  13.703   2.278  0.4549 -0.0382 -0.2316
 6294W        W21763   8.371  18.572  14.717  0.0784 -0.3872  0.1893
 6295W        W21764   9.359   6.996   1.256 -0.0315 -0.1155 -0.1564
 6296W        W21765   7.637  14.773   0.012  0.3883  0.0271 -0.0081
 6297W        W21766   4.873   9.035   3.601 -0.2238  0.2912  0.1185
 6298W        W21767   2.478   6.546   4.575 -0.0443 -0.0379 -0.2019
 6299W        W21768  16.832   3.852  13.734 -0.0564  0.0504 -0.1079
 6300W        W21769  11.355  12.411  14.990  0.2518 -0.0086 -0.0283
 6301W        W21770   7.476  16.443  11.287  0.1860 -0.0259 -0.0773
 6302W        W21771   4.712  14.917   3.990  0.2280  0.1666  0.2216
 6303W        W21772   3.506   6.221   3.521  0.0775  0.0067  0.0990
 6304W        W21773  12.124   5.720  13.983 -0.1476 -0.1644 -0.0128
 6305W        W21774   0.071   6.081  12.469  0.0022  0.0019  0.2129
 6306W        W21775   4.037  12.248  11.816  0.4246  0.2230 -0.1771
 6307W        W21776   7.416  18.664   4.779  0.1556 -0.0536 -0.0909
 6308W        W21777  16.813   0.623   2.700  0.1395  0.0380  0.1933
 6309W        W21778  18.170  16.739   3.190  0.0815 -0.0537 -0.0198
 6310W        W21779  16.618  10.521  14.469 -0.0132 -0.3245 -0.0922
 6311W        W21780  11.964  14.641  11.578  0.0237  0.3386 -0.1330
 6312W        W21781   0.083  11.026   4.874  0.0763 -0.0941 -0.1233
 6313W        W21782  18.471  18.432   0.480  0.0996 -0.0254  0.2497
 6314W        W21783  10.590   8.377   3.789 -0.2798 -0.0151 -0.0973
 6315W        W21784  18.044   5.211   1.887 -0.5340 -0.0621 -0.2925
 6316W        W21785  18.438  10.054  11.501 -0.0935 -0.0070 -0.0318
 6317W        W21786  11.513  10.361   1.292  0.1500  0.0399 -0.1721
 6318W        W21787  11.021  11.441  11.988 -0.0020  0.3019  0.0831
 6319W        W21788   8.888   1.936   1.202  0.0101  0.1699 -0.2111
 6320W        W21789  14.307   3.246   1.125  0.2311 -0.0862 -0.0553
 6321W        W21790   7.868   6.588  13.229 -0.1517 -0.0648 -0.1169
 6322W        W21791  11.623   3.539  14.673 -0.1906  0.2379 -0.1147
 6323W        W21792  14.599  10.895   4.998  0.1830 -0.2765 -0.3187
 6324W        W21793  15.614  15.903   3.393 -0.1989 -0.2998  0.0654
 6325W        W21794  14.326  12.023  15.363 -0.1325 -0.0556  0.0692
 6326W        W21795   1.770  12.543   4.542 -0.2456 -0.0829  0.0176
 6327W        W21796   2.646  15.651  15.563 -0.2822  0.0608 -0.2454
 6328W        W21797   2.666  13.743   1.654 -0.2447  0.2397  0.1328
 6329W        W21798  15.699  12.126   5.933 -0.0364 -0.3338 -0.0555
 6330W        W21799  16.656   5.900  11.595  0.3138  0.3196  0.0265
 6331W        W21800   8.124  13.147  12.952  0.1829 -0.1761 -0.1142
 6332W        W21801  13.263   5.036   6.059 -0.0488 -0.0856 -0.1564
 6333W        W21802   0.819  13.956   1.554  0.0563  0.0478 -0.1345
 6334W        W21803   2.883  18.578  11.907  0.2196 -0.2446  0.0172
 6335W        W21804  10.828   0.165   2.427 -0.5475 -0.0086  0.1257
 6336W        W21805  17.348  17.476  14.584 -0.3442  0.0282 -0.0483
 6337W        W21806   0.062  11.134  10.948  0.0828 -0.1838 -0.0402
 6338W        W21807  15.434  13.504   4.815 -0.0568 -0.2437  0.1677
 6339W        W21808  16.403  13.548  15.535  0.0400 -0.0957 -0.3199
 6340W        W21809  11.262   9.622   0.121 -0.2143 -0.0643 -0.0608
 6341W        W21810   8.639   2.931  14.786  0.0087  0.0329  0.1059
 6342W        W21811  14.458  11.139   1.309  0.0387  0.4428  0.0462
 6343W        W21812  18.685  13.852  13.851  0.3835 -0.1501 -0.1231
 6344W        W21813  15.864   8.283   0.476  0.3771  0.2037 -0.0626
 6345W        W21814  17.419   2.890  10.675  0.1616 -0.1914 -0.2095
 6346W        W21815   9.530  12.042   2.219  0.0018  0.1582  0.4375
 6347W        W21816  12.282  10.395  15.001 -0.1815  0.2240 -0.1380
 6348W        W21817   8.444   2.943  12.970 -0.0309  0.2239  0.3885
 6349W        W21818  11.301  13.378  12.924 -0.1155 -0.0537  0.2165
 6350W        W21819   3.138  14.101   5.421  0.0046  0.0165 -0.1022
 6351W        W21820  18.171   3.500   2.057 -0.0971 -0.1593 -0.0956
 6352W        W21821  16.244   2.374   5.644  0.1779 -0.0956 -0.1977
 6353W        W21822   6.927  13.621  12.237  0.2417 -0.2068  0.2673
 6354W        W21823   6.470  16.713   0.373  0.4236  0.1880  0.2155
 6355W        W21824  11.703  17.566  14.465 -0.0065  0.1998 -0.1820
 6356W        W21825   9.072  16.021   3.437 -0.1691  0.0503 -0.1148
 6357W        W21826   2.955   6.627   4.379 -0.0988  0.0285 -0.4385
 6358W        W21827   3.671  15.222   5.007  0.2559  0.0374  0.3914
 6359W        W21828   8.659  14.782   5.564  0.0709 -0.4366  0.3319
 6360W        W21829   6.478   1.595   0.077  0.0252 -0.1764 -0.2947
 6361W        W21830  10.536   0.282   2.051  0.2478  0.0076 -0.3935
 6362W        W21831   1.743   0.915   3.937  0.6821  0.1625  0.0746
 6363W        W21832  13.941   1.437  14.061 -0.0636  0.0165 -0.0977
 6364W        W21833   4.196  10.542  13.753 -0.1758  0.0373 -0.1537
 6365W        W21834  10.890   8.553   1.597 -0.2305  0.3384  0.1440
 6366W        W21835  12.301  16.369  14.890  0.2286 -0.1136  0.1033
 6367W        W21836  12.168   6.500  10.893  0.0058  0.3432 -0.0326
 6368W        W21837   5.156  15.794   5.424  0.2385  0.2401  0.2176
 6369W        W21838  13.701   0.031  15.704 -0.0874  0.0899  0.1028
 6370W        W21839   3.192   6.901   5.233  0.2318 -0.0300 -0.1316
 6371W        W21840  10.519   1.408   2.211 -0.1976 -0.2639 -0.1498
 6372W        W21841   8.952  16.095   0.581 -0.0328 -0.2946  0.0445
 6373W        W21842   8.731  10.559   3.632 -0.2291 -0.2802  0.0047
 6374W        W21843   6.436  13.278   4.997  0.0474  0.1345  0.1490
 6375W        W21844  16.350   0.248  13.830  0.4513 -0.3007 -0.2140
 6376W        W21845   6.852  15.031  12.484  0.0695 -0.0773 -0.1066
 6377W        W21846  18.290  10.227   0.132 -0.1619  0.1524  0.0762
 6378W        W21847   3.294  11.349   4.425  0.1215 -0.0363  0.0410
 6379W        W21848   7.071  16.586  12.077 -0.0804 -0.2944 -0.1939
 6380W        W21849   6.164  17.654  13.988 -0.1055  0.0739 -0.1980
 6381W        W21850   2.889   9.684   0.286 -0.1046 -0.0726 -0.0195
 6382W        W21851  11.590   0.657   3.073  0.1047 -0.0959 -0.1565
 6383W        W21852   0.475   2.901   2.249 -0.1190 -0.2024 -0.1684
 6384W        W21853   6.636  13.188  12.094 -0.2242  0.1614  0.1191
 6385W        W21854   5.649   0.928   0.786 -0.2628 -0.1980 -0.0538
 6386W        W21855   9.367  11.059  14.838 -0.0552  0.0678 -0.3519
 6387W        W21856   0.203  12.722   3.392 -0.1568  0.0226 -0.1429
 6388W        W21857   8.675   5.520  11.367 -0.1539 -0.2797 -0.4345
 6389W        W21858  14.885  15.170   5.717 -0.0004  0.0880 -0.4208
 6390W        W21859   9.608  18.390   2.982  0.0011 -0.0670 -0.0441
 6391W        W21860   7.015  15.004  14.978 -0.0237 -0.0900 -0.1310
 6392W        W21861  11.602   1.849   5.425  0.3137 -0.1218  0.1163
 6393W        W21862  16.336   9.629   5.106 -0.2545  0.1036  0.4455
 6394W        W21863  14.572  14.171  11.624  0.1617 -0.0484 -0.2342
 6395W        W21864   8.323  14.966   0.298  0.0435  0.0870 -0.0720
 6396W        W21865   0.156  17.213  13.518  0.1573 -0.1861  0.2814
 6397W        W21866   4.346   2.401  11.394 -0.2988  0.0140 -0.4020
 6398W        W21867   1.025  17.947   1.908 -0.3303 -0.1752 -0.0006
 6399W        W21868   6.095  10.178   5.659  0.3039 -0.3536  0.0548
 6400W        W21869  10.943   9.231   0.163 -0.1880  0.1746 -0.0666
 6401W        W21870  11.913  17.314  15.616  0.0154 -0.1785  0.0199
 6402W        W21871   2.541  13.529   3.722 -0.3602  0.2047  0.1534
 6403W        W21872  15.596  10.874  14.681 -0.0665 -0.0080  0.2302
 6404W        W21873   9.895  10.241  15.661  0.1424  0.1132  0.2133
 6405W        W21874   5.620   3.661   4.671 -0.2950  0.3850  0.1993
 6406W        W21875  16.687   9.461   2.070  0.1807 -0.1689  0.0945
 6407W        W21876  15.798   8.688  11.926  0.0190 -0.1164  0.1902
 6408W        W21877   8.155  11.110   1.247 -0.1856  0.0297 -0.2875
 6409W        W21878   0.257  14.752   1.402  0.0298  0.3343  0.0809
 6410W        W21879   9.494   3.062   0.363 -0.0799 -0.0786  0.2219
 6411W        W21880   1.130  17.568  14.341  0.1163 -0.1780 -0.1321
 6412W        W21881  15.424   8.121  10.723 -0.0431  0.1695  0.1101
 6413W        W21882   1.151   7.972  14.497 -0.4611  0.1450 -0.0709
 6414W        W21883   3.279  17.952   2.950 -0.2080  0.0854 -0.0125
 6415W        W21884  15.890  13.293  12.845 -0.0241  0.1472 -0.0681
 6416W        W21885  16.875   2.820  15.199  0.0493 -0.2184  0.0579
 6417W        W21886  12.223  12.029   1.919 -0.2930 -0.0942  0.0489
 6418W        W21887   6.380   2.233   0.917  0.0328 -0.0647 -0.0004
 6419W        W21888  10.487   0.278   4.986  0.3744 -0.1064 -0.0170
 6420W        W21889   6.740   9.050  13.408 -0.0419 -0.1967  0.3600
 6421W        W21890  10.538   7.512  11.031  0.0046  0.1245 -0.1371
 6422W        W21891  17.755  11.940  11.261 -0.0818 -0.3037 -0.1142
 6423W        W21892   4.267  15.827  12.134 -0.0175 -0.2905  0.2157
 6424W        W21893  12.087   9.134   2.607  0.2915  0.2594  0.1146
 6425W        W21894   3.538  17.679  10.503 -0.0291 -0.0086 -0.4204
 6426W        W21895   4.241   2.099  11.844 -0.0621 -0.0082 -0.1009
 6427W        W21896   6.076  14.868  14.484 -0.2255  0.0494 -0.1533
 6428W        W21897  14.683   3.633   1.140 -0.0200  0.0579 -0.1955
 6429W        W21898  15.266   5.502   0.445 -0.1836  0.1203 -0.1141
 6430W        W21899   7.121  12.450   0.954  0.0908  0.1213 -0.0407
 6431W        W21900  14.374  12.472   1.132 -0.3380 -0.1080  0.1068
 6432W        W21901   8.645   6.551  10.683 -0.1693  0.0086  0.0635
 6433W        W21902  10.546   1.564  14.106 -0.2963 -0.0935  0.0389
 6434W        W21903  17.560   2.533   2.752  0.1484  0.0765  0.0221
 6435W        W21904  11.186  11.060   0.616 -0.1608  0.0265  0.0338
 6436W        W21905   1.497  18.672   0.363 -0.0232 -0.3378 -0.1304
 6437W        W21906  14.914   5.120   3.364 -0.3004 -0.3216 -0.0866
 6438W        W21907  11.059  13.922   2.267 -0.1648 -0.0928  0.2002
 6439W        W21908   2.366   1.853   0.148 -0.0334 -0.2143 -0.0650
 6440W        W21909   0.599   3.066   2.718  0.0485 -0.0786  0.1355
 6441W        W21910  11.405   1.472   3.689 -0.1920 -0.0459 -0.0956
 6442W        W21911   7.181   7.025   0.926 -0.1653  0.1046 -0.1460
 6443W        W21912   9.706  13.190  14.664  0.1721  0.0364  0.0619
 6444W        W21913   4.136   8.507  13.854  0.1183  0.0929  0.1364
 6445W        W21914   6.593  16.765   3.097  0.0338  0.0772  0.0127
 6446W        W21915   0.275  13.696  14.990  0.0594  0.0777  0.0314
 6447W        W21916   5.173  15.045  10.517 -0.3667 -0.1562 -0.0248
 6448W        W21917  14.068   3.491   3.439 -0.0016 -0.1423  0.0199
 6449W        W21918   7.558  15.749   3.342 -0.6544 -0.0680  0.1160
 6450W        W21919   6.876  17.519  13.369 -0.0366 -0.0390 -0.0836
 6451W        W21920  11.726  12.927  15.410  0.0290 -0.0037 -0.0223
 6452W        W21921   3.249  17.427  12.580  0.2673  0.2154  0.2316
 6453W        W21922   4.759  11.608   4.532  0.0553  0.0196  0.0276
 6454W        W21923  17.870  10.722   3.202 -0.0608  0.0053  0.0415
 6455W        W21924  12.995  17.619   3.312  0.0834 -0.1077 -0.0668
 6456W        W21925  14.232   4.113   1.844 -0.0202  0.2352 -0.2932
 6457W        W21926   5.871   1.558   1.809  0.1637  0.0327  0.2592
 6458W        W21927   2.114  12.878   4.869  0.0522 -0.1845 -0.1679
 6459W        W21928  12.345  10.103  13.602 -0.2281 -0.1162 -0.4061
 6460W        W21929  13.847   6.701   2.855 -0.0068 -0.2636 -0.0538
 6461W        W21930  11.112  10.382  13.363 -0.2010 -0.2241 -0.2350
 6462W        W21931  14.739  13.678   1.759 -0.1477 -0.4357  0.1167
 6463W        W21932   6.906  15.573  12.395 -0.2131  0.1717  0.1153
 6464W        W21933  15.915  14.208  13.398  0.1454 -0.1301 -0.0366
 6465W        W21934   8.835  15.843  15.169 -0.1819  0.0665  0.2064
 6466W        W21935   1.334  16.869   4.999 -0.0738  0.0218  0.0272
 6467W        W21936  10.440   2.942   3.292  0.2997  0.0901 -0.4320
 6468W        W21937  15.939  17.565   1.296 -0.0271 -0.1261 -0.1162
 6469W        W21938   1.395   6.577  13.007  0.1787 -0.1014  0.2376
 6470W        W21939   5.517   6.436   2.540 -0.2376 -0.2077 -0.0810
 6471W        W21940   7.511   6.258   0.337  0.2711 -0.0800  0.0416
 6472W        W21941  13.608  15.275  12.210  0.2487 -0.1110  0.0751
 6473W        W21942  17.453   3.081  13.423  0.0237 -0.2419 -0.2090
 6474W        W21943  17.827   8.298  14.104  0.2009  0.3150 -0.2226
 6475W        W21944  13.438   0.701   5.493 -0.2125  0.2494  0.0626
 6476W        W21945  14.058   0.437  13.657  0.0632  0.0190  0.1071
 6477W        W21946  11.267   6.532  15.569 -0.1318 -0.0904  0.0017
 6478W        W21947   4.441  11.171   4.562 -0.0568  0.3308 -0.1576
 6479W        W21948  12.047   2.782   4.878 -0.0474 -0.1183 -0.1799
 6480W        W21949  15.023  16.541  10.366 -0.0061 -0.2157 -0.1210
 6481W        W21950   8.458  17.143  14.977 -0.1096  0.1497 -0.1801
 6482W        W21951  14.853  12.642  14.659 -0.0027 -0.2234 -0.1282
 6483W        W21952  10.879   2.185   5.283 -0.1558  0.0743 -0.1130
 6484W        W21953   1.494   2.821  13.279  0.4065  0.0318 -0.2319
 6485W        W21954  10.991   7.483   0.702 -0.1045  0.0563 -0.3290
 6486W        W21955  13.644   7.632   4.594  0.0525  0.0441 -0.0062
 6487W        W21956   2.678   9.278   6.044 -0.0948  0.0069  0.2777
 6488W        W21957   4.730   2.004  13.542  0.0222  0.0199  0.1565
 6489W        W21958  15.014   8.082  11.186  0.2238 -0.0074 -0.2097
 6490W        W21959   1.029   6.345  14.001  0.2300 -0.2770  0.0515
 6491W        W21960  12.971  16.164   3.953  0.4411  0.0312 -0.1022
 6492W        W21961   3.417   7.693  12.646 -0.2019 -0.4246 -0.1025
 6493W        W21962  12.261   5.133   5.041 -0.1789 -0.1705 -0.2932
 6494W        W21963   1.975  18.052  15.501  0.1935 -0.2188 -0.1209
 6495W        W21964   2.955   4.126   2.593  0.1002  0.0453 -0.1680
 6496W        W21965  10.377  17.123   4.526  0.1439  0.0867 -0.0314
 6497W        W21966  10.582   6.193  14.999 -0.0317  0.0532  0.2533
 6498W        W21967   5.291  12.422   2.063  0.2745  0.1936 -0.1454
 6499W        W21968  17.767  10.066   5.661 -0.2690 -0.0314  0.2182
 6500W        W21969  15.552  14.671   0.094  0.2475  0.0836  0.1074
 6501W        W21970   9.652  13.098   1.824 -0.1895  0.0703  0.1342
 6502W        W21971  13.895  13.415   5.692 -0.0897  0.0085 -0.1683
 6503W        W21972   9.123   7.300  14.376  0.0415  0.0641  0.0731
 6504W        W21973   2.705  16.447  10.109  0.1273 -0.0146 -0.2892
 6505W        W21974   1.669  11.469   2.677  0.1010  0.1208 -0.5223
 6506W        W21975   5.063   3.218   1.578 -0.2543  0.2907 -0.1225
 6507W        W21976   5.734   1.496   3.499  0.0115 -0.1667  0.1035
 6508W        W21977  16.327   2.227  12.141 -0.1927 -0.1116  0.0473
 6509W        W21978  14.230   3.642   2.510  0.0605 -0.3372  0.0740
 6510W        W21979   7.838  11.987   6.324 -0.0577  0.0028 -0.2797
 6511W        W21980   4.316   1.262  12.975  0.1916  0.0510 -0.2002
 6512W        W21981   0.599   3.880   3.182  0.1852 -0.1752 -0.0592
 6513W        W21982  13.595  16.666   0.762  0.0276  0.1640 -0.2346
 6514W        W21983  15.032  15.335   0.625  0.0400 -0.1183 -0.0207
 6515W        W21984   5.750   8.513  13.368  0.2193  0.0593 -0.0844
 6516W        W21985  12.580   0.357  12.601  0.0571 -0.5121  0.2681
 6517W        W21986  15.770  14.083  14.527  0.1264  0.1857 -0.1688
 6518W        W21987   6.345   2.463   5.142 -0.1483 -0.1012  0.1692
 6519W        W21988  12.840  12.549  14.274  0.2607  0.0059  0.2301
 6520W        W21989   1.250   3.353  11.766 -0.1534  0.1102 -0.0093
 6521W        W21990   6.497   5.177   0.857  0.1306  0.0385  0.1522
 6522W        W21991  10.966   1.245  14.156 -0.1118  0.0433 -0.1058
 6523W        W21992  16.715   2.151  11.751 -0.0608  0.1940 -0.3264
 6524W        W21993   7.035   8.880   3.697 -0.0172 -0.0953  0.0795
 6525W        W21994  18.624  13.104   3.639  0.1092 -0.2087 -0.0856
 6526W        W21995   1.500  14.122   0.090 -0.0820 -0.0602  0.0598
 6527W        W21996   3.238   1.805  10.194  0.4720 -0.1301  0.0875
 6528W        W21997   6.700   2.902  14.730 -0.2117  0.1294 -0.0503
 6529W        W21998  14.549   0.907  14.165  0.0431  0.0495  0.0289
 6530W        W21999   8.420   1.997   3.069  0.1878 -0.2512  0.1760
 6531W        W22000  16.188   1.341  12.703  0.3035  0.1857 -0.0157
 6532W        W22001   0.357  15.400   3.428 -0.1164  0.1273 -0.0073
 6533W        W22002  12.803   5.908   2.610 -0.4108  0.1449  0.0721
 6534W        W22003  16.994   7.801   5.168 -0.1800  0.0039  0.0675
 6535W        W22004   1.512   7.678   3.825  0.0468  0.0587 -0.0603
 6536W        W22005   9.625  16.921  15.100 -0.0101 -0.2956  0.2398
 6537W        W22006   9.064   4.869   1.090 -0.0666  0.2953  0.0508
 6538W        W22007  10.967   0.301  15.332 -0.3431  0.1388 -0.1964
 6539W        W22008  15.401  10.157  15.454  0.1930  0.0603 -0.2641
 6540W        W22009   5.176  15.919  12.421 -0.2874  0.3081 -0.3477
 6541W        W22010  13.993   0.452  14.155 -0.2998 -0.2374  0.0837
 6542W        W22011  17.603   5.399   1.652 -0.0669 -0.0249  0.1769
 6543W        W22012  16.744  13.119   4.771  0.0281 -0.0016  0.1663
 6544W        W22013  17.000   5.094   3.504  0.0158 -0.1302 -0.0295
 6545W        W22014   8.113   5.434   3.509 -0.4398  0.1819  0.1459
 6546W        W22015   7.322  18.691  11.724 -0.0510  0.1386 -0.2010
 6547W        W22016   1.566   3.446   4.725  0.0850 -0.0668 -0.0240
 6548W        W22017   1.652   7.435  10.608 -0.0096 -0.0585 -0.2647
 6549W        W22018   2.173   4.064  13.129 -0.2836 -0.1641 -0.1043
 6550W        W22019  14.382   6.777   1.002 -0.1334 -0.0170  0.3795
 6551W        W22020  14.803  16.832   2.342 -0.0967  0.0559  0.0011
 6552W        W22021   3.758   1.892   1.819 -0.0482  0.2924 -0.1745
 6553W        W22022   3.545  16.394  15.781  0.1113  0.1731 -0.1123
 6554W        W22023  13.828  17.521   1.127 -0.0675 -0.0911  0.3960
 6555W        W22024  11.161  10.504   3.686  0.1284  0.1248 -0.1623
 6556W        W22025  17.578  11.904   0.056  0.1014  0.1857  0.2284
 6557W        W22026   3.610   5.542  12.461  0.2591 -0.0458  0.3135
 6558W        W22027  10.465  10.386   5.079 -0.1546  0.0563 -0.2958
 6559W        W22028  12.901  16.012   2.589  0.2316  0.0362 -0.0085
 6560W        W22029  10.136  16.902  12.774  0.1559  0.0709 -0.0388
 6561W        W22030   2.402  14.019  10.847  0.0882  0.0591  0.1010
 6562W        W22031  13.683  17.327   4.307 -0.3504  0.1208 -0.0181
 6563W        W22032  17.132   2.728  12.541  0.1830  0.1004 -0.1896
 6564W        W22033   4.126  16.026   3.615  0.1625  0.0505 -0.0923
 6565W        W22034  17.675  18.376  15.095  0.0742  0.2890 -0.1850
 6566W        W22035   3.156  10.591   2.345  0.4301  0.1086  0.1079
 6567W        W22036  17.715   3.089  11.031  0.0347 -0.1109  0.1254
 6568W        W22037   6.531  13.869   2.461  0.0723 -0.2452  0.3048
 6569W        W22038   0.326  12.378  15.509  0.0897 -0.1797  0.3605
 6570W        W22039   5.941   1.884  10.708 -0.2129  0.2221  0.1906
 6571W        W22040   1.608   1.919  13.291 -0.0415  0.0502 -0.1977
 6572W        W22041   1.345  10.794   0.841  0.2296  0.1867 -0.1950
 6573W        W22042   2.168  16.670  12.022  0.0779  0.1937  0.0583
 6574W        W22043  12.721  16.324  14.183 -0.2854  0.0943  0.2077
 6575W        W22044   7.618   3.794   5.420 -0.1550  0.1939 -0.2839
 6576W        W22045   1.027  14.661  14.703  0.0603  0.2746  0.2693
 6577W        W22046   5.292  13.615  14.322  0.0707 -0.0457  0.0997
 6578W        W22047   4.114  13.651  10.677 -0.2343 -0.2922  0.0457
 6579W        W22048  10.666  13.314   1.573  0.0668  0.0466 -0.3906
 6580W        W22049   1.904  15.973  12.782  0.2692  0.0640 -0.0527
 6581W        W22050  11.254   9.962   3.695  0.1217 -0.0715 -0.2146
 6582W        W22051  17.547  10.151   4.020 -0.2179 -0.1609 -0.1589
 6583W        W22052   6.246   7.626   0.088  0.0409  0.1010 -0.3069
 6584W        W22053   2.500  15.337  10.878 -0.0429  0.0861 -0.1686
 6585W        W22054   9.658  11.880   1.500 -0.0095  0.0143  0.1089
 6586W        W22055   0.825  15.766  13.821 -0.1459 -0.0924  0.0486
 6587W        W22056   2.624   0.120   1.543  0.0455 -0.0882  0.1106
 6588W        W22057   8.287  14.857   2.294  0.4005 -0.1599 -0.0339
 6589W        W22058  17.685   3.423   5.496  0.2365 -0.0413  0.1514
 6590W        W22059  14.544  12.877  15.002 -0.0861  0.2707 -0.2291
 6591W        W22060  11.261   4.290   3.158  0.2990  0.0445  0.1638
 6592W        W22061   7.410  14.430   1.998  0.1947 -0.1692  0.0314
 6593W        W22062  15.954  18.374  15.026  0.1805 -0.2065 -0.1915
 6594W        W22063  18.476   3.732  13.380 -0.1020 -0.1063 -0.1768
 6595W        W22064  15.449   0.759   2.393  0.0837 -0.1381  0.0374
 6596W        W22065  10.355  17.663   3.844  0.0688  0.0425 -0.0033
 6597W        W22066  12.353   7.669  12.239  0.3872  0.5382 -0.4420
 6598W        W22067   6.636  12.310   3.097  0.0586 -0.0878 -0.0036
 6599W        W22068  12.846  14.781  11.795 -0.1099  0.0817 -0.1778
 6600W        W22069  14.629  15.310   3.781 -0.0953 -0.3216  0.1131
 6601W        W22070  14.951  11.837   1.643  0.2762  0.0101  0.1979
 6602W        W22071  16.719  16.669  11.999  0.2950 -0.1245  0.0570
 6603W        W22072   1.592   6.011   0.950  0.3180  0.3586 -0.0228
 6604W        W22073  12.456   8.207  15.135  0.1467 -0.1514 -0.3691
 6605W        W22074  17.911  16.886   3.575  0.3702  0.1021 -0.1385
 6606W        W22075   9.187   9.282   2.405  0.1635 -0.1510  0.2249
 6607W        W22076  17.131  14.860  13.942  0.3671 -0.0132  0.2293
 6608W        W22077  18.322  14.550   1.947  0.0714 -0.0758 -0.0399
 6609W        W22078   1.065   1.182  13.995 -0.0332 -0.0747 -0.0952
 6610W        W22079   0.550  12.245  12.224 -0.4377 -0.2123  0.0199
 6611W        W22080   0.162   6.707  15.579 -0.0907 -0.3660  0.1346
 6612W        W22081   8.684   4.976  14.332 -0.1849  0.0760  0.0362
 6613W        W22082   4.706   6.646   3.383 -0.1467  0.1120 -0.1619
 6614W        W22083   6.166   7.750  15.058 -0.2357 -0.1028 -0.3937
 6615W        W22084   2.374   5.019   3.776  0.4755 -0.0181  0.5043
 6616W        W22085   8.055  15.266  13.042 -0.0964  0.3750 -0.1264
 6617W        W22086  15.031  11.700  14.538 -0.1351 -0.0766 -0.4037
 6618W        W22087   9.323   2.493  10.933 -0.0340  0.0763  0.0507
 6619W        W22088  15.361   5.734  11.910 -0.0044  0.6157 -0.1819
 6620W        W22089   9.165   1.934   0.015 -0.2473  0.1198  0.0194
 6621W        W22090   4.839   0.988   4.837 -0.2976 -0.0947  0.1970
 6622W        W22091   0.305  10.649   5.199  0.1250 -0.2120 -0.0066
 6623W        W22092   6.228  15.842   0.416  0.3356  0.3503  0.0907
 6624W        W22093   6.333   1.694   1.566  0.0058 -0.0188 -0.1434
 6625W        W22094   6.645   6.766  11.298 -0.2599  0.1259 -0.0051
 6626W        W22095  12.411   9.019   3.642  0.1828 -0.1259 -0.1314
 6627W        W22096   9.682   9.524  11.284 -0.0835 -0.0307  0.0949
 6628W        W22097  12.730   6.723  11.793  0.0453  0.1924 -0.3011
 6629W        W22098  15.936   3.031   1.997  0.3200 -0.0738  0.1946
 6630W        W22099   2.808   2.354  11.800  0.2283  0.3457 -0.2211
 6631W        W22100   7.233  15.445  13.685 -0.0694  0.0523  0.0221
 6632W        W22101   8.408  16.298  12.401  0.0779  0.0202 -0.0840
 6633W        W22102  15.362   8.999   2.629  0.2914  0.1735 -0.0437
 6634W        W22103  16.463   5.270   3.698 -0.3945  0.0384  0.1135
 6635W        W22104  15.196   3.122   0.300 -0.3377  0.0601  0.1871
 6636W        W22105  10.694  18.408  11.076  0.0955  0.2177  0.4971
 6637W        W22106   2.126   8.281  14.571 -0.1857  0.3767  0.1780
 6638W        W22107   2.715   5.623  10.853  0.1956 -0.3993 -0.1654
 6639W        W22108   8.762  10.376  13.897  0.1698  0.0164  0.0737
 6640W        W22109   7.916  10.066  11.201  0.0659 -0.1610 -0.3244
 6641W        W22110   4.031   2.819  13.125 -0.0631  0.0260 -0.1248
 6642W        W22111   8.195   9.126  14.866  0.0047  0.2792 -0.0040
 6643W        W22112  10.164  10.371   0.360  0.1402 -0.4701 -0.1768
 6644W        W22113   9.586   3.321   9.871 -0.1223 -0.0894 -0.0258
 6645W        W22114   9.653  10.987   1.768  0.2369  0.2761  0.2613
 6646W        W22115   9.758   2.423   1.668  0.3297  0.2326 -0.0580
 6647W        W22116   2.888  17.090   1.381  0.0501 -0.2552 -0.1356
 6648W        W22117   9.932  13.362   5.113  0.0268 -0.1200 -0.0821
 6649W        W22118  17.741  18.254  11.173 -0.2395  0.2092  0.1982
 6650W        W22119   1.490  16.824   0.240 -0.0215  0.1394  0.1677
 6651W        W22120   5.019  12.080   5.244 -0.4407  0.0459  0.1408
 6652W        W22121   3.222   2.458   1.524  0.1635 -0.1707 -0.1762
 6653W        W22122   6.238  10.091  12.762 -0.0866 -0.0583  0.0380
 6654W        W22123   5.305  16.732   1.243  0.1099  0.0182  0.3836
 6655W        W22124  13.019  13.833   2.456 -0.1701 -0.0462 -0.1389
 6656W        W22125   1.005  15.175  12.924  0.0439  0.1777 -0.0656
 6657W        W22126  13.436  10.318  11.982 -0.1553  0.0371  0.1262
 6658W        W22127   4.759  18.677  11.127  0.0861 -0.3788  0.1437
 6659W        W22128   1.678  13.014   4.198  0.1639 -0.2134 -0.0376
 6660W        W22129   2.034   5.182  13.846  0.2477  0.2478  0.0698
 6661W        W22130   7.090   7.763  11.938 -0.2365 -0.2540  0.3748
 6662W        W22131   5.633   3.912  12.211 -0.0503  0.6686 -0.3180
 6663W        W22132   3.215   7.985   3.328 -0.5874 -0.1096 -0.0562
 6664W        W22133  17.881  13.377   0.811  0.3294 -0.0904 -0.0029
 6665W        W22134   2.052  11.274  14.760 -0.0764 -0.0174 -0.0209
 6666W        W22135   9.096  16.378   2.580  0.0703  0.1608 -0.1585
 6667W        W22136  14.299  17.075   3.367 -0.2764 -0.0106  0.1620
 6668W        W22137  18.598  16.185  14.112  0.0655 -0.2712  0.0014
 6669W        W22138   5.462  14.762  11.777  0.1860  0.0676  0.0541
 6670W        W22139   6.826   6.963   2.481 -0.0629  0.2285 -0.3427
 6671W        W22140  16.004   9.520   2.411 -0.1049  0.1639  0.1306
 6672W        W22141   8.198   8.504  13.104  0.1061  0.1251 -0.1166
 6673W        W22142   3.411  12.668  15.004  0.2284 -0.2564  0.2560
 6674W        W22143  13.727   6.034  12.965 -0.0034 -0.0813 -0.4195
 6675W        W22144   3.781   1.302  14.740 -0.1734  0.2165 -0.2807
 6676W        W22145  10.556  12.398   0.444  0.1047  0.3867  0.0616
 6677W        W22146  18.213  17.280  14.242 -0.4559 -0.1015 -0.1600
 6678W        W22147   6.939   6.543  11.817 -0.3197 -0.1902  0.1032
 6679W        W22148   2.892   2.758   3.989 -0.1494  0.1683 -0.0008
 6680W        W22149   3.163   9.922  12.714 -0.0779  0.0698 -0.4712
 6681W        W22150   6.913   7.150  11.828  0.0482  0.1126  0.3381
 6682W        W22151   3.292   2.807   2.578 -0.0426  0.0987 -0.0958
 6683W        W22152   1.329  11.903  11.090 -0.0545  0.2632  0.1362
 6684W        W22153   0.977   4.312   1.239 -0.1482 -0.0303  0.1282
 6685W        W22154   6.197  14.927   3.183  0.1179  0.0106  0.3558
 6686W        W22155   8.529   3.682   3.369  0.0199  0.0017 -0.0742
 6687W        W22156   8.795  15.782  13.408  0.1841 -0.0685 -0.1087
 6688W        W22157  14.784   5.871   4.522  0.1606 -0.1737  0.1230
 6689W        W22158   1.812  14.665  10.893 -0.2699  0.1473 -0.1624
 6690W        W22159   7.024  17.908  12.050  0.0244 -0.3060  0.1837
 6691W        W22160  17.809  12.073   5.354  0.1441  0.1938 -0.2276
 6692W        W22161   0.106  14.905  10.079 -0.0459 -0.2310  0.0133
 6693W        W22162  10.924   6.811  15.225  0.1360  0.0360  0.0736
 6694W        W22163   8.136   9.535   0.337  0.0664 -0.4029  0.3370
 6695W        W22164  12.169   6.341   0.246 -0.0295 -0.0981 -0.1802
 6696W        W22165   7.772  12.419   0.301 -0.2181 -0.0437 -0.1896
 6697W        W22166  17.134  16.392   5.861 -0.3872  0.3765 -0.1389
 6698W        W22167   1.954   9.610   5.129  0.1145 -0.1951  0.3863
 6699W        W22168   4.004   5.343  11.361  0.2433  0.1208  0.0926
 6700W        W22169  16.375  10.615  12.248 -0.0390  0.1136  0.3951
 6701W        W22170   7.289  10.004   4.415  0.0838 -0.0495  0.0746
 6702W        W22171   9.381  10.390  15.612  0.2377 -0.3339 -0.3061
 6703W        W22172  11.207  13.694  12.114  0.0664  0.0482 -0.0979
 6704W        W22173  14.941  14.596   3.915  0.1463 -0.1516  0.1817
 6705W        W22174  17.479  15.518  10.919  0.0623  0.2558 -0.1143
 6706W        W22175   9.346   4.474  12.497  0.1139 -0.2231  0.3488
 6707W        W22176  13.211   7.640  14.738  0.1019  0.4346 -0.0615
 6708W        W22177  10.673  15.957  10.807  0.0038 -0.1757  0.1877
 6709W        W22178   0.182   8.126  12.472 -0.1188 -0.0997 -0.1656
 6710W        W22179  10.145   3.850   0.774 -0.2567 -0.1893 -0.0589
 6711W        W22180   6.249   8.121  13.565 -0.0076 -0.0885 -0.0291
 6712W        W22181  12.624   7.123   3.288  0.0674  0.0403  0.1716
 6713W        W22182   8.062  14.579   0.661  0.3027 -0.3655 -0.0721
 6714W        W22183   8.025   1.804  13.372  0.1060 -0.1117  0.2958
 6715W        W22184  17.881   8.337  12.172  0.5634  0.1052  0.3773
 6716W        W22185   8.740   6.205   2.242  0.0513 -0.1393 -0.1361
 6717W        W22186  12.565  10.829   0.281 -0.2928  0.0535  0.0388
 6718W        W22187  14.457  14.117   3.272 -0.0839 -0.1418 -0.1507
 6719W        W22188   7.877  18.680  12.404 -0.1910  0.0675 -0.0611
 6720W        W22189  12.936   3.882   2.183  0.0045 -0.2136  0.2365
 6721W        W22190   1.858   3.286  11.115 -0.1957 -0.0686  0.2910
 6722W        W22191  10.759  10.935  11.601 -0.1840  0.1289 -0.3839
 6723W        W22192   9.179  16.685   1.710  0.3401 -0.1280 -0.1907
 6724W        W22193   1.207  17.402   1.956  0.1004 -0.0846  0.0949
 6725W        W22194  10.247  10.634   2.464 -0.3419 -0.1034  0.0752
 6726W        W22195   2.647   0.280   4.572 -0.0572 -0.2131  0.1227
 6727W        W22196   6.665   6.188  12.177 -0.1014  0.2366  0.3924
 6728W        W22197  13.128   1.649   2.039  0.0725 -0.2407 -0.1735
 6729W        W22198   0.332   2.477  15.496 -0.0792  0.3125 -0.1215
 6730W        W22199   7.371   0.045  15.676 -0.2042 -0.1330 -0.3655
 6731W        W22200   2.688   2.556   4.608  0.0655 -0.2021  0.0452
 6732W        W22201   9.002   3.990   2.031  0.0556 -0.3480  0.2235
 6733W        W22202   2.962   7.416  12.296  0.1499 -0.0065 -0.0651
 6734W        W22203   0.165   0.817  12.694  0.1602  0.2024 -0.1606
 6735W        W22204  14.166  10.167  10.624 -0.1867 -0.1853  0.1782
 6736W        W22205   3.570   6.701  11.226 -0.1502 -0.0998  0.0091
 6737W        W22206   6.980   6.034  11.801  0.1690  0.0225  0.4673
 6738W        W22207   9.548  13.561  12.642 -0.0062 -0.0975 -0.1615
 6739W        W22208   2.632  16.459  11.953 -0.0696 -0.0104  0.3298
 6740W        W22209  17.277   3.998  10.370  0.2175  0.0394 -0.1133
 6741W        W22210   4.829  16.465   4.361  0.2235  0.2030 -0.0631
 6742W        W22211   4.672  10.704   3.024 -0.0772 -0.0299 -0.0077
 6743W        W22212  13.577   3.837   3.163  0.1169 -0.3687 -0.4085
 6744W        W22213   5.173  17.649   1.247 -0.0017  0.1484 -0.0377
 6745W        W22214  13.186  17.469  13.919  0.1421  0.1348 -0.0569
 6746W        W22215   9.246  12.466  13.892 -0.1069 -0.0157  0.0413
 6747W        W22216   3.072   4.770  12.763 -0.1175  0.3121 -0.2080
 6748W        W22217  11.948   1.366   1.051 -0.0270  0.1076 -0.1373
 6749W        W22218  14.955  14.039  14.070  0.1025  0.1399 -0.4530
 6750W        W22219   6.972  15.922   2.869 -0.0775  0.2146 -0.0361
 6751W        W22220   3.074   7.982  14.895  0.0564  0.0693 -0.2368
 6752W        W22221   9.244   3.690   2.905  0.0178 -0.0445 -0.1257
 6753W        W22222   2.661  13.402  15.195 -0.2725 -0.2343  0.1261
 6754W        W22223  17.247  16.861   5.669  0.0549  0.1611  0.1525
 6755W        W22224  14.969   8.205  13.901 -0.0122 -0.0083  0.0943
 6756W        W22225   4.264   2.445   2.738  0.1352 -0.0073 -0.0241
 6757W        W22226  15.665   9.019   3.465  0.2382 -0.3271 -0.0572
 6758W        W22227   4.174  10.599  14.595  0.3795  0.2955 -0.0770
 6759W        W22228  18.420   8.727  13.072 -0.0936  0.0909 -0.3764
 6760W        W22229  12.904  12.019  12.482  0.2119 -0.0471  0.2044
 6761W        W22230  13.850  18.685  14.338 -0.2700  0.1850  0.1533
 6762W        W22231  18.235  13.976   1.993  0.3678 -0.0715 -0.4049
 6763W        W22232  15.870  12.362  11.855  0.0579  0.0154  0.1575
 6764W        W22233  11.970   9.293   3.889  0.1440  0.0128 -0.1082
 6765W        W22234  11.771  14.349   3.149 -0.1940 -0.1290 -0.3215
 6766W        W22235  16.123   3.638   1.235 -0.0081  0.0482  0.0353
 6767W        W22236   5.365  14.597  13.240  0.1072  0.0792  0.0624
 6768W        W22237  14.116  17.578   3.434  0.0799  0.3607  0.0010
 6769W        W22238  11.650  13.914  14.431  0.1362  0.2450  0.0983
 6770W        W22239  10.362  15.775  14.457  0.2244  0.2784 -0.0725
 6771W        W22240  14.379   1.356  11.939 -0.1329  0.1194  0.2176
 6772W        W22241   1.976  16.542  14.685 -0.0846  0.4079  0.2873
 6773W        W22242   7.299   0.426   3.452  0.1429  0.3394  0.1612
 6774W        W22243   2.657   3.094  12.454 -0.2293  0.1019  0.0518
 6775W        W22244   2.180  10.321  14.512 -0.0699  0.3104 -0.0191
 6776W        W22245  18.274  17.535  11.613 -0.0598  0.1763 -0.0175
 6777W        W22246   8.982  10.252  15.342  0.5247  0.0124  0.0985
 6778W        W22247   5.076   7.398  12.102 -0.0453  0.1919 -0.0775
 6779W        W22248   7.256   9.910  12.941 -0.2731 -0.0987  0.1552
 6780W        W22249   7.452   4.189   0.814  0.0429 -0.1267  0.3908
 6781W        W22250  13.493  12.359   0.701  0.1780  0.1243  0.1768
 6782W        W22251  15.552   2.650   2.638  0.1552 -0.3884 -0.1915
 6783W        W22252   0.544  18.422  12.145 -0.1618 -0.0652  0.0887
 6784W        W22253  11.587   3.311   5.908  0.0264 -0.1796  0.1081
 6785W        W22254   4.299   9.341  14.702 -0.0154 -0.2535 -0.0198
 6786W        W22255   0.988  16.333   0.955  0.0517 -0.0127  0.1115
 6787W        W22256  13.765   3.603   1.192 -0.3474 -0.2016 -0.0056
 6788W        W22257  16.079  11.055   1.689  0.1341  0.0120 -0.2364
 6789W        W22258   8.797  11.140  13.988  0.1656 -0.0229  0.3218
 6790W        W22259   3.241  13.522  11.034 -0.0774  0.3322  0.1408
 6791W        W22260  12.534  11.837   3.911  0.1640  0.3125 -0.3006
 6792W        W22261   9.541   3.270   2.815  0.2023  0.3689  0.2771
 6793W        W22262   1.225   8.119   1.406 -0.0853  0.0690 -0.4113
 6794W        W22263   2.722   2.654   3.084  0.4749 -0.2591  0.4385
 6795W        W22264   9.168  10.291  11.194  0.0999  0.3578  0.2122
 6796W        W22265   0.328   7.084   0.013 -0.0902  0.1188  0.0730
 6797W        W22266   1.127   5.791   2.869  0.1685 -0.0981  0.3900
 6798W        W22267   8.099   0.586  14.098  0.1989  0.1205  0.0885
 6799W        W22268  12.674  12.926  12.116  0.1346  0.0865 -0.4445
 6800W        W22269   7.454   4.412   4.894  0.1620 -0.3342  0.2063
 6801W        W22270   7.127  12.653   6.043 -0.1429  0.0863 -0.0061
 6802W        W22271   4.197  18.317   0.504  0.1111  0.2049 -0.1223
 6803W        W22272  16.791   6.591   2.611 -0.0780  0.1354 -0.0518
 6804W        W22273   1.143  18.001   1.307 -0.0310  0.0169 -0.0367
 6805W        W22274  13.328  13.943  11.330  0.0312 -0.0644 -0.0821
 6806W        W22275   8.960  12.854  13.747  0.2885  0.0044 -0.5385
 6807W        W22276   2.417  10.512   1.940 -0.0685 -0.0345 -0.0494
 6808W        W22277  15.541  18.687  14.381  0.2097 -0.1806 -0.0334
 6809W        W22278  12.011  17.879   2.079 -0.1912  0.3867 -0.0753
 6810W        W22279   1.374   2.165  14.814  0.1387 -0.0484  0.2887
 6811W        W22280   7.933   9.775  15.011  0.4866  0.2749  0.0072
 6812W        W22281   0.180   5.409   2.866 -0.2751 -0.0500 -0.1374
 6813W        W22282   6.969  15.409  12.869  0.0706  0.1571  0.0791
 6814W        W22283  16.153  16.422   2.169 -0.1747 -0.4862  0.1010
 6815W        W22284   2.974   0.469   3.506  0.1427  0.2084 -0.1404
 6816W        W22285  17.949   8.179  10.374 -0.1225 -0.1613  0.0149
 6817W        W22286   0.574   4.503   3.165 -0.3519  0.2442  0.2266
 6818W        W22287   6.820   0.967   2.781  0.3112  0.1763 -0.3227
 6819W        W22288  16.652   4.447  15.403  0.1289  0.2912 -0.2278
 6820W        W22289  11.169  18.264  11.002 -0.2369 -0.0895 -0.0361
 6821W        W22290  10.673   3.802  12.067  0.0963 -0.0041  0.0286
 6822W        W22291   6.581   0.516  14.873  0.3882 -0.1335  0.1225
 6823W        W22292   6.110  15.471  12.302  0.0351  0.0211 -0.2639
 6824W        W22293   5.653  12.668   5.340 -0.0311 -0.3252  0.0753
 6825W        W22294   0.301   3.099  10.835  0.4423  0.0371  0.0159
 6826W        W22295  12.691   5.478  11.805  0.4565  0.0974  0.0948
 6827W        W22296  16.520   1.947  13.855  0.2686  0.1140 -0.0962
 6828W        W22297   1.351   5.482   3.766  0.0535  0.0555 -0.3348
 6829W        W22298   8.997   1.770  13.489  0.1997  0.0255  0.1833
 6830W        W22299   1.815  16.914   2.132 -0.4371 -0.0189  0.1211
 6831W        W22300   0.412  10.807   2.491  0.0873 -0.4320  0.0341
 6832W        W22301   7.310   5.260  11.662 -0.0371 -0.2857 -0.0905
 6833W        W22302   3.529  17.764   0.789  0.1888 -0.1391  0.0273
 6834W        W22303  15.918   7.140   3.928  0.0236  0.0264 -0.3044
 6835W        W22304   1.568  12.346  11.292 -0.2476  0.0048 -0.2610
 6836W        W22305  13.883  15.420   2.868 -0.1880 -0.1698  0.1205
 6837W        W22306  10.076   0.488   2.074 -0.0157 -0.2590  0.1650
 6838W        W22307  11.019   3.806  13.171  0.1646 -0.0268  0.1338
 6839W        W22308   9.016  11.672  12.252  0.2696 -0.1525  0.3736
 6840W        W22309  13.173   1.782  11.179  0.1183 -0.0488  0.4008
 6841W        W22310  10.674   0.697   2.328 -0.1230 -0.0311  0.0113
 6842W        W22311   7.871   9.568   1.629  0.0736  0.2680 -0.2163
 6843W        W22312  13.762   8.566   4.497 -0.2260 -0.0042 -0.0212
 6844W        W22313   1.995   6.556   3.604 -0.1082  0.0185  0.0383
 6845W        W22314   9.068   0.132   4.210  0.1753  0.2274  0.2897
 6846W        W22315   7.538   1.928   0.251 -0.0008 -0.0645 -0.0840
 6847W        W22316  12.896   6.345   1.342 -0.0219  0.1702  0.0694
 6848W        W22317  14.071   1.862   0.268  0.0476 -0.0802  0.0122
 6849W        W22318  16.527  11.831  14.260  0.0681 -0.1095 -0.1975
 6850W        W22319  14.180  12.627   3.351  0.2730  0.1720 -0.0521
 6851W        W22320  17.760   1.879   0.530  0.0059 -0.3606  0.4688
 6852W        W22321   7.056   5.769  13.637  0.1073 -0.0197  0.3386
 6853W        W22322  12.279   3.327  14.001 -0.2063  0.3837 -0.0520
 6854W        W22323   6.378   3.680  14.446 -0.3386  0.0669  0.1565
 6855W        W22324  15.098   4.324  14.169 -0.1583 -0.1850 -0.1526
 6856W        W22325  13.752  13.960   0.534  0.0044 -0.5217 -0.1487
 6857W        W22326  12.490  16.974  15.779  0.2089 -0.0921 -0.2358
 6858W        W22327   4.887  16.246  15.211 -0.5302  0.2030 -0.2556
 6859W        W22328  12.581  11.371   4.106  0.0142 -0.1058  0.2853
 6860W        W22329  11.912   4.851   5.257 -0.0569 -0.1498 -0.2054
 6861W        W22330   8.659   3.039  15.287  0.2299  0.0599  0.1635
 6862W        W22331  13.931   1.952   1.329 -0.4036  0.2736 -0.3837
 6863W        W22332   8.884   9.946  13.626 -0.3057  0.0481 -0.3739
 6864W        W22333   1.328   4.735  13.270  0.0360 -0.1466  0.0206
 6865W        W22334   5.386   5.118   4.066 -0.2765  0.1710  0.2116
 6866W        W22335  12.361  18.076  14.071 -0.1025  0.1190 -0.3659
 6867W        W22336  11.764   0.230   4.333 -0.0802  0.0325 -0.0764
 6868W        W22337   1.270   8.535   3.610  0.1032 -0.0440  0.1528
 6869W        W22338  17.375  15.571  12.709  0.0103  0.0007  0.1391
 6870W        W22339   8.547  17.722  14.235 -0.2676 -0.2248 -0.0526
 6871W        W22340  13.841  15.870   1.263  0.2006  0.0769 -0.2183
 6872W        W22341   6.566  18.468   0.995 -0.2762  0.3000  0.0834
 6873W        W22342   0.178  11.748  15.148 -0.1712 -0.0799 -0.2149
 6874W        W22343  11.508   2.750  15.470 -0.4910  0.0343  0.3859
 6875W        W22344   8.440  10.270   5.035 -0.0512 -0.0657  0.1074
 6876W        W22345  11.853  12.100  13.047  0.1714  0.0478 -0.1287
 6877W        W22346   2.728   7.877   3.843  0.0139 -0.1729 -0.1818
 6878W        W22347   4.124   0.071  10.405 -0.0520 -0.1307 -0.0324
 6879W        W22348   4.191   9.473   6.002  0.3978 -0.0254 -0.0254
 6880W        W22349   8.606  10.936   6.059  0.1651 -0.1684  0.2197
 6881W        W22350   4.460   9.826  12.778  0.2753  0.2054 -0.3552
 6882W        W22351   7.366   8.443  12.686 -0.0044 -0.2014  0.2240
 6883W        W22352   1.723   8.276  12.445 -0.1235 -0.0387 -0.3026
 6884W        W22353   0.975   3.119  11.453  0.2128 -0.0471  0.1354
 6885W        W22354  11.040  18.377  11.458  0.1857 -0.1094 -0.1743
 6886W        W22355  16.034  18.313   0.923  0.0551  0.0796 -0.2024
 6887W        W22356  18.566   9.131  10.712 -0.0992  0.0791  0.0417
 6888W        W22357  11.703   3.462  12.858 -0.0311  0.1050  0.1034
 6889W        W22358  10.993   0.825   4.681 -0.1061 -0.2099  0.2416
 6890W        W22359   9.380  17.627   4.164  0.1318  0.0063 -0.3366
 6891W        W22360  15.499   1.557   0.566 -0.0448 -0.2401 -0.1170
 6892W        W22361   7.609   2.805   1.467  0.1291 -0.0220 -0.1254
 6893W        W22362  11.706  12.539  13.242  0.0468 -0.4900  0.4103
 6894W        W22363  13.301  11.009   5.677  0.2218  0.0309 -0.2096
 6895W        W22364  11.390   9.894   1.702  0.0975  0.0845 -0.0536
 6896W        W22365   4.826   1.037  13.116  0.0807  0.0968  0.2163
 6897W        W22366  11.143  18.209  13.952 -0.1052  0.0660  0.2888
 6898W        W22367  18.129   5.962   4.644 -0.1022 -0.0289  0.1355
 6899W        W22368   0.923   3.610  14.812  0.2495  0.1315  0.0335
 6900W        W22369   6.164   0.338  12.758  0.0202  0.3346 -0.0116
 6901W        W22370   9.113  11.200   1.564 -0.1344  0.0301 -0.1346
 6902W        W22371   3.506  14.491  15.512  0.1004 -0.3028  0.0845
 6903W        W22372  14.784  14.678   4.472  0.0983  0.2741  0.0513
 6904W        W22373  10.363   8.523  13.797 -0.0859  0.0220 -0.2397
 6905W        W22374   7.483   2.314  11.226 -0.3297  0.0714  0.2371
 6906W        W22375  15.281  15.812   3.756 -0.4721 -0.0170 -0.0639
 6907W        W22376   5.068   4.136   2.113 -0.1071  0.2906 -0.2163
 6908W        W22377  17.931   7.249   0.299  0.3141  0.1051 -0.0525
 6909W        W22378  14.431  12.473   2.825  0.0365 -0.1224 -0.1482
 6910W        W22379  14.769   4.458  11.850 -0.0759 -0.1198 -0.2152
 6911W        W22380   8.098   5.227  12.334 -0.1153  0.0592  0.0241
 6912W        W22381   7.131   2.569   5.681  0.2355 -0.3117  0.0269
 6913W        W22382  10.489   1.123  10.183 -0.0393 -0.0106  0.2533
 6914W        W22383  12.839   8.524   3.352 -0.0121 -0.1891 -0.3430
 6915W        W22384   7.102  16.014  15.480 -0.0380  0.3731 -0.3054
 6916W        W22385  10.537  15.167   1.808 -0.3079 -0.0492  0.1568
 6917W        W22386   1.989   7.576   3.826 -0.2091 -0.0806  0.0823
 6918W        W22387  10.832   6.771  11.817 -0.1041 -0.0466  0.2130
 6919W        W22388   3.401   3.593   1.213  0.2474  0.0080  0.0305
 6920W        W22389  11.139   4.850   0.426  0.2069  0.1478  0.0254
 6921W        W22390  12.138   3.469  12.583  0.1851  0.2325 -0.1441
 6922W        W22391  10.712   0.168   1.537 -0.0465  0.1881  0.0018
 6923W        W22392   3.988  14.136  10.695 -0.1667 -0.0606  0.1573
 6924W        W22393  10.693   4.006   4.417  0.1143 -0.0872 -0.0717
 6925W        W22394   1.802   2.225   3.000 -0.1484 -0.1861  0.0424
 6926W        W22395  10.475  13.766  12.296 -0.2709 -0.0202  0.1317
 6927W        W22396  18.287  12.504   0.462  0.1543 -0.0229  0.0546
 6928W        W22397  12.994  16.325   3.469  0.2021  0.1033  0.0622
 6929W        W22398  16.806   7.527   0.361 -0.1173  0.1059  0.1160
 6930W        W22399   2.889  14.256  10.795 -0.2370 -0.2414  0.2336
 6931W        W22400  11.396   5.833  11.435  0.0371  0.3089 -0.1004
 6932W        W22401   8.915   1.324   3.126 -0.3832 -0.1456  0.1562
 6933W        W22402   5.322  12.947  12.091  0.1201  0.1428  0.2383
 6934W        W22403   0.586  15.779   3.619 -0.0450  0.3664  0.2147
 6935W        W22404   6.420  14.056   3.861  0.0486 -0.0565  0.0265
 6936W        W22405   4.151   6.374   4.640 -0.0266  0.0140 -0.0705
 6937W        W22406   0.520   8.066  11.561 -0.0736  0.2100  0.0435
 6938W        W22407   2.581  14.073  14.322 -0.1724 -0.1448 -0.1168
 6939W        W22408  12.954   5.926  14.973 -0.0543 -0.1572 -0.3684
 6940W        W22409  17.229   1.337   0.022 -0.0022 -0.1855  0.0783
 6941W        W22410  15.268  18.193   0.273 -0.3719 -0.0598  0.0495
 6942W        W22411  12.494   2.480   1.091  0.0052  0.2404 -0.3938
 6943W        W22412   1.309   1.735   9.478 -0.1616  0.0339  0.0165
 6944W        W22413  16.343  11.210   4.854 -0.1969 -0.1595  0.0564
 6945W        W22414   2.361   0.714  15.166 -0.0384  0.1272  0.2459
 6946W        W22415   3.049  12.424  14.655 -0.0503  0.0473 -0.0796
 6947W        W22416   3.978  13.600   0.333  0.1237  0.0357 -0.0743
 6948W        W22417   9.460  14.482  12.620  0.0934 -0.1616  0.0562
 6949W        W22418  17.046   8.388  13.270  0.1273 -0.1784  0.1654
 6950W        W22419   8.071  17.443  14.177 -0.1071 -0.1923  0.2745
 6951W        W22420   2.849  15.111  12.927  0.1321 -0.1005 -0.0925
 6952W        W22421   2.272  13.392   0.134 -0.0200 -0.2514 -0.4084
 6953W        W22422  11.953  15.402  14.764  0.0609  0.2192  0.0012
 6954W        W22423  13.646  17.432  14.472 -0.0785  0.0803 -0.0354
 6955W        W22424   0.350   6.155  14.639  0.3274  0.3061  0.1047
 6956W        W22425   9.345  18.059   0.622  0.0393  0.2393 -0.1040
 6957W        W22426  10.512   4.764   4.685  0.1704 -0.1908  0.3683
 6958W        W22427   1.840   6.481  13.189 -0.4480  0.0168 -0.1068
 6959W        W22428   1.317  17.879   0.858  0.4265 -0.1665 -0.1180
 6960W        W22429   3.290   1.896   4.574  0.2820  0.1642 -0.1848
 6961W        W22430   3.901   5.286  15.748  0.2051 -0.0134  0.1874
 6962W        W22431  14.089   9.768   3.804 -0.2296  0.3681  0.0686
 6963W        W22432  17.320   0.374  14.078 -0.0844 -0.0816 -0.3758
 6964W        W22433  10.047   0.794   0.727  0.1430  0.0611 -0.1566
 6965W        W22434   4.159   0.280   2.623  0.1370  0.2592 -0.0007
 6966W        W22435   1.545   2.027   2.631 -0.0408 -0.3260  0.0594
 6967W        W22436   6.976   5.613  14.629  0.1364 -0.1162 -0.2682
 6968W        W22437   8.511   9.844   0.546  0.0786 -0.0856 -0.0183
 6969W        W22438   9.966   8.160  14.777 -0.1097 -0.1763  0.1166
 6970W        W22439   0.888  11.655   6.135 -0.0589 -0.1650 -0.0114
 6971W        W22440   7.536   7.843   5.408  0.1487  0.2493 -0.0634
 6972W        W22441  17.558   7.909  11.607  0.3195 -0.0721 -0.2173
 6973W        W22442   3.000  12.596   3.614  0.0317 -0.1000  0.2146
 6974W        W22443   0.475  13.876  11.667  0.0693  0.3702 -0.2214
 6975W        W22444   7.265  17.686  14.766 -0.3346 -0.0613  0.1858
 6976W        W22445   1.411  10.211  11.931 -0.2194  0.1153  0.0275
 6977W        W22446   4.559   0.711  11.931 -0.2961 -0.1232  0.1618
 6978W        W22447  12.775  17.723  14.451  0.0524 -0.2062 -0.1570
 6979W        W22448  15.767   5.014   5.299 -0.1303 -0.1538 -0.0487
 6980W        W22449   2.763   3.954  11.376 -0.0525 -0.0448 -0.0420
 6981W        W22450   9.292   3.033  10.829 -0.0149 -0.2123 -0.0443
 6982W        W22451   0.200   3.531   0.936  0.1730  0.1224  0.2200
 6983W        W22452  15.256  15.211   2.438 -0.0656  0.0099  0.0973
 6984W        W22453  13.429   1.338  15.481 -0.0647 -0.3866  0.0348
 6985W        W22454  11.686   0.327   1.402 -0.3023 -0.0059 -0.1022
 6986W        W22455   1.887  13.848  15.584  0.0803  0.3470 -0.0869
 6987W        W22456  17.330   8.621  10.890  0.1644 -0.1357  0.0729
 6988W        W22457   1.245   0.281   5.008 -0.1503 -0.3116  0.1021
 6989W        W22458   7.191  11.202   0.946 -0.2766  0.2726  0.5801
 6990W        W22459  14.123   4.499  13.945 -0.1989  0.4031 -0.1104
 6991W        W22460   2.621  10.876  11.587 -0.0227  0.2730 -0.0059
 6992W        W22461   9.067  18.518   2.235 -0.0560 -0.0951  0.0048
 6993W        W22462  16.386   4.438   5.035 -0.0628  0.2302  0.0530
 6994W        W22463   5.529   3.666   2.367 -0.1823  0.0255  0.3023
 6995W        W22464   6.519  14.665  14.294  0.1760  0.1337 -0.0671
 6996W        W22465  14.766  16.341   3.423  0.1749 -0.1020 -0.0712
 6997W        W22466  14.584   4.763  10.195 -0.1578  0.1161 -0.0643
 6998W        W22467  16.602  12.104   0.822 -0.0199 -0.1473 -0.3554
 6999W        W22468   0.060  13.910   3.476 -0.3450  0.4472 -0.2192
 7000W        W22469  13.937  12.224   2.433 -0.1516  0.0528 -0.0477
 7001W        W22470  10.495   7.657   1.542  0.0211  0.0375 -0.1615
 7002W        W22471   8.131  12.090   3.343  0.2689  0.2776  0.0100
 7003W        W22472  15.554   1.786  15.736  0.1909 -0.2358  0.0613
 7004W        W22473   1.227   7.666  13.628 -0.0790  0.2176  0.1958
 7005W        W22474   7.278   1.216  12.627  0.2207 -0.2208  0.0913
 7006W        W22475   7.339   7.106   2.804  0.1100 -0.0221 -0.1823
 7007W        W22476  15.216   6.332  14.092 -0.1664  0.1262 -0.3805
 7008W        W22477   9.523   3.466   1.199  0.1128 -0.2092  0.0500
 7009W        W22478   5.687  12.145  14.360  0.0993  0.1037  0.2197
 7010W        W22479   2.923  18.130   3.369 -0.0423 -0.1570  0.1329
 7011W        W22480   6.927  14.036  13.333  0.3741  0.0122 -0.3367
 7012W        W22481   2.645  13.214   0.670  0.0672 -0.1053  0.1233
 7013W        W22482   1.606  14.578   9.961 -0.0865 -0.0438  0.3282
 7014W        W22483   4.426   7.184  13.677  0.1543  0.2724 -0.3418
 7015W        W22484  14.505   0.469  13.948 -0.1998 -0.0956  0.1048
 7016W        W22485  14.755   8.877  14.613 -0.0557  0.4207  0.2732
 7017W        W22486   4.420   0.988  14.218  0.0531  0.1383  0.2460
 7018W        W22487  12.022  13.010   1.997 -0.2044  0.2327  0.0704
 7019W        W22488   7.611  12.144  13.931  0.3686 -0.0249 -0.2561
 7020W        W22489  15.714  11.094   1.352 -0.0859  0.3287  0.0253
 7021W        W22490   3.607  11.978  15.609 -0.1144 -0.1417 -0.1886
 7022W        W22491  16.550   8.245  11.997 -0.0116 -0.0188 -0.1691
 7023W        W22492  11.333   0.024   4.685  0.3089  0.2046 -0.2502
 7024W        W22493  15.211  12.299   1.500  0.1869 -0.1992  0.1124
 7025W        W22494   2.647  10.729   5.749  0.0882  0.1176 -0.4802
 7026W        W22495   9.812  18.472  11.857  0.0744 -0.1992  0.0585
 7027W        W22496  15.261   1.292  10.863  0.2874  0.2023  0.1266
 7028W        W22497  15.955  12.885  15.773 -0.0836  0.0659 -0.2173
 7029W        W22498  14.772  14.194   1.565 -0.2036  0.0408 -0.2859
 7030W        W22499   2.671  10.282   0.212  0.0043 -0.0246 -0.3191
 7031W        W22500  17.973   9.133  13.939 -0.1522 -0.0661  0.0654
 7032W        W22501   0.298  13.236  12.213  0.1231 -0.0007 -0.2860
 7033W        W22502  15.027   0.070  14.586  0.1494 -0.2228  0.0424
 7034W        W22503   7.507  13.394  13.609  0.0658  0.0332 -0.1449
 7035W        W22504  11.747   6.093   0.546 -0.2759  0.2196  0.0103
 7036W        W22505  10.517  16.060   2.911  0.0630  0.0544  0.2985
 7037W        W22506  10.390   0.469  14.039  0.0629  0.0646  0.2497
 7038W        W22507  11.716   5.010   3.722 -0.1692  0.2692 -0.0373
 7039W        W22508   0.076   6.776  12.863 -0.2608 -0.2109 -0.3055
 7040W        W22509  10.634   8.642  15.107 -0.1512  0.0430 -0.0375
 7041W        W22510  11.077  12.410   2.222  0.1674  0.0652  0.1557
 7042W        W22511  13.261   5.410   0.379  0.0406  0.1487 -0.0094
 7043W        W22512  15.797   4.750   5.742  0.2804  0.2715  0.4444
 7044W        W22513  10.799   0.209   0.523  0.0826 -0.1635 -0.2604
 7045W        W22514   5.460   0.155   3.244  0.2521 -0.1305  0.0476
 7046W        W22515   0.959   0.347   2.595 -0.1669  0.0308 -0.2887
 7047W        W22516   9.001  14.888  11.585 -0.2017 -0.0321 -0.0110
 7048W        W22517  12.716  15.708  12.684 -0.0408  0.3000 -0.2909
 7049W        W22518   2.626   2.479  15.305 -0.3289  0.1081  0.0478
 7050W        W22519  18.113   3.090  12.226  0.2926 -0.2120  0.1213
 7051W        W22520  13.698   6.787  15.671 -0.2323 -0.0748 -0.1010
 7052W        W22521   5.290   4.385  12.955 -0.0706 -0.0490  0.2815
 7053W        W22522  11.607   3.995  14.289 -0.0471 -0.1294 -0.2440
 7054W        W22523  15.529   8.069   1.010 -0.2284 -0.0743  0.0797
 7055W        W22524  17.052  12.141  12.345  0.2322  0.1075 -0.2852
 7056W        W22525  11.134   8.129  15.149  0.1397  0.0406  0.0534
 7057W        W22526   5.687  11.132  15.482  0.2559 -0.1693 -0.1341
 7058W        W22527  13.062  10.427   0.089  0.3269  0.2533  0.1675
 7059W        W22528   3.252   9.941  13.263 -0.1347 -0.0577  0.0691
 7060W        W22529  12.865  10.382   2.692  0.1294  0.0567  0.3114
 7061W        W22530  14.164   6.419   1.348 -0.2362  0.3285  0.1011
 7062W        W22531  14.044  14.379  13.646  0.1194 -0.0072 -0.1156
 7063W        W22532  13.206   0.346  11.371  0.1273 -0.2420  0.2207
 7064W        W22533   4.473   5.209  11.371 -0.0221 -0.2585  0.1396
 7065W        W22534  18.594  17.518   1.485  0.3399  0.2097  0.2287
 7066W        W22535  11.889  15.803   0.013  0.2379  0.2486  0.1146
 7067W        W22536   6.702  17.418  10.140 -0.3732  0.2082  0.0324
 7068W        W22537   7.874  15.451  15.217  0.0641  0.0792  0.0043
 7069W        W22538  12.094   3.894  12.838  0.1273 -0.2780  0.1283
 7070W        W22539  16.155   7.101  11.911  0.0564 -0.2097 -0.1799
 7071W        W22540   1.387  16.903   1.856 -0.1762  0.2233  0.2507
 7072W        W22541  14.328  12.734   2.419  0.2696  0.0075 -0.2612
 7073W        W22542  11.447  16.578  14.498  0.0643  0.3261  0.1200
 7074W        W22543   2.137  17.224  13.610 -0.1239  0.0119 -0.0252
 7075W        W22544  11.800   3.603   1.958  0.0413 -0.1950  0.0304
 7076W        W22545   8.740  11.142   0.021 -0.3665 -0.0515 -0.0170
 7077W        W22546  16.723   6.849  12.787 -0.2160 -0.2715 -0.0059
 7078W        W22547   9.409  17.292   2.274  0.0379 -0.2845  0.0901
 7079W        W22548  15.921   0.062   0.013  0.2602  0.0245 -0.0158
 7080W        W22549  14.092  13.384  11.101  0.2893  0.0546  0.2350
 7081W        W22550  10.404  15.235   2.280 -0.0272  0.1806 -0.1379
 7082W        W22551  11.989  14.562   0.930  0.0148  0.2572  0.1016
 7083W        W22552  10.515   4.488   4.305 -0.0659  0.0411 -0.3062
 7084W        W22553  12.317  11.508   3.290 -0.0186 -0.2131 -0.2501
 7085W        W22554  10.128  12.899  13.408  0.0768 -0.2541  0.1764
 7086W        W22555   6.640  15.418   3.747  0.1018 -0.2307 -0.1369
 7087W        W22556   2.481   8.380  10.632  0.1139  0.3618  0.2490
 7088W        W22557   7.040   4.259   3.853 -0.0809  0.1215  0.1484
 7089W        W22558   7.556   9.224  11.690 -0.0081  0.3342 -0.0911
 7090W        W22559   5.410   5.116  11.477 -0.2057 -0.0668  0.0906
 7091W        W22560   8.142  17.410   0.419  0.1034  0.0147 -0.2889
 7092W        W22561   1.844   4.033  15.455  0.1701 -0.2323  0.1892
 7093W        W22562   3.337   2.319  15.423 -0.2745 -0.3455  0.0652
 7094W        W22563   0.702   1.253   0.207  0.0629  0.1769  0.2306
 7095W        W22564   4.654   0.670   3.460 -0.0005  0.1434 -0.1828
 7096W        W22565  11.773   7.833  11.442  0.0493 -0.1799 -0.1569
 7097W        W22566   5.413  16.122  10.028 -0.2604  0.0025  0.2347
 7098W        W22567  10.329  10.687  13.822 -0.0676  0.1119  0.0125
 7099W        W22568   2.677  11.978  11.239  0.1204 -0.1708  0.1457
 7100W        W22569  13.044  17.048   2.013 -0.0929 -0.1893  0.1857
 7101W        W22570   6.104  14.520   0.648 -0.2637  0.1630 -0.0865
 7102W        W22571  16.730  13.001   4.293 -0.1335  0.0893  0.0970
 7103W        W22572  13.167   9.590   2.190 -0.3234 -0.3293  0.0980
 7104W        W22573  10.368   5.759   1.190  0.2678 -0.2529 -0.1934
 7105W        W22574  16.937   2.225   3.134  0.1769  0.1112 -0.3748
 7106W        W22575   0.955   0.164  15.260 -0.1611 -0.0965 -0.0992
 7107W        W22576   1.862  10.396  11.744  0.1030 -0.1416 -0.1050
 7108W        W22577   3.125  17.272  10.648 -0.2193 -0.1079 -0.0726
 7109W        W22578   5.455   7.320   1.032  0.1271 -0.2396  0.0868
 7110W        W22579  13.197  11.257  11.148  0.1993 -0.0631  0.2258
 7111W        W22580  15.796   3.416   1.598 -0.4197 -0.1243  0.0490
 7112W        W22581   2.238  15.269   3.771 -0.2299  0.1246  0.2804
 7113W        W22582   7.796  17.448  12.665 -0.0295  0.2010  0.2050
 7114W        W22583   2.651  12.451   0.129 -0.0398 -0.2218 -0.1735
 7115W        W22584  15.978   0.605   2.091  0.1561  0.0227 -0.0583
 7116W        W22585  14.777  13.954  15.130 -0.0134 -0.0658 -0.0991
 7117W        W22586   0.032  13.510   0.125  0.1068  0.1886  0.2225
 7118W        W22587  10.255  10.263  15.153  0.4198  0.1012  0.0004
 7119W        W22588   8.610   3.843  12.058  0.0354 -0.5511 -0.2439
 7120W        W22589  11.334  11.284  14.618  0.1357  0.3287  0.2104
 7121W        W22590   2.168   6.198   9.850  0.2417 -0.2593  0.0083
 7122W        W22591  10.583   5.711   3.463 -0.4754 -0.0344  0.0038
 7123W        W22592   9.473   2.162   2.985 -0.0440  0.0137  0.1955
 7124W        W22593   3.061   6.809  11.419  0.3724  0.0846 -0.1115
 7125W        W22594  12.283  11.221  12.228 -0.1037  0.3367 -0.2032
 7126W        W22595  10.595   4.755  13.831 -0.2661  0.1014  0.0315
 7127W        W22596  15.584   3.390  15.177  0.0731  0.0490  0.1548
 7128W        W22597   8.005   7.984  11.652 -0.1608 -0.0141 -0.1735
 7129W        W22598   0.885   8.727   5.158 -0.1398 -0.3282 -0.0313
 7130W        W22599   4.238   3.318  11.733 -0.5098  0.0471  0.2099
 7131W        W22600   9.663  15.457   0.024  0.0054 -0.2981 -0.0890
 7132W        W22601   7.393  13.372  10.137  0.0265  0.2853 -0.1573
 7133W        W22602  14.587  15.353  11.287  0.2184  0.1431  0.2338
 7134W        W22603   7.793  18.306  13.893 -0.0076  0.0245 -0.3835
 7135W        W22604   3.111   1.894   5.043  0.0007 -0.0211 -0.3380
 7136W        W22605   3.580   3.567   3.504 -0.0707  0.0484 -0.3871
 7137W        W22606  13.336  11.989   4.558 -0.1681 -0.2904  0.2488
 7138W        W22607  10.614  18.099   6.073 -0.1099 -0.0845  0.0395
 7139W        W22608   1.703  10.890  11.582 -0.4453 -0.1042  0.1536
 7140W        W22609   9.633  11.117  13.525 -0.1460  0.1809  0.0577
 7141W        W22610   8.342   8.335   0.111 -0.1673 -0.5111  0.1659
 7142W        W22611  10.338   2.210  14.666 -0.0329  0.1591  0.0265
 7143W        W22612  11.217   8.320   0.286  0.1111  0.3101 -0.1387
 7144W        W22613  11.708  18.419  15.032  0.0293 -0.1833  0.0489
 7145W        W22614  13.206   8.144   1.867 -0.1644  0.1420 -0.2456
 7146W        W22615  15.272  15.594   3.268  0.1651  0.1006 -0.3234
 7147W        W22616  16.194  10.248   1.026  0.1139 -0.1524  0.1705
 7148W        W22617   3.865   6.140  14.369 -0.3100  0.0817  0.0959
 7149W        W22618   5.540  17.556  13.073  0.0204 -0.0104  0.0500
 7150W        W22619  11.804   4.228   4.444  0.2877 -0.3945 -0.0625
 7151W        W22620   0.581  15.162  13.254 -0.0037 -0.1523 -0.1080
 7152W        W22621   4.946  15.137   4.433  0.1269 -0.0790 -0.0305
 7153W        W22622  15.544   0.729   3.947  0.1070 -0.4281  0.0303
 7154W        W22623   2.787   9.422   5.209  0.5232 -0.0967  0.3005
 7155W        W22624   1.895   7.800   6.096  0.2697 -0.0196  0.1167
 7156W        W22625   5.581  14.061   4.097 -0.1829  0.1270  0.4967
 7157W        W22626   8.629   2.655  12.541 -0.0234  0.1404  0.1658
 7158W        W22627   1.433  11.906   0.865 -0.1344 -0.0273 -0.0237
 7159W        W22628  11.441   8.390   1.584  0.2731  0.1028 -0.0087
 7160W        W22629  12.018   7.173  13.101  0.1974 -0.0618 -0.1838
 7161W        W22630  10.431  11.155   3.687 -0.1969  0.2001 -0.0933
 7162W        W22631   0.768   8.164   0.280  0.1385 -0.1069 -0.2264
 7163W        W22632  11.711   8.287  12.191  0.1620  0.5477  0.2540
 7164W        W22633   1.854   2.221   3.579 -0.1861 -0.0460 -0.3627
 7165W        W22634  11.204  17.308  12.278 -0.0528 -0.4140  0.0718
 7166W        W22635   5.542   6.695   4.389 -0.0692  0.1179  0.1389
 7167W        W22636  13.118   8.432   2.805 -0.1821 -0.0729  0.0766
 7168W        W22637   3.884   5.771  15.694  0.0434 -0.0984 -0.2374
 7169W        W22638   2.337   9.976   1.957  0.1389 -0.0188  0.2173
 7170W        W22639   6.744  17.043  11.462  0.0329 -0.0527  0.2086
 7171W        W22640   8.203  10.770  11.405  0.2049  0.0871 -0.1619
 7172W        W22641  12.793   5.502  15.217 -0.1236  0.1187 -0.3078
 7173W        W22642   3.144   7.803   2.867  0.1207 -0.0580  0.2758
 7174W        W22643  11.963  15.526  11.516 -0.0978 -0.1059 -0.0228
 7175W        W22644   7.319  16.843  13.474 -0.3111 -0.0482  0.1636
 7176W        W22645  15.431  11.030   4.695  0.0003 -0.0316 -0.0183
 7177W        W22646  14.300   6.184  15.167 -0.4295 -0.2142  0.1800
 7178W        W22647   6.146  18.069   4.127 -0.1873 -0.0277  0.1843
 7179W        W22648  14.942   6.381  12.973  0.1520 -0.1612  0.2306
 7180W        W22649  16.919   1.548  15.347 -0.2859 -0.2549  0.1438
 7181W        W22650   8.446  17.986  11.910  0.1841 -0.1644  0.1594
 7182W        W22651   3.522  10.842  11.160  0.3384  0.2419  0.2279
 7183W        W22652   5.143   9.253  14.897  0.2196 -0.2259  0.0588
 7184W        W22653   8.659   8.763  13.014  0.2087  0.2742  0.0284
 7185W        W22654   5.118   9.419   4.575 -0.0613  0.2061 -0.0053
 7186W        W22655  17.723  11.761  15.277 -0.3653 -0.2100 -0.0433
 7187W        W22656   9.876  14.446   4.375  0.0262  0.1375 -0.1755
 7188W        W22657   7.309   8.359   4.673 -0.4017  0.0982 -0.2702
 7189W        W22658  14.539   7.637   5.049  0.1027 -0.2013 -0.1710
 7190W        W22659   5.920   9.692  11.583 -0.0761  0.1852 -0.2035
 7191W        W22660  17.004   8.985   0.729  0.2570  0.0912 -0.1844
 7192W        W22661   6.514  10.389   1.741 -0.0329 -0.2933 -0.1181
 7193W        W22662  14.785   3.758  13.653  0.0090 -0.0636 -0.0722
 7194W        W22663   9.651  10.822  10.819 -0.0101  0.0913 -0.1506
 7195W        W22664  12.046   8.307  13.896  0.0355 -0.0821 -0.1563
 7196W        W22665  17.568  16.727  14.607  0.3052  0.3362 -0.1809
 7197W        W22666  10.552  15.666  12.070  0.0476 -0.0137 -0.2766
 7198W        W22667  11.029  14.114  15.493 -0.0028  0.1141 -0.0465
 7199W        W22668   2.713   0.883  13.480 -0.2386 -0.0664  0.2795
 7200W        W22669  17.414   7.982  13.525  0.0717 -0.3637 -0.1901
 7201W        W22670  14.387   0.622   1.459 -0.0382  0.0023 -0.1129
 7202W        W22671  15.808  13.656   2.820  0.1269  0.0428  0.0437
 7203W        W22672  12.881  18.071  12.221  0.0534  0.1312 -0.2076
 7204W        W22673   9.095  12.230  14.557 -0.0368 -0.3163  0.2645
 7205W        W22674  10.507  14.701   0.017 -0.1097  0.1902 -0.3852
 7206W        W22675   9.226   2.995   4.409  0.4001 -0.0153 -0.1000
 7207W        W22676   0.671  14.957   2.695  0.2030  0.2365 -0.0782
 7208W        W22677   4.464   3.172   0.728 -0.4070  0.0350  0.1316
 7209W        W22678   3.614  12.256   1.694 -0.0791  0.3265  0.1116
 7210W        W22679   7.496   7.828   4.414 -0.0586 -0.3153 -0.0865
 7211W        W22680   8.120  18.340   0.061  0.1804  0.3392  0.0092
 7212W        W22681  13.850   9.340  12.746  0.3022  0.0934 -0.3864
 7213W        W22682   1.674   7.288   5.686  0.1504 -0.0364 -0.0080
 7214W        W22683  11.675   7.131   0.662 -0.1081 -0.1135 -0.1268
 7215W        W22684  16.526  14.221   0.977  0.2364  0.4239  0.3027
 7216W        W22685  15.865  12.607   4.035 -0.0570  0.1561  0.1475
 7217W        W22686  12.160  16.920  13.872 -0.1167 -0.0177 -0.1825
 7218W        W22687  13.581  11.932   2.762  0.3219  0.2479  0.1099
 7219W        W22688  11.707   2.939   3.893 -0.0451 -0.2124  0.0050
 7220W        W22689  13.469   0.072  12.774  0.0322  0.2843  0.1432
 7221W        W22690   7.771   6.999   3.633 -0.1371  0.0578  0.2347
 7222W        W22691  14.189   1.655  13.733 -0.2404 -0.0826 -0.1897
 7223W        W22692  12.865   2.323   4.684  0.2111 -0.2053 -0.2149
 7224W        W22693   3.509  15.065  13.336 -0.0318 -0.4489 -0.3375
 7225W        W22694  10.737   7.580   2.967 -0.2525  0.2889  0.2754
 7226W        W22695   9.777   8.104  10.736 -0.1816  0.1158 -0.0085
 7227W        W22696   5.876  14.554   2.995  0.1102  0.0184 -0.1022
 7228W        W22697   0.550   4.687  13.979  0.1154  0.0070  0.2487
 7229W        W22698   5.733  15.896   4.490  0.1368 -0.0348 -0.1927
 7230W        W22699   3.509   5.850  11.216 -0.0856  0.1953  0.0019
 7231W        W22700  11.582  18.360   1.985 -0.0941 -0.1329  0.0017
 7232W        W22701   2.044   7.291  15.615 -0.0594 -0.0068  0.1681
 7233W        W22702   1.061   0.777   2.437 -0.3402 -0.1002  0.0249
 7234W        W22703   2.360  16.426  13.788  0.3374 -0.2920  0.1675
 7235W        W22704   9.358   7.546  11.530  0.1273 -0.0324 -0.2409
 7236W        W22705   5.227  10.669   4.119  0.0085  0.0871 -0.3286
 7237W        W22706   5.861   4.942  14.339 -0.0119  0.0625 -0.1455
 7238W        W22707   3.716  11.826   3.417  0.2484  0.1240 -0.3192
 7239W        W22708  14.447   6.131  12.467  0.0299 -0.0420 -0.1028
 7240W        W22709   5.385  14.442   5.683  0.2179 -0.1413 -0.1401
 7241W        W22710  12.324  12.880   4.679  0.3650  0.1809  0.0681
 7242W        W22711   2.480  16.148   4.681  0.2516 -0.1808 -0.3422
 7243W        W22712  18.311   1.422   4.890 -0.0529 -0.1902  0.0591
 7244W        W22713  13.383   4.029  14.182  0.1571 -0.2781  0.1240
 7245W        W22714  11.692   4.365   2.290 -0.1783 -0.2391 -0.0868
 7246W        W22715  18.188   6.843  14.722 -0.1987 -0.0649  0.3049
 7247W        W22716   9.941  10.709  12.669 -0.0343  0.2708 -0.3556
 7248W        W22717   0.996  14.119   2.598 -0.1315  0.0046 -0.0213
 7249W        W22718  17.943  13.333  12.845 -0.0248  0.2147 -0.0985
 7250W        W22719   9.442   7.009  11.101  0.0480  0.2088  0.1402
 7251W        W22720   7.708  12.533   1.600 -0.1155 -0.0008 -0.0649
 7252W        W22721  16.469  13.324  10.731 -0.1502  0.0191 -0.2724
 7253W        W22722   1.743   7.647   3.387  0.1792  0.1525  0.1629
 7254W        W22723  14.738  11.573   4.074 -0.2719  0.0231 -0.2309
 7255W        W22724   9.638   0.978   0.333  0.2662  0.0049 -0.0216
 7256W        W22725  11.904   4.536  15.025  0.1916  0.1500  0.1552
 7257W        W22726  10.663  15.501   3.341  0.1768 -0.0785 -0.0584
 7258W        W22727  16.691  13.724  10.553  0.1298 -0.1998  0.2113
 7259W        W22728  14.828   0.044  15.173 -0.0532  0.3406  0.2021
 7260W        W22729  17.301  12.160  14.269  0.1118  0.0820 -0.1936
 7261W        W22730   1.669   0.582   4.881 -0.1020 -0.0438  0.3250
 7262W        W22731   9.450   4.725  13.415  0.0126  0.0457  0.2462
 7263W        W22732  10.077   2.136   3.770  0.1822  0.1549 -0.2033
 7264W        W22733  15.287   6.628  12.080 -0.1857 -0.5622  0.0038
 7265W        W22734   6.224   6.087  15.088  0.0024 -0.0248 -0.1182
 7266W        W22735  16.235  13.668  12.740  0.0849  0.1020 -0.0023
 7267W        W22736   6.097  10.067  13.791  0.0277  0.1327  0.0838
 7268W        W22737   7.370  14.740  15.230 -0.0622 -0.1512 -0.1855
 7269W        W22738   5.919  17.215  14.475 -0.1697 -0.0835 -0.0622
 7270W        W22739  12.705   1.446  11.042  0.0346  0.1198  0.0063
 7271W        W22740  17.904  17.999   1.440 -0.0141 -0.2436  0.0941
 7272W        W22741  13.382  12.147   1.204  0.0816 -0.0114 -0.1669
 7273W        W22742   9.409   8.593   1.532 -0.0344  0.1478  0.1446
 7274W        W22743   0.836   9.202   1.329 -0.4918 -0.2297  0.0093
 7275W        W22744   5.927   4.572   1.360  0.0398  0.1703  0.0851
 7276W        W22745  11.098   1.508  11.336  0.3074 -0.1630  0.1760
 7277W        W22746   9.322   2.104  14.681  0.2834 -0.0731 -0.0553
 7278W        W22747  10.077  16.511  13.367 -0.0345 -0.3814 -0.1309
 7279W        W22748   1.743   0.451   0.570  0.0780  0.1012  0.0096
 7280W        W22749   4.140   3.125  12.754  0.0336  0.0691 -0.0074
 7281W        W22750  11.947   7.029  10.929  0.2077 -0.1816 -0.1163
 7282W        W22751   5.310   2.261   4.672  0.0913  0.2272 -0.1253
 7283W        W22752  18.606  12.658   3.831  0.0638  0.5339  0.0617
 7284W        W22753   0.466   5.344  12.652  0.2142 -0.1928 -0.1539
 7285W        W22754   4.318  15.319  13.727  0.2417 -0.1720 -0.0397
 7286W        W22755   2.823   4.114   1.678  0.0921 -0.1347 -0.1572
 7287W        W22756  17.254   4.562  15.470  0.1555 -0.1521 -0.1430
 7288W        W22757   7.742  11.264  10.045  0.0728  0.0098  0.2413
 7289W        W22758  17.590   4.817  11.923  0.4333 -0.2583 -0.1527
 7290W        W22759   6.394   1.546  11.560 -0.0016 -0.0175 -0.0383
 7291W        W22760  15.151   5.621  10.777  0.0230  0.1673  0.0418
 7292W        W22761   2.568   4.819  11.291  0.1408  0.0751 -0.0608
 7293W        W22762   0.370   2.547   2.599  0.0697 -0.1012 -0.1821
 7294W        W22763   0.772   8.317   5.448  0.2272  0.0409 -0.1025
 7295W        W22764  14.184   7.848   3.389  0.0261  0.1191  0.0270
 7296W        W22765  13.117   5.602  10.061  0.1848 -0.1572 -0.1904
 7297W        W22766   1.818   3.739   1.481 -0.1912 -0.3779 -0.2427
 7298W        W22767  10.853   7.095   3.143 -0.0470 -0.0839 -0.0719
 7299W        W22768  15.383   2.758  10.648 -0.1416  0.1012  0.1196
 7300W        W22769  14.562   4.838   3.538 -0.1358  0.1506 -0.0940
 7301W        W22770   0.768  10.344  13.138  0.0066  0.1689 -0.2624
 7302W        W22771  16.751   3.934  14.257  0.3328  0.1014  0.2244
 7303W        W22772   8.732   1.496   0.969  0.0291 -0.1549  0.3989
 7304W        W22773  13.710  14.076  12.652 -0.0562  0.3098  0.0353
 7305W        W22774   7.391   6.368  14.501 -0.3939  0.0138 -0.3459
 7306W        W22775   0.137   3.967   5.552  0.0824 -0.1886  0.2443
 7307W        W22776  14.891  11.014  13.887 -0.4408  0.3134  0.0552
 7308W        W22777  15.992  15.703   1.727  0.0420 -0.3812  0.3073
 7309W        W22778   0.263   7.873  14.083 -0.0601 -0.0462 -0.0875
 7310W        W22779   0.582   2.251   2.135  0.2224 -0.0183  0.4353
 7311W        W22780   6.009  17.742   5.356  0.1602  0.3382  0.0525
 7312W        W22781  16.862   1.428  11.738  0.0891  0.3926  0.3992
 7313W        W22782   7.968  10.223   4.330  0.0381 -0.2006  0.4721
 7314W        W22783  12.963  16.775   4.759  0.1537  0.2443 -0.0845
 7315W        W22784   2.799   7.598   5.614  0.0511  0.2657 -0.0041
 7316W        W22785   5.137  16.080  11.217 -0.3896 -0.3361  0.2001
 7317W        W22786  16.966   1.397   3.791  0.3920  0.4613  0.0362
 7318W        W22787   8.649   7.537  12.071 -0.0939 -0.0432 -0.1034
 7319W        W22788  11.296   2.278   4.971  0.1138 -0.1252  0.1000
 7320W        W22789   4.708   5.331  10.961  0.2213  0.1082  0.0030
 7321W        W22790   6.873   4.111  13.971  0.3261 -0.0993 -0.0431
 7322W        W22791  18.352   4.136   4.357  0.1119  0.2100 -0.2309
 7323W        W22792   0.821   2.243  10.341 -0.1996 -0.0841  0.1208
 7324W        W22793   6.967   3.430   1.643 -0.2320 -0.3616  0.1204
 7325W        W22794   4.049   5.556   5.893  0.0432 -0.3654 -0.0922
 7326W        W22795  16.363  16.003  12.764 -0.1910  0.3875 -0.0295
 7327W        W22796   1.842   6.268  13.634 -0.1228 -0.2614 -0.2768
 7328W        W22797  15.282   7.770  14.069  0.2989  0.0269 -0.2086
 7329W        W22798   3.377   1.402   0.938 -0.3198  0.1234 -0.1263
 7330W        W22799   7.207   3.057   4.920 -0.0998  0.0716 -0.1151
 7331W        W22800   3.288  13.145   2.400  0.1452 -0.2230  0.0403
 7332W        W22801   4.996  15.528  10.318  0.1438  0.1871 -0.2066
 7333W        W22802   2.486  14.004   4.772 -0.3249 -0.2398 -0.2829
 7334W        W22803   8.045   0.946  11.475  0.0412  0.0914  0.2902
 7335W        W22804   4.942   7.134   5.401  0.1861 -0.0383 -0.1153
 7336W        W22805  11.790  12.435   4.361  0.2553  0.0957 -0.1239
 7337W        W22806  13.233   8.484  14.450 -0.1198 -0.1382  0.0037
 7338W        W22807   5.405   8.208   5.914 -0.0795  0.2377  0.0620
 7339W        W22808  17.039  14.401   3.429  0.0845  0.2360  0.0621
 7340W        W22809   0.532   5.899   2.875  0.0490  0.3732 -0.2628
 7341W        W22810   1.732   3.380  14.676  0.0044 -0.2519  0.1051
 7342W        W22811   8.658   0.645  14.111  0.3313 -0.1387 -0.0561
 7343W        W22812  17.379  12.572   4.546 -0.1107 -0.0258 -0.2163
 7344W        W22813  16.399   9.359   1.635 -0.0395  0.1664 -0.2874
 7345W        W22814  10.107  10.693   1.514  0.0345 -0.1835 -0.3132
 7346W        W22815   6.392   9.791   0.827  0.3019  0.0074  0.1724
 7347W        W22816   2.382   4.374  15.407  0.0881  0.2021 -0.1141
 7348W        W22817   6.442   0.709   5.331 -0.2002 -0.0478  0.0335
 7349W        W22818  13.512   1.966   2.193  0.0321 -0.1064  0.0608
 7350W        W22819  12.571  16.634  12.027  0.1216 -0.0944 -0.1308
 7351W        W22820   3.747   0.959  11.898  0.0951 -0.0473  0.0675
 7352W        W22821   6.178   4.229  13.659  0.3331  0.3019 -0.1052
 7353W        W22822   1.864  17.255   0.082  0.0105  0.1517  0.3763
 7354W        W22823   3.757   0.180   2.347 -0.1642 -0.0061  0.0704
 7355W        W22824  13.712  12.194   5.165  0.0825 -0.1049  0.0120
 7356W        W22825   9.809  17.440   5.095  0.0754  0.2493  0.0216
 7357W        W22826   8.915   7.322  15.474 -0.0363  0.2227 -0.0467
 7358W        W22827   4.495  18.092  14.222  0.4173 -0.0937  0.1261
 7359W        W22828   3.677  10.608   4.714  0.0237  0.0783  0.0308
 7360W        W22829  17.199   3.147   2.311 -0.0213 -0.0898  0.2610
 7361W        W22830   3.328   2.249  11.536  0.0580 -0.1588  0.2364
 7362W        W22831  14.844  18.695   1.093 -0.1566  0.0506  0.0751
 7363W        W22832   1.045   4.812  13.990 -0.0499 -0.4054 -0.2777
 7364W        W22833  16.042  11.604   0.328 -0.2768 -0.1845  0.3185
 7365W        W22834   5.512   3.048   1.354 -0.0998 -0.1361  0.0287
 7366W        W22835   2.452   4.912   1.311  0.0363  0.1570 -0.0713
 7367W        W22836   5.889   6.020   1.682 -0.0700  0.0592 -0.2830
 7368W        W22837   0.403  16.505  11.265 -0.2808 -0.0843 -0.1575
 7369W        W22838  10.817  17.820   3.959  0.0811 -0.1463 -0.0483
 7370W        W22839  12.518   2.408   3.642  0.2863 -0.0451 -0.2074
 7371W        W22840   3.330   4.885   0.324 -0.2866 -0.0312  0.2720
 7372W        W22841  13.358  11.289  12.567 -0.2680  0.0237 -0.2030
 7373W        W22842   7.987  10.630  15.371  0.2737 -0.1304  0.2180
 7374W        W22843   4.388  11.528   2.802  0.1032 -0.2609  0.1000
 7375W        W22844   4.259   1.577  11.882  0.0147 -0.0246  0.1963
 7376W        W22845   9.588   8.812  15.315  0.1792  0.0416 -0.1046
 7377W        W22846  10.316   0.994   2.507  0.1388 -0.2092  0.4090
 7378W        W22847  10.743  14.946  14.421 -0.3066 -0.3511  0.0223
 7379W        W22848  15.682   1.687  13.460  0.2088 -0.0492 -0.2337
 7380W        W22849   1.942   0.481   1.570  0.3945  0.0380 -0.2555
 7381W        W22850   2.574  18.170  12.570  0.0973  0.1009  0.1353
 7382W        W22851   3.297  16.634  13.183  0.2849  0.1218 -0.2780
 7383W        W22852  18.632   6.493  14.685  0.2481 -0.0750  0.1305
 7384W        W22853   9.914  13.541  11.110  0.1159  0.1584  0.0671
 7385W        W22854  17.900  12.009  11.821  0.1312 -0.0498 -0.0381
 7386W        W22855  17.935   0.604   3.413  0.2081  0.0951  0.2609
 7387W        W22856   4.655  17.353   4.627 -0.0540 -0.1370 -0.0932
 7388W        W22857   5.559  15.679   0.800  0.0490  0.1686 -0.2197
 7389W        W22858   5.512  16.621   2.285 -0.2440  0.1436  0.0339
 7390W        W22859   9.492   0.740   1.887 -0.0835  0.0524  0.1812
 7391W        W22860  13.006  14.364   3.527 -0.0332  0.0158  0.1741
 7392W        W22861  14.906  10.412   3.472  0.1063  0.3367 -0.1911
 7393W        W22862  18.276  12.360   4.130  0.2496  0.0477 -0.1028
 7394W        W22863   2.038   5.558   4.833  0.2541  0.0217  0.1190
 7395W        W22864   3.758   5.084   5.900  0.1670  0.0961  0.3295
 7396W        W22865   4.033   0.125   3.958  0.1679  0.0196  0.2150
 7397W        W22866  17.930  17.897  11.915 -0.0630  0.2431 -0.1410
 7398W        W22867  13.735   2.403   2.370  0.0340  0.0222 -0.0384
 7399W        W22868   8.122   2.124  14.118  0.1660 -0.0882  0.1080
 7400W        W22869  14.014  10.041   1.950  0.0843 -0.1015  0.0609
 7401W        W22870  12.568  14.290   3.864 -0.0694  0.2162  0.2725
 7402W        W22871  13.933  13.200   5.181 -0.0670  0.4979  0.0468
 7403W        W22872   1.874  18.666   3.495  0.0460  0.4197  0.3989
 7404W        W22873  14.375  11.739   0.435 -0.2159  0.0632 -0.0793
 7405W        W22874  18.045  15.633   1.609 -0.0203  0.0091 -0.1003
 7406W        W22875   2.017  11.739  14.939  0.0410 -0.4740 -0.1074
 7407W        W22876   0.792   7.025   0.229  0.0344 -0.1507  0.0819
 7408W        W22877  16.095  10.248   3.671 -0.1504 -0.1799 -0.1039
 7409W        W22878  13.330   3.238   4.964  0.1402  0.1940  0.0585
 7410W        W22879  12.444  16.255   2.294  0.0908 -0.3671 -0.2176
 7411W        W22880  16.010   1.263  12.147  0.1273  0.2644 -0.1288
 7412W        W22881  17.933   4.523  12.305  0.1619 -0.1601 -0.0061
 7413W        W22882  13.935  16.481  10.262  0.0987 -0.0625 -0.0903
 7414W        W22883  18.466  14.524  15.220  0.0212  0.0703 -0.1316
 7415W        W22884   6.798   2.137  11.982 -0.0143 -0.1042 -0.2944
 7416W        W22885  16.690  12.930  14.188  0.4345 -0.4685  0.3517
 7417W        W22886  16.120  11.107  15.605 -0.3147 -0.2706  0.1292
 7418W        W22887   4.632  18.029   3.357  0.0184  0.1929 -0.0749
 7419W        W22888  17.580  15.085   1.070 -0.0445 -0.2290 -0.1906
 7420W        W22889   4.272  11.920   4.234  0.1781  0.0655  0.1982
 7421W        W22890  14.402   4.084   0.645 -0.2050 -0.0294 -0.0101
 7422W        W22891  10.367  15.330  15.194 -0.0399  0.1437 -0.0358
 7423W        W22892  12.122   3.458   2.350  0.4424  0.1649 -0.0054
 7424W        W22893   0.584   7.844   4.928  0.0885 -0.2799 -0.2146
 7425W        W22894   4.095   6.647   5.307 -0.1579  0.2423  0.1652
 7426W        W22895   2.479  18.524   0.392 -0.0465  0.1993 -0.2365
 7427W        W22896   9.109   1.207   1.800 -0.1153 -0.0785  0.0593
 7428W        W22897   9.600   0.802  11.738  0.1334 -0.2513 -0.2019
 7429W        W22898   0.856  11.402   4.277 -0.0452 -0.0648 -0.0490
 7430W        W22899   2.998  13.200   4.427  0.2713 -0.0259  0.2281
 7431W        W22900  17.219   3.146  15.072 -0.0544 -0.2201  0.0751
 7432W        W22901  11.335   7.655   3.817  0.0331  0.1373 -0.0506
 7433W        W22902   6.143  18.622  10.887 -0.2837 -0.1963  0.0370
 7434W        W22903  10.965   1.553  10.766 -0.1784  0.0517  0.0688
 7435W        W22904  14.627   7.575   2.481  0.0051  0.2852 -0.1560
 7436W        W22905   5.501   9.309   0.898  0.0163 -0.3256  0.1659
 7437W        W22906   3.346   9.562   0.459  0.1083 -0.2474  0.1052
 7438W        W22907  17.701  13.688  12.052 -0.0658 -0.1875 -0.2186
 7439W        W22908  16.445   5.426   2.692 -0.0417  0.3611  0.0972
 7440W        W22909   8.661   6.802   2.803  0.0650 -0.2585  0.1480
 7441W        W22910  11.449   8.204  14.739 -0.1366 -0.2395 -0.0108
 7442W        W22911   0.381  15.450  14.008  0.0278 -0.0829 -0.3985
 7443W        W22912   6.272   1.113   4.502  0.0595  0.0157  0.2933
 7444W        W22913  10.222  13.965   5.677 -0.1127 -0.0867  0.0480
 7445W        W22914  14.390   2.542   3.294 -0.0370  0.1024 -0.0166
 7446W        W22915   6.576  10.862   4.181  0.0416 -0.0862 -0.1212
 7447W        W22916   6.201  12.607   1.152 -0.1400  0.0112 -0.2088
 7448W        W22917   7.572   4.786  14.187 -0.3777 -0.1989 -0.0250
 7449W        W22918   4.011   9.876  11.356 -0.2954  0.3118  0.0984
 7450W        W22919   2.785  10.600   4.238  0.0627  0.0277  0.3274
 7451W        W22920   2.429   8.578  14.330  0.1601  0.1525  0.1325
 7452W        W22921  17.229  11.395   3.297 -0.1382  0.3023 -0.2335
 7453W        W22922   6.067   2.045   1.316 -0.2749 -0.2191  0.1802
 7454W        W22923  15.131   0.357   1.860  0.1012 -0.0344  0.2184
 7455W        W22924  10.489   0.649   4.653  0.0801 -0.4747  0.5218
 7456W        W22925  14.261   5.971   2.729  0.0143 -0.1228  0.0017
 7457W        W22926  13.266  12.719  15.620  0.3492  0.3500  0.1239
 7458W        W22927  15.816  18.046   5.549  0.2206 -0.1153  0.0171
 7459W        W22928   9.697   3.474   2.328  0.2412  0.0709  0.1460
 7460W        W22929   8.080   0.440  11.734  0.2307 -0.4349 -0.0766
 7461W        W22930   2.827   7.715  14.497  0.0359 -0.0446 -0.0110
 7462W        W22931   8.975   8.022   2.068  0.2114 -0.0771  0.0305
 7463W        W22932   1.102  11.277  15.732  0.0273 -0.1064 -0.1382
 7464W        W22933   5.496   9.394  15.209  0.0122 -0.1041  0.0611
 7465W        W22934  11.272   0.534   4.345  0.1458 -0.3043  0.0205
 7466W        W22935  14.463   5.806   3.510  0.0142 -0.0266 -0.2149
 7467W        W22936  18.451  16.771   3.901 -0.2265  0.2502 -0.2253
 7468W        W22937   7.036   2.651  15.497  0.4006  0.3558  0.0873
 7469W        W22938   7.848   1.274  14.426  0.2874 -0.2364 -0.1819
 7470W        W22939  16.894   3.308  11.750 -0.2565  0.0083  0.0804
 7471W        W22940  18.479   9.840   4.055  0.1262  0.4334 -0.0411
 7472W        W22941  12.951  16.655  12.395 -0.0177 -0.0286  0.4535
 7473W        W22942  12.885   9.905  15.748  0.2647  0.0936 -0.1916
 7474W        W22943  18.359  15.141   4.346  0.0183  0.0390  0.3483
 7475W        W22944   0.108   8.275  15.529 -0.1766 -0.1952 -0.0336
 7476W        W22945  15.020  10.512  15.227  0.2340 -0.0809 -0.0101
 7477W        W22946  12.511  18.456  12.953  0.1448  0.1327  0.0204
 7478W        W22947   9.580  16.928   0.240 -0.1969  0.1673  0.0710
 7479W        W22948   2.236   6.853  13.219 -0.0639 -0.2559  0.1248
 7480W        W22949   8.369  16.385   0.510  0.2078  0.1281  0.0827
 7481W        W22950   9.624  17.503   3.127 -0.1647  0.0957  0.2899
 7482W        W22951  17.247  11.303  11.852  0.2860 -0.1218  0.1608
 7483W        W22952   3.845   8.699  14.716  0.0269  0.0240 -0.0694
 7484W        W22953   7.918  14.353  11.731 -0.0294 -0.1627  0.0390
 7485W        W22954   5.571  14.664   0.242 -0.2932 -0.2829 -0.1282
 7486W        W22955   6.856  14.322   6.104  0.1833 -0.0362 -0.0075
 7487W        W22956  13.136   3.335  15.254 -0.1742  0.1872 -0.2874
 7488W        W22957   2.726   3.965  15.376 -0.1938  0.0304  0.0870
 7489W        W22958  15.019   3.953  10.287  0.1084 -0.2773  0.2533
 7490W        W22959  14.412   8.398  10.670 -0.2029 -0.3133  0.0172
 7491W        W22960   3.472  16.485   1.589 -0.0752 -0.1124 -0.0054
 7492W        W22961  17.185   2.750   1.519  0.0586 -0.4276  0.0478
 7493W        W22962   7.814   5.293  11.633  0.3628 -0.2250 -0.1068
 7494W        W22963   0.019  16.309  15.670  0.0080  0.1462 -0.3937
 7495W        W22964   7.142   2.520  11.945 -0.0448 -0.1765  0.2355
 7496W        W22965   6.477   5.783   0.340 -0.2038  0.1467  0.1702
 7497W        W22966  16.802  11.397  14.325 -0.1901  0.2547  0.1123
 7498W        W22967   3.456   7.183  11.438 -0.2172  0.2805 -0.0359
 7499W        W22968  10.512  17.923   2.120  0.2701 -0.5060  0.1196
 7500W        W22969   8.453   9.176  15.373 -0.0358 -0.4304 -0.2012
 7501W        W22970  13.233  12.820   4.996 -0.3376 -0.0077 -0.2362
 7502W        W22971   7.897  12.861   2.998 -0.3804 -0.0731 -0.2077
 7503W        W22972  16.918  15.866  12.678 -0.1463  0.0337 -0.2608
 7504W        W22973  18.307   0.151   4.088  0.0547 -0.2437  0.0140
 7505W        W22974   2.417   9.458   1.900 -0.2294 -0.0623 -0.0485
 7506W        W22975   1.902  12.017   4.604 -0.0359 -0.1249  0.1181
 7507W        W22976   3.202   2.705   3.026  0.0737  0.2323  0.0602
 7508W        W22977  16.694  11.252  11.859 -0.3546 -0.0179 -0.0316
 7509W        W22978  15.299  17.757   2.560  0.3357  0.0052  0.0131
 7510W        W22979   3.633  14.518   2.857 -0.1527  0.1213  0.2096
 7511W        W22980  13.596   7.606   1.217 -0.0488 -0.2582 -0.0858
 7512W        W22981  17.407  14.371   4.386  0.1190  0.1089 -0.1486
 7513W        W22982   2.217   2.063  13.041 -0.1681 -0.1474  0.0662
 7514W        W22983   3.638  15.040   0.766 -0.1237 -0.3796  0.2792
 7515W        W22984   7.942   6.294  14.638 -0.1591 -0.2000 -0.0830
 7516W        W22985   0.558   6.709   1.844 -0.1674 -0.3978 -0.0976
 7517W        W22986  13.382  16.844  12.154 -0.1004 -0.0492  0.0521
 7518W        W22987   2.638  16.419   5.677  0.2051  0.0268  0.0103
 7519W        W22988   9.818   8.386   3.484 -0.1996 -0.0763  0.0450
 7520W        W22989   0.551   9.006   0.157 -0.3067 -0.2235  0.2189
 7521W        W22990  14.790   2.258   5.829 -0.3615  0.0875 -0.1375
 7522W        W22991  13.695   2.040  11.874 -0.2188 -0.0457 -0.0171
 7523W        W22992   3.773  14.669  14.243 -0.0822  0.0826  0.0515
 7524W        W22993   9.096  15.353   2.073  0.0480 -0.0503 -0.1913
 7525W        W22994  18.418   0.157  14.600  0.1061 -0.1881 -0.1101
 7526W        W22995   9.287   1.263   0.619  0.0787 -0.1711 -0.1520
 7527W        W22996   7.121  11.529   1.365 -0.1801 -0.0493  0.4634
 7528W        W22997   3.348   4.818   1.273 -0.0705 -0.0483  0.1582
 7529W        W22998  10.503  14.730  13.315 -0.1363 -0.0853  0.0212
 7530W        W22999  12.870   7.799  12.454  0.1493 -0.0198  0.2267
 7531W        W23000   1.474  17.108  12.988 -0.1460  0.2182 -0.0897
 7532W        W23001   4.417   8.184  13.554 -0.1821 -0.2446  0.1902
 7533W        W23002   2.165   1.117  12.189  0.0096 -0.1144 -0.1683
 7534W        W23003   1.438  13.425   4.398 -0.0881 -0.2387 -0.2451
 7535W        W23004  17.139  12.436  14.626 -0.1457 -0.0346 -0.0816
 7536W        W23005  12.923  15.310  14.900 -0.1186 -0.0740 -0.2529
 7537W        W23006   4.140  16.580   4.973 -0.1478  0.0506  0.2521
 7538W        W23007  15.933   9.291   1.770  0.2085 -0.1224 -0.1260
 7539W        W23008   8.436   2.243   1.222  0.1310  0.1156  0.0762
 7540W        W23009   9.017   5.439   3.033 -0.0561  0.0712 -0.0645
 7541W        W23010  16.715   3.374   2.025 -0.1954  0.1931 -0.1602
 7542W        W23011   8.781  11.957   4.575  0.0660  0.1273  0.2178
 7543W        W23012   2.647   8.990   4.981  0.0905 -0.0205  0.0299
 7544W        W23013  12.263   6.928  14.566 -0.0011 -0.3617 -0.0828
 7545W        W23014   8.493  18.051   1.891 -0.2071 -0.0068  0.0949
 7546W        W23015   1.416   4.374   4.781 -0.1152 -0.4209 -0.1495
 7547W        W23016   1.465   6.840  14.990 -0.2619 -0.3380 -0.2395
 7548W        W23017   8.853  10.658   2.850  0.2486  0.1082  0.1135
 7549W        W23018  14.393  13.435   4.109 -0.2293  0.0908  0.0127
 7550W        W23019  12.019  18.064  14.520 -0.2260 -0.2612  0.1274
 7551W        W23020  17.761   1.974   9.827  0.3534 -0.3681  0.2109
 7552W        W23021   5.931   1.147   2.100 -0.1709  0.2853  0.0830
 7553W        W23022   7.062  13.028   2.960  0.3901  0.1983 -0.1423
 7554W        W23023   8.996   5.247   4.498 -0.1376  0.4539 -0.0316
 7555W        W23024   3.969  16.232   4.654  0.0579  0.2264  0.2606
 7556W        W23025  13.910  16.744   1.757 -0.3141 -0.1855 -0.0513
 7557W        W23026   3.222  15.660   1.972  0.3357 -0.0007  0.0166
 7558W        W23027  15.991   4.880   1.176  0.1954 -0.4868  0.2358
 7559W        W23028   2.345   9.302  12.189  0.0597 -0.1197  0.4274
 7560W        W23029   7.479   5.183   0.871 -0.0982  0.3556  0.2318
 7561W        W23030   0.981  12.863   1.285 -0.0378 -0.0784  0.1976
 7562W        W23031  13.987   9.957  13.708  0.0361 -0.0650 -0.3975
 7563W        W23032  11.638   0.332   2.673  0.2954 -0.1817  0.1502
 7564W        W23033   4.197   4.856  14.622  0.1647  0.0938 -0.1469
 7565W        W23034   3.238  11.146  13.158  0.5475 -0.2028 -0.0521
 7566W        W23035  18.359  14.022   5.705  0.1107  0.1143 -0.1413
 7567W        W23036   6.903  15.596   3.182  0.4614 -0.1795  0.0640
 7568W        W23037  11.265  11.374  14.064  0.1586 -0.0720 -0.1141
 7569W        W23038  16.244  11.980   1.307  0.1789 -0.0529 -0.0426
 7570W        W23039   7.369  16.171   3.174 -0.2087  0.1784  0.0648
 7571W        W23040  16.527   9.138   0.039  0.3078  0.3263  0.2177
 7572W        W23041   3.693   7.091   2.370  0.1543  0.2107  0.2534
 7573W        W23042   0.064  11.783   0.915  0.0797 -0.0060  0.0474
 7574W        W23043   2.479   8.024  14.206 -0.1641 -0.0578 -0.0778
 7575W        W23044  18.662  12.599  15.696 -0.1448  0.2442  0.0191
 7576W        W23045  12.702   7.131   0.822 -0.0547 -0.2061  0.0701
 7577W        W23046  14.935  12.040  10.843 -0.0297 -0.0162 -0.1630
 7578W        W23047   4.265  12.463   5.674  0.2115  0.3302 -0.1397
 7579W        W23048   2.792   1.722   4.483 -0.4428 -0.0379 -0.3158
 7580W        W23049  12.392   2.390  15.457  0.0452 -0.3946  0.1175
 7581W        W23050   0.134   2.156  12.697 -0.2228  0.0213 -0.1956
 7582W        W23051  13.033   4.462   1.486  0.3146  0.2604 -0.0824
 7583W        W23052  15.736  16.268  15.649  0.0407  0.1813  0.0149
 7584W        W23053  16.490  17.013   4.441 -0.0502  0.2559  0.4159
 7585W        W23054  12.450   4.756  10.840 -0.2273 -0.2044 -0.0432
 7586W        W23055   3.342   8.546  14.782 -0.2127  0.2655  0.0890
 7587W        W23056   0.711   4.794   1.294 -0.1892  0.1293 -0.1373
 7588W        W23057   4.091   5.560   4.610  0.0161 -0.1788 -0.4235
 7589W        W23058  16.825  13.053  14.994  0.0877  0.2103 -0.5101
 7590W        W23059  15.036   1.973   2.931 -0.2046  0.3042  0.2120
 7591W        W23060  10.474   4.842  11.108  0.1097  0.0859  0.1926
 7592W        W23061   0.790   9.990  10.701  0.0750  0.2298  0.1643
 7593W        W23062   9.276   5.897  11.778 -0.1047 -0.0777 -0.0838
 7594W        W23063  10.298  17.223   0.889  0.3441  0.1153 -0.1416
 7595W        W23064   9.102  12.169   3.321 -0.1339 -0.0587  0.0368
 7596W        W23065  13.728   9.450  15.221  0.4040  0.0944 -0.0030
 7597W        W23066   7.372  13.306  15.665 -0.0918  0.0642  0.0887
 7598W        W23067   2.866  13.984  13.236  0.1273  0.1274  0.0983
 7599W        W23068  10.673   8.523   2.180  0.0989  0.0342 -0.0694
 7600W        W23069  17.219  10.591  13.590  0.0808  0.0491 -0.1740
 7601W        W23070  16.967   9.520   2.494 -0.0017  0.2876  0.3313
 7602W        W23071   2.492  14.971   5.620  0.0089 -0.0026 -0.2484
 7603W        W23072   7.946  10.046  12.108  0.1160 -0.0461  0.0470
 7604W        W23073  13.730  10.882  13.609 -0.0554 -0.0763  0.1465
 7605W        W23074   2.616  15.951   2.642  0.2193 -0.0382  0.1140
 7606W        W23075  17.690  10.568  10.557  0.0207  0.1722  0.0193
 7607W        W23076   2.346  12.478   4.526 -0.2707 -0.3129 -0.0596
 7608W        W23077  15.086   6.522   1.519 -0.0376 -0.0650  0.1522
 7609W        W23078   5.049   2.054   5.424 -0.1150  0.0013  0.0492
 7610W        W23079  16.193  13.350   1.372  0.0051 -0.0890  0.0517
 7611W        W23080  12.970  13.165  12.466 -0.2086  0.2424  0.1136
 7612W        W23081  13.417   2.599   1.051  0.0886 -0.5436 -0.0738
 7613W        W23082   3.237   1.929  14.058  0.1459  0.2961  0.1488
 7614W        W23083  10.094  13.117  11.920 -0.0536  0.4378 -0.1404
 7615W        W23084   6.760   1.409  13.806  0.1456  0.0165 -0.5732
 7616W        W23085   4.640   0.433  12.599 -0.1622 -0.3339  0.2155
 7617W        W23086   9.832   2.000  13.064  0.1680  0.2162  0.0260
 7618W        W23087  15.928   6.725   4.608 -0.0785  0.2699 -0.3179
 7619W        W23088   0.400   3.732   1.910  0.0005 -0.1017 -0.1424
 7620W        W23089  11.990  11.923  15.239  0.1440  0.0937 -0.3377
 7621W        W23090   8.086  12.190   4.274 -0.0176  0.1098  0.0983
 7622W        W23091  14.274  15.369   2.110 -0.0450  0.0194  0.2912
 7623W        W23092  15.335   0.298   0.943 -0.2063 -0.0175  0.2448
 7624W        W23093  16.368  13.677   2.847  0.1388  0.0465 -0.3898
 7625W        W23094  12.137  17.623   4.627  0.3165 -0.0550  0.2277
 7626W        W23095   1.035   2.259  15.184  0.1004  0.0313  0.0093
 7627W        W23096   7.614   9.781  15.394 -0.4030  0.2111  0.0310
 7628W        W23097   1.131  10.005  13.409 -0.0590  0.0324  0.1067
 7629W        W23098   5.381   8.925   0.125  0.7826 -0.1533 -0.0019
 7630W        W23099   9.827   9.461   4.888  0.2981  0.3195 -0.6008
 7631W        W23100   5.270   2.209  15.309 -0.1281 -0.0362  0.3394
 7632W        W23101  10.832   6.900  10.893 -0.2313 -0.1413 -0.1886
 7633W        W23102   5.206  10.030   2.005  0.0154 -0.1158 -0.0430
 7634W        W23103   3.870  11.297   1.623 -0.1942 -0.0766  0.0079
 7635W        W23104  17.978  14.932  14.086  0.2098 -0.5363 -0.2651
 7636W        W23105  15.896  18.121  11.251  0.2047 -0.1077  0.2470
 7637W        W23106  10.240   3.256  14.854 -0.1475  0.0086 -0.1716
 7638W        W23107   7.679   9.201  12.998  0.1901 -0.1127  0.0208
 7639W        W23108  11.016  15.629  11.892  0.0416  0.0814 -0.1391
 7640W        W23109  14.321  17.297  11.570 -0.0431 -0.2161 -0.0343
 7641W        W23110  10.037   9.747  15.360  0.4833  0.0656  0.1920
 7642W        W23111  10.320   8.165   6.007 -0.1174 -0.0198  0.2055
 7643W        W23112   1.908   1.746   3.372 -0.0795 -0.0720 -0.1414
 7644W        W23113   3.103   5.358  11.625 -0.0577 -0.0653  0.0978
 7645W        W23114   5.460   1.639   3.939  0.4386  0.5744  0.0613
 7646W        W23115  13.086   9.399  14.920 -0.0552  0.0189  0.0038
 7647W        W23116  14.953  14.623  10.576  0.0719 -0.1875 -0.0727
 7648W        W23117   5.698  12.861   0.367  0.3025  0.2265  0.0864
 7649W        W23118   6.270   1.660   3.444  0.0248  0.2552  0.3931
 7650W        W23119  16.727   8.564   0.732 -0.2059  0.0033 -0.1180
 7651W        W23120  15.774  12.559   5.625 -0.1513  0.4908  0.1164
 7652W        W23121  13.031  11.715  13.750  0.1869  0.1416 -0.0160
 7653W        W23122  16.548   7.599  13.708  0.1728  0.2124 -0.4165
 7654W        W23123   5.039  10.768   2.522 -0.0698 -0.2621 -0.0567
 7655W        W23124   0.995   9.272   0.351 -0.1298  0.1780  0.0404
 7656W        W23125   3.427   1.656  14.915  0.1857  0.1338 -0.0581
 7657W        W23126  15.191  12.026  11.556 -0.0315 -0.0242  0.0033
 7658W        W23127   5.915  12.896  15.645 -0.1825  0.0237 -0.2152
 7659W        W23128  13.845  11.753   4.662  0.2589 -0.5250 -0.0281
 7660W        W23129   9.431  18.484   4.279 -0.1852 -0.0879 -0.0462
 7661W        W23130   4.238  14.536   0.332 -0.2319  0.0516 -0.0791
 7662W        W23131   0.691   6.537  14.290 -0.2199 -0.2700 -0.1181
 7663W        W23132  13.622   0.597   3.694  0.0866  0.1446 -0.0172
 7664W        W23133  10.067  17.786   2.480 -0.0949  0.0491  0.1919
 7665W        W23134  16.953   3.833  13.188 -0.0675 -0.0490 -0.2130
 7666W        W23135  11.442  12.567   3.946 -0.1060 -0.2469 -0.3124
 7667W        W23136  10.873   4.301   3.527  0.1285  0.3707  0.1459
 7668W        W23137   2.422   2.094  13.495  0.0578 -0.1505  0.1062
 7669W        W23138   6.168  14.891   0.947  0.1954 -0.2239 -0.0430
 7670W        W23139  14.083   8.637  14.111  0.2434 -0.0391 -0.0790
 7671W        W23140  11.493   4.618   4.519 -0.0416  0.1278  0.2773
 7672W        W23141  10.331  12.128   1.058 -0.1974  0.0279  0.3651
 7673W        W23142   3.392   8.201  10.515 -0.0775  0.4017  0.0436
 7674W        W23143  11.703  12.158   0.413 -0.1770 -0.2369 -0.0001
 7675W        W23144   7.998   7.213   1.546 -0.1701 -0.1963 -0.1111
 7676W        W23145   3.057   1.049   2.299  0.0959 -0.0646  0.1064
 7677W        W23146   1.490  18.241   1.754  0.2490 -0.1230 -0.0266
 7678W        W23147  14.189   1.542   5.383 -0.0945 -0.1724  0.0486
 7679W        W23148  17.099  11.396  13.014 -0.0765  0.3892 -0.0623
 7680W        W23149   4.504   0.034   4.020 -0.4334  0.1144 -0.1656
 7681W        W23150  16.812   5.205  11.786  0.1680  0.0661 -0.0583
 7682W        W23151   1.912  10.051   0.746  0.0093  0.0144  0.3106
 7683W        W23152  15.677   5.195  14.401 -0.0641 -0.2355 -0.0074
 7684W        W23153   0.768   1.543  13.838  0.4237  0.0356  0.0211
 7685W        W23154   1.920  14.947  11.683  0.2784 -0.0655 -0.1904
 7686W        W23155  15.219  12.697  15.695  0.0337 -0.3410  0.4086
 7687W        W23156  15.290  18.134   5.713 -0.0500 -0.0868  0.1109
 7688W        W23157   4.281   9.416   5.038 -0.0997  0.0655 -0.0327
 7689W        W23158  17.250  15.517   0.964  0.3543 -0.0243 -0.0637
 7690W        W23159  14.656  16.616   3.856  0.4285 -0.0408 -0.0412
 7691W        W23160   5.384   6.903   3.947  0.0968 -0.2736 -0.4242
 7692W        W23161  16.388  17.898   0.850  0.0490 -0.4415 -0.1366
 7693W        W23162   5.601   6.954   1.413  0.1305  0.1700 -0.2229
 7694W        W23163   7.977  11.360  10.492  0.1244  0.2422  0.2640
 7695W        W23164   2.969   9.611  15.132  0.0271 -0.1537 -0.1314
 7696W        W23165  10.402   4.289  12.943 -0.1441  0.0221  0.1432
 7697W        W23166   5.117   6.701  10.649  0.0219 -0.2580 -0.0605
 7698W        W23167   6.651   7.964   3.510 -0.0139  0.0563 -0.2352
 7699W        W23168  15.207  12.438   5.472  0.0759  0.0061 -0.0904
 7700W        W23169   4.661  18.534   0.715  0.2100  0.0796 -0.1361
 7701W        W23170  16.636   1.460   4.844 -0.1037 -0.0664  0.2718
 7702W        W23171   0.134   7.185   4.067  0.1357  0.1021  0.1591
 7703W        W23172  14.243  10.126  11.372 -0.0054  0.0698 -0.2513
 7704W        W23173   8.489  13.733   0.162  0.0731 -0.0993  0.2308
 7705W        W23174   5.195   0.137  12.877 -0.2202  0.1447 -0.0073
 7706W        W23175  10.015  10.055  11.752 -0.3703 -0.3341 -0.0504
 7707W        W23176   2.259   3.187   3.662 -0.4181 -0.1580  0.3121
 7708W        W23177   4.546   0.901  12.623 -0.0560  0.2210 -0.1107
 7709W        W23178   9.616   3.696   3.726  0.1368  0.1251  0.2006
 7710W        W23179   3.279   1.261  11.287 -0.3361  0.1023  0.1579
 7711W        W23180   5.770   4.373  13.067 -0.0084  0.1390 -0.1283
 7712W        W23181   4.086  14.056   0.289 -0.1576  0.0994 -0.0983
 7713W        W23182  11.378  13.187   0.732  0.0016 -0.1626 -0.2388
 7714W        W23183  12.175  16.257   3.264 -0.1502  0.0149  0.0196
 7715W        W23184  11.647   2.533  12.107  0.0761  0.3352  0.0155
 7716W        W23185  15.699  15.983   0.277 -0.0360  0.0092 -0.2407
 7717W        W23186   1.151  13.106   4.695 -0.0899  0.2636 -0.0103
 7718W        W23187   9.647  11.003  11.365  0.2566  0.0576  0.0795
 7719W        W23188   5.391  11.082   0.127 -0.0053 -0.3164  0.2048
 7720W        W23189  12.899  14.234   1.094  0.1679  0.1068  0.2172
 7721W        W23190   6.171  10.318   3.434  0.2379 -0.0614  0.1419
 7722W        W23191   4.148  17.824  15.146 -0.2070  0.3390  0.3067
 7723W        W23192  15.298  11.639   3.356  0.0545 -0.3063 -0.2271
 7724W        W23193  15.328  16.072   9.733 -0.1598  0.1000 -0.0029
 7725W        W23194   9.718   2.534  12.310 -0.1457 -0.1633  0.1225
 7726W        W23195  16.058  13.701  14.376  0.0389 -0.0283 -0.0726
 7727W        W23196  18.375  15.943  13.061 -0.4536 -0.4306  0.2157
 7728W        W23197   8.625   7.083   3.777  0.2042 -0.0043  0.3709
 7729W        W23198  14.977   9.130  13.602 -0.0628 -0.0515  0.1800
 7730W        W23199  12.098   0.245   3.545 -0.1473 -0.1700  0.0733
 7731W        W23200   3.143  12.338   5.722  0.1592  0.1567 -0.2346
 7732W        W23201  12.355  10.319  12.187  0.2626  0.2055 -0.1460
 7733W        W23202  15.902  10.573   2.394 -0.0245 -0.0523  0.0617
 7734W        W23203  16.396   3.292   0.987  0.2531  0.1377  0.1323
 7735W        W23204  13.150   1.505   2.894  0.1357 -0.1989  0.1764
 7736W        W23205   1.644   6.043   2.781 -0.0964 -0.0459 -0.1039
 7737W        W23206  11.221   9.415  11.539 -0.0284  0.2891 -0.1338
 7738W        W23207   9.749   6.685  11.446  0.0210 -0.1634 -0.2472
 7739W        W23208   5.035   6.449  10.236  0.2065  0.3815 -0.0120
 7740W        W23209  13.251   0.044  13.273 -0.0902 -0.3353  0.1657
 7741W        W23210   2.596   0.615   0.580 -0.3488 -0.0856 -0.0727
 7742W        W23211   9.222   6.552   4.687  0.1003  0.2919  0.0412
 7743W        W23212   0.542   3.455   4.659  0.0812 -0.2079 -0.0499
 7744W        W23213  14.482   3.941   3.229  0.1801  0.1670  0.1970
 7745W        W23214  13.280   6.267   4.948  0.2278 -0.0960 -0.2026
 7746W        W23215  10.572  17.678   3.397  0.0732 -0.1353  0.4142
 7747W        W23216   8.387   0.376   2.815 -0.0059 -0.0172  0.0462
 7748W        W23217  16.747  18.540   5.608 -0.4344 -0.0416  0.0966
 7749W        W23218  13.511   4.759   0.031  0.0112 -0.2279  0.0276
 7750W        W23219   7.134  11.712  12.607 -0.0433  0.2126 -0.0333
 7751W        W23220  10.225   7.247  15.622 -0.0872 -0.2392 -0.4639
 7752W        W23221  17.067  15.191  11.589 -0.1119  0.2448  0.0078
 7753W        W23222  13.536  11.727  15.573  0.6661  0.2354  0.3601
 7754W        W23223   1.003   3.524  10.499 -0.1033  0.1224 -0.0843
 7755W        W23224  10.017  11.614  12.878  0.0498 -0.1137  0.0815
 7756W        W23225   9.746   0.820   4.216  0.1717 -0.2214  0.4544
 7757W        W23226   6.065  11.909   4.253  0.0119  0.0965  0.2187
 7758W        W23227  11.039  13.602   0.704 -0.1565 -0.2221 -0.1367
 7759W        W23228   3.887   9.623   2.608  0.0084 -0.0506  0.2618
 7760W        W23229   1.857  16.908   0.998 -0.4874 -0.1838 -0.3301
 7761W        W23230  14.468   7.455   3.367 -0.2364 -0.1888  0.0620
 7762W        W23231  16.884   0.115   4.445  0.1633  0.3294 -0.1176
 7763W        W23232   5.953  15.178   4.917  0.2433 -0.0639 -0.2344
 7764W        W23233   3.683   6.548  13.385 -0.1367  0.0216  0.1469
 7765W        W23234   0.629   5.952  10.485  0.0288  0.0863  0.0026
 7766W        W23235   4.290   7.470   4.301  0.1595 -0.1473  0.3469
 7767W        W23236  10.192  16.036   2.238  0.1676  0.0879  0.1353
 7768W        W23237  16.007  14.323   1.215  0.2077 -0.0799  0.0424
 7769W        W23238   4.558  13.075  12.448 -0.0269 -0.0181  0.2247
 7770W        W23239  11.063  16.492   2.305 -0.1506  0.2632 -0.1851
 7771W        W23240  17.436   0.072   3.911 -0.2260 -0.1574 -0.0088
 7772W        W23241   1.963   7.528   4.328 -0.2491 -0.1261  0.1294
 7773W        W23242  13.762  10.590   3.469 -0.0654  0.1533 -0.0474
 7774W        W23243  11.776  10.416  11.265  0.0019 -0.1533 -0.2818
 7775W        W23244  15.510   1.303  13.047  0.0703  0.2276  0.0631
 7776W        W23245  17.307  10.203   0.072  0.0633  0.0411 -0.0512
 7777W        W23246   7.455  10.463  10.206 -0.0224 -0.0409 -0.1413
 7778W        W23247   7.298   9.496  15.672  0.0998 -0.1357 -0.1239
 7779W        W23248   4.020  14.948   0.421  0.1802  0.1239 -0.0535
 7780W        W23249   6.139  10.965   4.647  0.1539 -0.0339  0.2064
 7781W        W23250   3.977   0.844  13.804 -0.0206  0.0226  0.2161
 7782W        W23251   1.125  15.503  12.484  0.3216  0.1018  0.0779
 7783W        W23252   7.647  14.661  14.854  0.2296  0.0959  0.0112
 7784W        W23253  13.381   5.743   4.271  0.1701 -0.0239 -0.0130
 7785W        W23254   6.142  10.243  11.773 -0.1034  0.1958 -0.3047
 7786W        W23255  16.613   8.661   2.716 -0.1195  0.0227 -0.0567
 7787W        W23256  13.686   0.161  11.596  0.0826  0.0575  0.2900
 7788W        W23257   8.699  11.673   1.141 -0.1148 -0.0537 -0.0821
 7789W        W23258   6.317  15.250   0.684 -0.0792  0.1555 -0.0813
 7790W        W23259  14.981  12.259   0.955 -0.3592  0.0566  0.4836
 7791W        W23260  15.826  18.621   3.947 -0.2967  0.3303 -0.1133
 7792W        W23261  10.183   8.475  14.348 -0.0228 -0.1713 -0.1042
 7793W        W23262   1.007  16.595   1.869  0.1345 -0.3268 -0.2681
 7794W        W23263   9.651   4.579   2.698  0.1489 -0.0201  0.0506
 7795W        W23264   0.618  11.010   4.018 -0.0883 -0.3007  0.2295
 7796W        W23265   6.872  15.569   2.445  0.0362 -0.2781 -0.0330
 7797W        W23266   9.334  12.786  15.436  0.1674  0.1840 -0.0138
 7798W        W23267   5.348  13.312   0.471 -0.1603  0.0493 -0.1959
 7799W        W23268  11.873  18.266   2.457  0.0162  0.3457 -0.2075
 7800W        W23269  17.887  13.575   1.300  0.1023  0.2544 -0.1213
 7801W        W23270   9.633  16.404  14.918 -0.3157  0.0917 -0.3527
 7802W        W23271   2.797  16.043   3.608  0.0378  0.1620  0.1596
 7803W        W23272  18.672  10.596   1.131 -0.0932  0.0037  0.2183
 7804W        W23273   2.934  17.348   4.935 -0.2176  0.3312  0.1714
 7805W        W23274   8.426   8.865   1.387  0.1656 -0.2133  0.1080
 7806W        W23275   5.706   0.939  13.016  0.0991 -0.1715  0.1608
 7807W        W23276   3.261   3.788   5.461  0.2359 -0.0259 -0.0715
 7808W        W23277  12.564   4.115   1.003  0.0873  0.0906  0.2722
 7809W        W23278   1.355   0.074   4.560 -0.2336  0.0131  0.3501
 7810W        W23279   1.448   4.622   2.632 -0.2927 -0.0185  0.0466
 7811W        W23280  11.621   8.135   0.443 -0.0636 -0.0731  0.2646
 7812W        W23281  18.440  10.578  12.250  0.0109  0.1132  0.3508
 7813W        W23282  17.198   1.144   4.167 -0.2157 -0.0232 -0.1493
 7814W        W23283   9.888   7.990   4.343 -0.1404 -0.1839 -0.3190
 7815W        W23284  18.085  14.675  12.007 -0.0452 -0.3757  0.0260
 7816W        W23285  14.355   8.959   2.349 -0.1865 -0.0269 -0.1909
 7817W        W23286  10.573  13.665   3.523 -0.3015  0.2404  0.0974
 7818W        W23287  12.534   2.407  13.664 -0.0634 -0.1255  0.1596
 7819W        W23288   0.602   7.315  14.905  0.0216 -0.5034 -0.1248
 7820W        W23289   3.870  11.664   0.208  0.1217  0.1279 -0.0469
 7821W        W23290   4.909   1.625   0.916 -0.3898  0.2643 -0.0901
 7822W        W23291   7.509  16.001   3.798  0.0993  0.4725 -0.0496
 7823W        W23292   5.415   5.358   3.242  0.0194  0.0046  0.0031
 7824W        W23293  15.856   8.430  10.870  0.1566 -0.0087 -0.0846
 7825W        W23294   0.642   2.676  10.541  0.2711  0.0780  0.0202
 7826W        W23295   8.965   2.153   2.161  0.0598  0.3914 -0.3213
 7827W        W23296  16.162   7.883   3.344  0.2028 -0.3140 -0.1501
 7828W        W23297   9.393   5.371  10.926  0.0038 -0.0874 -0.4184
 7829W        W23298   7.737   2.589   2.481  0.0148  0.1737 -0.2535
 7830W        W23299   5.248  15.415  13.671  0.0939 -0.3342 -0.2860
 7831W        W23300   7.202   6.588   0.108 -0.0776 -0.0008  0.2637
 7832W        W23301   5.956  14.648  10.834 -0.1644 -0.0607 -0.1626
 7833W        W23302  17.397  13.528  15.371 -0.0600 -0.0347  0.0695
 7834W        W23303  17.724  14.050   1.371 -0.1168  0.1317  0.0633
 7835W        W23304   2.581   8.312  10.118 -0.0546  0.2431 -0.0071
 7836W        W23305   7.173  12.712  11.398 -0.2700 -0.2199 -0.0119
 7837W        W23306   2.836   3.347   4.885  0.0149 -0.0692 -0.0164
 7838W        W23307  10.237  10.448  13.096 -0.3032 -0.2410 -0.0983
 7839W        W23308  18.393   5.969   1.709  0.1180 -0.2421  0.1425
 7840W        W23309   0.091  10.243  13.839  0.1748 -0.1644  0.2356
 7841W        W23310  17.200  13.522  12.937  0.3550  0.0498  0.0356
 7842W        W23311   3.510   2.784   3.958 -0.0337  0.0457  0.1059
 7843W        W23312  16.571   8.808  10.387  0.2623  0.1789  0.2875
 7844W        W23313   6.507   7.172  12.139 -0.1025  0.1229  0.0410
 7845W        W23314   3.860   8.416  11.397 -0.2416 -0.1623 -0.0285
 7846W        W23315  15.428  17.863  14.091  0.2844 -0.4233  0.1503
 7847W        W23316   1.973   1.183  13.374  0.0349  0.2633  0.2412
 7848W        W23317   9.102  16.725  12.381 -0.4413  0.2535  0.2735
 7849W        W23318   3.075   2.274  10.834  0.0135  0.1505 -0.1464
 7850W        W23319  10.806   5.752  13.044 -0.1172  0.2003 -0.3020
 7851W        W23320   0.122  14.416  15.715  0.0361 -0.2550  0.1186
 7852W        W23321   0.780   7.359   1.184 -0.0916 -0.0128  0.0547
 7853W        W23322  16.614   6.690   4.539 -0.0985 -0.1761  0.1741
 7854W        W23323   1.832   3.658   0.446  0.0354  0.1118  0.1398
 7855W        W23324  11.781   6.751  14.255  0.0651 -0.0185  0.0489
 7856W        W23325  14.268   7.067  10.961  0.1335  0.0477 -0.0451
 7857W        W23326   8.041   2.714   2.855 -0.0641  0.1651 -0.2384
 7858W        W23327  16.364   2.483  13.642  0.1690  0.1678  0.0405
 7859W        W23328   9.404   8.975  11.882  0.0634  0.2850 -0.1465
 7860W        W23329  14.908   0.687  11.804 -0.0336 -0.0454  0.1841
 7861W        W23330  11.044   9.858   3.113  0.1249 -0.2293  0.0381
 7862W        W23331   7.391   9.815   2.738 -0.2439 -0.1018 -0.1030
 7863W        W23332   1.767   3.048   2.338 -0.0906 -0.0598  0.0624
 7864W        W23333  18.643  14.268  13.455  0.1365  0.0164  0.1642
 7865W        W23334   6.328  17.998   5.764 -0.2781  0.1707 -0.1137
 7866W        W23335  11.034  11.683   4.708  0.2596 -0.1393 -0.1177
 7867W        W23336  12.317   0.946  15.539  0.1346  0.0176 -0.1786
 7868W        W23337   6.700  14.573  14.817  0.3218  0.0016  0.1551
 7869W        W23338   4.605  15.756   0.832 -0.0217  0.0837  0.0541
 7870W        W23339   1.997  10.924   1.131 -0.2273 -0.0012  0.1391
 7871W        W23340   1.490   5.279  14.197 -0.0841 -0.2994  0.1211
 7872W        W23341  18.179   1.138  14.696 -0.0226  0.3547 -0.0164
 7873W        W23342   9.244  17.147  13.318 -0.0483 -0.0430  0.2854
 7874W        W23343   8.825  10.933   4.390 -0.3062 -0.0982  0.0443
 7875W        W23344   8.008   9.484  15.420 -0.2322 -0.2001  0.0456
 7876W        W23345   3.943   0.587   0.166 -0.2299 -0.1378  0.1773
 7877W        W23346   3.438   5.023  15.561 -0.0632 -0.4160  0.1262
 7878W        W23347   3.458  16.233  15.235 -0.3867  0.1864 -0.0999
 7879W        W23348   2.561   5.700   0.223 -0.3593  0.1446 -0.3685
 7880W        W23349  12.890   9.778   4.832  0.0508  0.0157  0.0689
 7881W        W23350  13.872  17.144   0.769 -0.1957 -0.1575  0.3346
 7882W        W23351  15.710  11.675   0.734  0.0243 -0.0037 -0.2910
 7883W        W23352  18.396   6.911   4.248 -0.2581 -0.0552  0.0621
 7884W        W23353  13.406  16.222  11.705  0.1157  0.2123 -0.1471
 7885W        W23354   1.181   9.152   5.068  0.0135  0.2536 -0.0043
 7886W        W23355   5.708   6.921   2.449 -0.2939 -0.1183 -0.1709
 7887W        W23356   8.588  14.531  14.599 -0.0338 -0.2280  0.0612
 7888W        W23357   3.319   4.429   3.863 -0.0474  0.2665 -0.2808
 7889W        W23358   2.792   2.071   3.059  0.1972  0.1427 -0.2794
 7890W        W23359  13.872   7.694  11.538  0.0627 -0.0753  0.3917
 7891W        W23360  17.937   5.538   4.080 -0.2928  0.1135  0.0352
 7892W        W23361  14.481   3.768   0.186  0.0667  0.1595  0.0906
 7893W        W23362   2.087  13.761  14.541  0.1397  0.1710 -0.0361
 7894W        W23363  10.116   2.318   4.221  0.0978  0.1523 -0.0008
 7895W        W23364  10.730  15.208   4.513  0.0010  0.0183 -0.0864
 7896W        W23365  13.836  10.567  15.242  0.0473  0.1298 -0.1171
 7897W        W23366   9.257   0.263  13.441 -0.4539 -0.2132 -0.0431
 7898W        W23367  13.315   2.534   3.822  0.0494 -0.1141  0.3485
 7899W        W23368  10.601  18.094   9.773 -0.3014  0.0023 -0.2005
 7900W        W23369   9.123  10.788   1.288  0.0628  0.0227 -0.1270
 7901W        W23370   2.153  18.023   2.887 -0.0262 -0.0581 -0.0044
 7902W        W23371  15.504   5.904  14.220 -0.0943 -0.0659 -0.4943
 7903W        W23372   7.726   1.968   3.343  0.0294  0.2528 -0.1783
 7904W        W23373   3.169   9.200   4.933  0.0772  0.0187 -0.2832
 7905W        W23374  12.606   1.801  12.908 -0.0010 -0.2586 -0.1092
 7906W        W23375   2.399  10.262  11.679 -0.1290 -0.4689 -0.2210
 7907W        W23376  18.043  16.328  15.395 -0.2401  0.0962  0.0548
 7908W        W23377  17.136   3.931   0.761  0.4012 -0.0300 -0.1113
 7909W        W23378  18.693   4.898   3.650  0.0244 -0.0846 -0.0973
 7910W        W23379   6.816  11.231   3.899 -0.0223 -0.6007 -0.1023
 7911W        W23380  13.605   6.968  15.157 -0.3558  0.2235  0.3607
 7912W        W23381  13.014  18.133  11.776 -0.0973  0.0777  0.1436
 7913W        W23382   0.511  14.596   5.000  0.2180 -0.1990 -0.0305
 7914W        W23383   0.206   4.196  14.265 -0.3046 -0.0816  0.2113
 7915W        W23384   6.512  15.007  15.158 -0.1486  0.4533  0.1249
 7916W        W23385  13.687   4.831   4.485  0.0840 -0.2619  0.3154
 7917W        W23386   6.802  17.263   5.475  0.0865 -0.1296 -0.2055
 7918W        W23387   8.162  17.397   5.271  0.1771 -0.2732 -0.2742
 7919W        W23388   5.238   4.765   1.787 -0.0155  0.0142  0.4132
 7920W        W23389   7.568  14.148   1.104  0.2032 -0.3756 -0.3420
 7921W        W23390   3.290  13.102   0.513 -0.0513  0.2996 -0.3010
 7922W        W23391   8.464   6.255   5.180 -0.2769  0.0432 -0.0539
 7923W        W23392   8.499   4.062  15.356  0.1469  0.1145  0.0283
 7924W        W23393   8.416   0.501  13.732  0.2219  0.5289 -0.2916
 7925W        W23394  17.409   3.994   2.377  0.0234  0.1847  0.1461
 7926W        W23395  12.255  14.731   4.895  0.1898 -0.0112 -0.3680
 7927W        W23396  18.041   2.572   2.550 -0.2710  0.0026  0.1445
 7928W        W23397   9.456   9.422  12.842 -0.1532  0.1917  0.0556
 7929W        W23398  13.473   0.667  10.785 -0.1392  0.1546 -0.0836
 7930W        W23399  10.085   9.992  11.037  0.2620 -0.2276  0.1038
 7931W        W23400   3.405  11.320  10.889  0.0145 -0.3539 -0.0594
 7932W        W23401  13.519  15.051   4.477 -0.1987  0.0932  0.1349
 7933W        W23402  11.083  15.048  11.739  0.2245 -0.1438  0.0122
 7934W        W23403  11.022   3.065  10.781  0.1418  0.2417 -0.1468
 7935W        W23404   9.718   9.941   4.920 -0.0561 -0.2519  0.0739
 7936W        W23405  15.376   1.540   5.574 -0.0504 -0.0064  0.0999
 7937W        W23406   4.255  13.406   4.336 -0.4111  0.0484 -0.1319
 7938W        W23407  18.327   8.864  14.611  0.3484 -0.0842  0.0962
 7939W        W23408   4.343  11.866   0.286  0.0685 -0.4066  0.0953
 7940W        W23409  17.690  18.341   3.830 -0.2141 -0.0026  0.1041
 7941W        W23410  17.847   9.707   4.763  0.1253  0.1476  0.1867
 7942W        W23411  10.420   7.980  11.633  0.0238 -0.0629  0.0872
 7943W        W23412  15.159  14.801  13.828 -0.0128 -0.2343  0.1886
 7944W        W23413  18.127   4.238   1.903 -0.1060 -0.1510  0.1367
 7945W        W23414   4.456   5.258   4.803 -0.0221  0.3726  0.1596
 7946W        W23415   3.267  10.155  12.192  0.1507  0.0852  0.2383
 7947W        W23416  14.166   8.695   0.024 -0.0749 -0.0504 -0.2906
 7948W        W23417  16.721  11.264  13.368  0.0583  0.3292 -0.2784
 7949W        W23418   7.980  18.574   5.809  0.1370 -0.2549 -0.1679
 7950W        W23419  11.109   6.991  14.659 -0.0639  0.0640  0.0752
 7951W        W23420   4.029   9.075   4.742  0.0258 -0.2566  0.1685
 7952W        W23421   9.957   6.295  12.786 -0.1243  0.1278  0.0318
 7953W        W23422   9.365   4.141  14.954 -0.1283 -0.2172 -0.1561
 7954W        W23423  17.452   1.113  14.392 -0.0945 -0.2405 -0.3333
 7955W        W23424  14.763   7.836   3.440  0.2071  0.1537 -0.1305
 7956W        W23425  16.314   6.277   1.766 -0.1171 -0.4048  0.0311
 7957W        W23426  16.668   7.356  11.210  0.0893  0.2786  0.2687
 7958W        W23427   5.406   0.341  11.503 -0.1467 -0.0389 -0.1482
 7959W        W23428  12.923  11.115   2.405  0.1881 -0.0063  0.3526
 7960W        W23429  15.200  12.305  15.349  0.2011 -0.2212 -0.1679
 7961W        W23430   2.195   9.427   0.963 -0.0163  0.1108 -0.2171
 7962W        W23431  12.876  13.744  14.610  0.1822  0.0149 -0.0393
 7963W        W23432  15.270  16.299   3.351  0.0331 -0.2315 -0.0203
 7964W        W23433   2.304   7.711   3.409 -0.0074 -0.0336  0.2125
 7965W        W23434   9.515   8.224  14.058  0.1801  0.0678 -0.1095
 7966W        W23435   3.954  18.480  14.018 -0.0142 -0.0571 -0.0345
 7967W        W23436  11.895   8.078  13.501 -0.0853 -0.0688  0.3076
 7968W        W23437   2.253   2.858   0.335  0.0219  0.1116 -0.0002
 7969W        W23438   2.715   8.508   5.297 -0.3090 -0.2430  0.1574
 7970W        W23439   3.500  14.878  11.698 -0.1381 -0.4456  0.3334
 7971W        W23440   2.269  17.800   4.080 -0.1842  0.0907  0.1225
 7972W        W23441   0.839   7.295  13.811 -0.0741  0.2313  0.0375
 7973W        W23442  17.910   8.020  12.613 -0.2218  0.0374  0.1015
 7974W        W23443   7.353   2.809  15.056  0.1355  0.2531 -0.0745
 7975W        W23444   8.669  13.021   5.148  0.0227  0.1302  0.1709
 7976W        W23445   8.378  17.913   2.395 -0.2346 -0.1717  0.0095
 7977W        W23446   6.620   3.241  11.550 -0.0785 -0.1037  0.1750
 7978W        W23447   6.176   8.101  11.163 -0.0371  0.2113 -0.3718
 7979W        W23448   5.082  15.840   0.948 -0.3310  0.1065 -0.0288
 7980W        W23449  16.572   0.511   1.531 -0.0204  0.4350  0.0074
 7981W        W23450   2.102   0.882  12.941 -0.1639 -0.1373 -0.0353
 7982W        W23451  14.902  15.019  11.741  0.3751  0.0346  0.0063
 7983W        W23452   4.163   3.346  15.009 -0.2405  0.3300 -0.1507
 7984W        W23453   9.010   8.711  11.756 -0.0917  0.1998 -0.0665
 7985W        W23454  18.554  12.572   5.542  0.1994  0.0273  0.1886
 7986W        W23455   3.403   6.112  14.052 -0.0377  0.0502 -0.0340
 7987W        W23456   9.459  14.590   3.952  0.0537 -0.2161  0.0988
 7988W        W23457  14.039   8.164   0.488 -0.0874  0.0785 -0.1123
 7989W        W23458  12.171   2.091  14.423  0.1123 -0.3514  0.3212
 7990W        W23459   3.440   1.182   3.836  0.0123  0.1782 -0.2522
 7991W        W23460  13.536   7.716   0.769  0.1674 -0.0625 -0.0991
 7992W        W23461   3.476   5.695   1.111  0.0869  0.2609 -0.1980
 7993W        W23462   7.726   1.299  13.169 -0.0644  0.0869 -0.1453
 7994W        W23463   7.290  12.989  11.792  0.0570 -0.1082 -0.2078
 7995W        W23464   7.319   2.547   3.860  0.0212 -0.1907 -0.0883
 7996W        W23465  16.147   5.338   3.298  0.0610 -0.2407  0.0374
 7997W        W23466   1.784   8.099   3.757 -0.0969 -0.0212  0.0902
 7998W        W23467   5.997   3.938   0.097  0.1123 -0.1267  0.2756
 7999W        W23468   1.868   3.595   5.081  0.1526  0.0957 -0.1891
 8000W        W23469   3.525  18.123  10.771 -0.2597 -0.1174  0.1786
 8001W        W23470   2.951   0.798  12.416 -0.1380  0.1947 -0.0717
 8002W        W23471  16.249   9.842  14.254 -0.0869 -0.1430 -0.0428
 8003W        W23472   6.523  17.800   4.279  0.2039  0.0543  0.3026
 8004W        W23473  16.346  11.286   5.821  0.1269 -0.0894  0.0824
 8005W        W23474   6.723   2.114   0.087 -0.1657  0.0037  0.2795
 8006W        W23475  17.894   2.094   2.742 -0.2133 -0.1635 -0.1346
 8007W        W23476  10.424  10.269  13.539 -0.1309 -0.0439  0.1441
 8008W        W23477  13.410   7.168  12.098  0.0997  0.0969  0.1028
 8009W        W23478   5.060  10.421   2.886 -0.1806 -0.2039  0.0834
 8010W        W23479   1.210  11.164  13.679  0.3314  0.1381  0.1940
 8011W        W23480  14.644  10.735   1.009 -0.1478 -0.2364 -0.2540
 8012W        W23481  17.012   7.286   0.882  0.0119 -0.2691 -0.0752
 8013W        W23482   7.016  11.970   1.049  0.0297 -0.0478 -0.0985
 8014W        W23483   5.100   0.416  12.458  0.2903  0.1827  0.0197
 8015W        W23484   1.188  17.510  10.332  0.2699 -0.0022 -0.0098
 8016W        W23485   2.535  14.442  12.344  0.1090  0.0944  0.0595
 8017W        W23486   6.935  17.085   3.269 -0.3549 -0.2125 -0.0557
 8018W        W23487  13.311   4.665  11.801 -0.1743 -0.1588 -0.0460
 8019W        W23488   3.301   7.180   1.081  0.1675  0.2883  0.1690
 8020W        W23489  18.156   8.715  12.319  0.1925 -0.3324  0.0369
 8021W        W23490   5.190  10.566   5.455 -0.0842 -0.3927  0.2342
 8022W        W23491   0.153  12.186   0.512 -0.0107 -0.0152  0.1186
 8023W        W23492  11.809  13.007   3.834 -0.3191  0.1192  0.4347
 8024W        W23493   2.947   8.642  14.450 -0.1386 -0.1238 -0.2109
 8025W        W23494  11.577   3.502  12.374 -0.2116  0.3327  0.0593
 8026W        W23495   5.210   8.992   4.943 -0.0383 -0.0377  0.1389
 8027W        W23496  18.439  11.524   2.976  0.1900  0.0168  0.1071
 8028W        W23497   1.022   9.800  11.915  0.0907  0.0174 -0.0964
 8029W        W23498   8.760   6.969  11.233  0.2216  0.2346  0.0976
 8030W        W23499  10.485   4.075   2.130 -0.2464 -0.0317  0.1176
 8031W        W23500   8.049   9.063   2.550 -0.0277 -0.1978 -0.2958
 8032W        W23501  17.388   4.843   4.792 -0.1844 -0.3014  0.1459
 8033W        W23502   1.622   3.537  11.477 -0.4789  0.0243 -0.2028
 8034W        W23503   1.718  17.428   2.371  0.3188  0.1034 -0.0806
 8035W        W23504  17.393  12.500   4.048  0.1425 -0.2974 -0.1567
 8036W        W23505  15.579   6.768  13.827 -0.1167  0.2568 -0.0683
 8037W        W23506  14.600   9.721  11.417 -0.2284 -0.2517 -0.0875
 8038W        W23507   8.438  13.602  12.163 -0.1334 -0.1179 -0.2087
 8039W        W23508   7.081   1.776   0.081 -0.0872 -0.0503  0.1582
 8040W        W23509   5.443   5.472   0.089 -0.0394  0.1105  0.1765
 8041W        W23510   2.901   0.064   1.087 -0.0497 -0.0071  0.0690
 8042W        W23511  14.018  15.551  11.850 -0.2158 -0.2287 -0.2422
 8043W        W23512  15.047   9.461  11.171 -0.2165 -0.1570 -0.1857
 8044W        W23513  13.053  18.604  14.960  0.2456  0.1505 -0.3387
 8045W        W23514   8.281   9.291   3.109 -0.0115  0.2871 -0.3325
 8046W        W23515  17.128   8.681  11.353  0.2214 -0.1037 -0.2299
 8047W        W23516  14.593  14.326  13.691  0.0545 -0.0556 -0.2102
 8048W        W23517   6.384   7.797   4.338  0.4057  0.2431 -0.0234
 8049W        W23518  18.335  14.016  12.587  0.1747 -0.2644  0.0221
 8050W        W23519   8.911   2.408  11.367 -0.2391  0.3340  0.1775
 8051W        W23520  15.610  12.268  15.052  0.2869  0.0636  0.1816
 8052W        W23521  14.928  15.984  13.421  0.2533 -0.4052 -0.1625
 8053W        W23522  16.217   1.272  14.466 -0.0762 -0.1880 -0.1132
 8054W        W23523  11.209  15.651   3.881 -0.0137  0.1781 -0.0819
 8055W        W23524   2.032  12.240   2.797  0.1156  0.1188  0.0350
 8056W        W23525  12.953  13.799   1.572 -0.1535  0.1338 -0.0930
 8057W        W23526   5.179   8.137   2.302 -0.2531 -0.0416  0.4406
 8058W        W23527   1.727  13.177   0.132  0.0993 -0.2017 -0.0429
 8059W        W23528   7.501   7.262  13.776 -0.0163 -0.0006  0.1368
 8060W        W23529   4.206   0.326  14.050 -0.0148 -0.0597  0.3367
 8061W        W23530  16.380  14.836   0.984  0.0754  0.1823  0.1726
 8062W        W23531   2.429   7.287   5.560 -0.0923  0.0102 -0.2288
 8063W        W23532  13.429  12.449   4.773  0.0036 -0.0837 -0.1136
 8064W        W23533  15.741   6.285  15.686 -0.0607 -0.1439 -0.0477
 8065W        W23534   2.197  16.131  11.278 -0.2705  0.2910 -0.1256
 8066W        W23535   8.837  18.134   3.440 -0.0105 -0.2022  0.1136
 8067W        W23536  10.536   9.851  15.411 -0.1118  0.2677 -0.0317
 8068W        W23537  14.212  15.160  14.718 -0.0060  0.1612 -0.0585
 8069W        W23538   4.427   7.973  12.489 -0.0091  0.0315  0.0360
 8070W        W23539   4.022   5.351  15.024  0.1179  0.1149  0.0674
 8071W        W23540   4.358   2.726   9.725 -0.0464  0.0081  0.1079
 8072W        W23541   6.456  10.381   3.039 -0.1889  0.3583 -0.0523
 8073W        W23542   4.441   3.714  14.839 -0.0203  0.0847 -0.0651
 8074W        W23543   2.080  13.164  11.319  0.3789  0.2167  0.0749
 8075W        W23544  12.386  10.155   4.333 -0.1139  0.1675 -0.1012
 8076W        W23545   8.849   9.354   1.976  0.0375  0.1523  0.0832
 8077W        W23546  14.405   5.997  13.760  0.2346 -0.0941 -0.1192
 8078W        W23547   7.767  16.000  14.297  0.2577 -0.0264  0.1469
 8079W        W23548   3.452  17.045   4.397  0.1073 -0.0722  0.2782
 8080W        W23549   1.601  18.242   3.551 -0.1848  0.1536 -0.1637
 8081W        W23550   4.228   1.605   0.943  0.1302  0.2347 -0.0184
 8082W        W23551  11.284  11.104  12.252 -0.1907  0.0098  0.0804
 8083W        W23552  14.462   5.984   0.385 -0.0179  0.1798  0.3741
 8084W        W23553   9.472   8.896   0.323  0.0315 -0.2160 -0.1388
 8085W        W23554  16.547  15.504   3.681  0.2824 -0.0833  0.2932
 8086W        W23555   8.675  15.669  12.343 -0.0776  0.1005 -0.2260
 8087W        W23556   6.191  14.628   4.399  0.3683  0.1821  0.2092
 8088W        W23557  13.335   7.441   4.222 -0.1168  0.0924 -0.2172
 8089W        W23558   0.390  11.340  14.837  0.3160 -0.0740 -0.1068
 8090W        W23559  11.624   1.659  14.641  0.2766  0.2534 -0.5316
 8091W        W23560  15.781   8.538   0.963  0.2469  0.3050  0.0334
 8092W        W23561   4.344   3.787  11.495  0.0781  0.1351  0.0260
 8093W        W23562  15.265  12.719  12.428  0.2928 -0.1139 -0.2572
 8094W        W23563  12.859  17.793   1.766  0.1819 -0.3982  0.0530
 8095W        W23564  13.437   0.019  14.655 -0.1614 -0.1037 -0.0378
 8096W        W23565   7.700   0.218  11.473  0.0988 -0.1520 -0.1757
 8097W        W23566   6.265   1.037  11.275 -0.2978  0.0214 -0.4597
 8098W        W23567   3.130   4.580   4.367  0.2678  0.1104 -0.2534
 8099W        W23568  15.377   3.855  14.917 -0.1457 -0.0139 -0.0529
 8100W        W23569  13.358  16.174   2.793  0.3006 -0.1052  0.2017
 8101W        W23570  11.684  15.105  11.651 -0.2650  0.3461  0.2433
 8102W        W23571   1.235  13.443   0.338  0.2077 -0.1540  0.0950
 8103W        W23572  13.532  17.032  13.753  0.0362  0.1194  0.0075
 8104W        W23573   5.866   3.284  15.194 -0.0256 -0.0462  0.0831
 8105W        W23574  16.079  18.073   0.469 -0.1207  0.0565  0.0693
 8106W        W23575   7.848  17.993   0.648 -0.0732 -0.1747  0.1464
 8107W        W23576  14.323  14.821   2.595  0.0272  0.1342 -0.1352
 8108W        W23577  13.038   1.384  13.778 -0.2289 -0.0542 -0.1811
 8109W        W23578  16.455   6.511  14.011  0.1721  0.2484  0.3554
 8110W        W23579  15.658   2.950  15.657  0.2762 -0.2664  0.0274
 8111W        W23580  14.949   4.235   4.080  0.0766 -0.0830 -0.3111
 8112W        W23581   9.589   8.454  11.050  0.0584 -0.2646 -0.3456
 8113W        W23582   5.562  18.683  13.301 -0.0080 -0.0817  0.1319
 8114W        W23583  11.763  15.854   2.627  0.0483 -0.3057  0.1588
 8115W        W23584  14.608  15.827  14.636  0.0519 -0.2529 -0.0943
 8116W        W23585   2.519   5.134   4.714  0.0730  0.2213 -0.1525
 8117W        W23586   4.203   9.393  12.780  0.1243  0.4264  0.0646
 8118W        W23587   2.140   1.696  13.369  0.0603  0.0107 -0.1572
 8119W        W23588  13.513  13.182  14.060 -0.1237 -0.0510  0.4144
 8120W        W23589  13.558  16.736  10.568  0.1837  0.0308 -0.1120
 8121W        W23590  15.260   8.987  10.608 -0.0890  0.0314 -0.1545
 8122W        W23591   7.252   4.722  11.972 -0.1267  0.0842 -0.0388
 8123W        W23592   8.340  14.445  15.480 -0.0153  0.2478 -0.0142
 8124W        W23593  15.013   0.015   4.590 -0.0860  0.0436  0.2965
 8125W        W23594   6.384  17.593   1.814 -0.0194 -0.0993 -0.1721
 8126W        W23595  10.069  11.507  15.111 -0.2012 -0.2084 -0.0242
 8127W        W23596  18.380   6.691  11.989  0.1030  0.1270  0.2310
 8128W        W23597   8.866  15.284  12.885  0.1198  0.0124 -0.0658
 8129W        W23598   6.000   6.401  15.440  0.2849 -0.1350  0.0625
 8130W        W23599   3.895  10.380  12.071 -0.3681 -0.2477 -0.1618
 8131W        W23600  15.481   2.872  13.767 -0.2674 -0.0496 -0.2192
 8132W        W23601  10.827   8.016   1.530 -0.1168  0.0359 -0.0690
 8133W        W23602   1.335  14.518  13.936  0.0111  0.2473 -0.1914
 8134W        W23603  18.227   2.371   4.650  0.0661  0.2406  0.1567
 8135W        W23604   6.710  13.797  11.306 -0.0507 -0.2116  0.4538
 8136W        W23605   5.857   1.696   3.060  0.0051  0.0429 -0.2104
 8137W        W23606   0.566   7.664   2.306  0.1059 -0.5494 -0.0204
 8138W        W23607   3.332  18.344   3.568  0.5160  0.2319 -0.2535
 8139W        W23608   3.794   0.001  12.702 -0.0190  0.0974  0.0842
 8140W        W23609  18.458  10.227   4.386  0.0052  0.0833 -0.3072
 8141W        W23610  12.515   4.317   1.534 -0.1746  0.0982 -0.1331
 8142W        W23611   0.631   1.437   4.518 -0.0167  0.1871  0.2923
 8143W        W23612  14.206  10.487  15.574  0.0210  0.2646 -0.0325
 8144W        W23613   3.638  10.050   4.113  0.0102  0.1735  0.0546
 8145W        W23614  15.618  15.039  15.541  0.1922  0.3609  0.1133
 8146W        W23615   0.666  10.430  11.649  0.0048  0.1338  0.1087
 8147W        W23616   7.080   4.734   2.109 -0.0389  0.0652 -0.0320
 8148W        W23617  12.288  18.622  15.551 -0.2532  0.0457 -0.1620
 8149W        W23618  13.711   7.493  15.387 -0.0889  0.2434 -0.0785
 8150W        W23619  15.705   8.782   3.068  0.0902  0.2946  0.0205
 8151W        W23620   0.114  16.779  10.693 -0.1202  0.0216 -0.2224
 8152W        W23621   2.778  10.356  11.424  0.0005  0.1602 -0.0596
 8153W        W23622   9.990   7.597  14.743  0.1137 -0.1829 -0.1606
 8154W        W23623   1.613  14.502  12.220  0.3576  0.2830 -0.0204
 8155W        W23624   4.840   0.265   1.043 -0.1267  0.0266 -0.2440
 8156W        W23625  14.095  13.141   2.300 -0.1744 -0.1389  0.0391
 8157W        W23626  18.415   2.739  15.227 -0.1457 -0.2327 -0.2479
 8158W        W23627   2.074  16.027   1.421  0.4245 -0.0849  0.4561
 8159W        W23628   9.253   8.105   0.261 -0.2049  0.1154 -0.1282
 8160W        W23629  15.687   0.767  14.765  0.2686  0.1354 -0.1765
 8161W        W23630  15.365  14.942  14.312  0.0753 -0.1520 -0.1680
 8162W        W23631   6.662  17.708  13.945  0.2060  0.2450  0.0956
 8163W        W23632   5.790  13.706  11.578 -0.4103 -0.0615  0.0572
 8164W        W23633  15.448  17.596   2.082 -0.0195 -0.3864 -0.2769
 8165W        W23634  16.550  12.668   4.736  0.2601 -0.2199  0.2111
 8166W        W23635   0.448  15.238  11.067  0.2533  0.3061 -0.0324
 8167W        W23636  15.475  15.172   4.922  0.0603  0.1376  0.0092
 8168W        W23637   0.208  10.377  12.382 -0.3554  0.2564  0.1718
 8169W        W23638   1.639  16.874   4.546  0.1801  0.0605 -0.2793
 8170W        W23639   6.783  14.011   3.135  0.0028  0.2625  0.0749
 8171W        W23640   7.333  13.263   5.457  0.1531 -0.3199 -0.0681
 8172W        W23641   4.565   1.507   2.803  0.2374  0.2071  0.5546
 8173W        W23642   2.966   3.629  12.393 -0.0307 -0.3591  0.0425
 8174W        W23643   2.513  10.679  15.530  0.2445  0.2536  0.0554
 8175W        W23644   5.049   1.613  10.811 -0.2563  0.0267 -0.0834
 8176W        W23645  15.271  17.337   4.268  0.3590  0.2078  0.0551
 8177W        W23646  14.393  14.954   4.458  0.3075  0.0616  0.2071
 8178W        W23647  15.426  12.355   2.934 -0.0929 -0.1318  0.2389
 8179W        W23648   8.119  10.440  12.868 -0.0144 -0.0920 -0.0978
 8180W        W23649   6.055  13.667  15.085 -0.1132  0.0691 -0.0136
 8181W        W23650   7.103   4.575   3.402  0.2372  0.3324 -0.2047
 8182W        W23651   7.595   7.875  15.451  0.0770 -0.2333  0.0791
 8183W        W23652  13.155   3.210   3.250  0.0768  0.0699  0.1254
 8184W        W23653  17.518  11.107  11.306 -0.1025 -0.0672 -0.3998
 8185W        W23654   3.781   7.987  11.210  0.2863 -0.0508  0.3703
 8186W        W23655   1.399   3.109  15.561  0.0859  0.0677  0.1133
 8187W        W23656   3.158  11.993   1.728 -0.0483  0.0447  0.0033
 8188W        W23657  16.411  17.534   1.996  0.1425  0.0902  0.1146
 8189W        W23658   8.651  12.402  10.385 -0.0543  0.1398  0.0345
 8190W        W23659  16.934  17.216   1.010 -0.1888 -0.0216  0.3831
 8191W        W23660  14.096  14.241  11.694 -0.2746  0.0280  0.0906
 8192W        W23661   5.048  16.547  12.075  0.1866  0.0656 -0.1028
 8193W        W23662   2.908  18.577   0.614  0.2252 -0.1994 -0.3229
 8194W        W23663  15.116  10.605   1.174  0.1357  0.1080  0.1498
 8195W        W23664  12.625   5.853  15.527 -0.3105  0.0556  0.0004
 8196W        W23665  11.839   8.405  11.380  0.1230  0.1081  0.0104
 8197W        W23666   9.197  18.676   2.926 -0.1538 -0.3381 -0.2233
 8198W        W23667  13.647  15.307  13.234 -0.0654 -0.4063  0.0439
 8199W        W23668   4.447   7.988   0.722 -0.3023 -0.1191 -0.0667
 8200W        W23669   8.293   6.607   4.791 -0.3482  0.2576  0.1425
 8201W        W23670   4.025  18.117   4.774 -0.0514  0.1621 -0.1680
 8202W        W23671   5.108   3.033   2.946 -0.1580  0.2997  0.4739
 8203W        W23672   3.084   6.801   0.692  0.1109 -0.1664 -0.0802
 8204W        W23673  16.493   4.072   3.229  0.2162  0.2781 -0.1613
 8205W        W23674  14.410  16.158   4.739  0.4178  0.2404 -0.0308
 8206W        W23675   2.698   9.244   1.045 -0.0638  0.1272 -0.1991
 8207W        W23676   8.910   9.246  11.716 -0.1374 -0.1708 -0.2553
 8208W        W23677   5.190  14.054   2.473 -0.0637  0.2263  0.2912
 8209W        W23678   5.238  10.224   3.751 -0.0274 -0.0410  0.2236
 8210W        W23679   2.315  17.466   1.649 -0.0107 -0.0739 -0.1609
 8211W        W23680  11.587   4.992   2.666 -0.0782 -0.1724  0.3485
 8212W        W23681   5.084   3.531  14.927  0.1962 -0.1356 -0.1102
 8213W        W23682   4.758  10.542   3.811 -0.0038 -0.0153  0.0730
 8214W        W23683  10.296   2.988   1.281 -0.0647 -0.0840 -0.0292
 8215W        W23684  16.886   2.368  13.881 -0.3328  0.2277 -0.1933
 8216W        W23685   6.876   0.048   4.916  0.1712  0.2412 -0.1469
 8217W        W23686   1.098  14.385   4.850  0.2009 -0.1418 -0.0697
 8218W        W23687   1.649  11.099   3.863 -0.0064  0.2974  0.2378
 8219W        W23688   9.963  17.814   3.549 -0.1550  0.0121 -0.0646
 8220W        W23689   0.883  18.400   4.840 -0.1578 -0.3203  0.0601
 8221W        W23690   5.640  15.892   5.484 -0.3676  0.1991  0.4145
 8222W        W23691  11.129   2.195  14.273 -0.0733 -0.0161  0.2131
 8223W        W23692  11.655   5.235  10.893  0.0135 -0.2082  0.2864
 8224W        W23693  18.567  14.626   2.447 -0.0774 -0.3776 -0.0675
 8225W        W23694  14.906   1.855   9.659 -0.0543 -0.3546  0.2923
 8226W        W23695  14.052   2.993   0.581 -0.1054 -0.3265 -0.1839
 8227W        W23696   9.109  17.018   3.262  0.2289 -0.0158  0.1392
 8228W        W23697   2.852   8.961  15.497  0.1095  0.0343  0.0082
 8229W        W23698   6.160  10.110   2.134 -0.0630 -0.2254 -0.1121
 8230W        W23699   7.399  17.308  11.692  0.0929 -0.2925  0.0627
 8231W        W23700  10.335  11.052   1.131 -0.1626 -0.2450 -0.0967
 8232W        W23701   9.631  17.571  13.452 -0.0455 -0.0204  0.0017
 8233W        W23702   4.622  13.927   4.490  0.1917 -0.1645 -0.1895
 8234W        W23703  17.195   8.180  14.813 -0.3013  0.1260  0.0243
 8235W        W23704  12.420  15.199  14.713  0.0047  0.0150  0.1728
 8236W        W23705   5.177  13.229  14.023 -0.3222 -0.1559  0.0734
 8237W        W23706   5.720  10.281  15.311  0.0891 -0.3221 -0.0671
 8238W        W23707   7.984  18.199  14.920  0.1282 -0.3003  0.1548
 8239W        W23708  15.173  13.971   5.060 -0.2717  0.1773  0.0590
 8240W        W23709  13.857   4.652   0.388  0.2770 -0.0740 -0.2538
 8241W        W23710  14.568   2.789  13.656  0.2640  0.0783  0.0736
 8242W        W23711  16.828  15.453   4.142 -0.0404  0.0756  0.1894
 8243W        W23712  12.298  13.892   0.260  0.0820  0.0391 -0.1833
 8244W        W23713  18.162   4.129  14.928 -0.2275 -0.0817 -0.1410
 8245W        W23714  12.224   8.380   1.174 -0.0929 -0.0688  0.0223
 8246W        W23715  13.480   0.575   1.706  0.0048  0.1552  0.3786
 8247W        W23716   4.023   0.877  14.600 -0.0161  0.1431  0.1467
 8248W        W23717   1.536  10.842  13.495  0.0117  0.2070 -0.1113
 8249W        W23718  12.497  14.572  12.093 -0.3644  0.0291  0.0964
 8250W        W23719  15.738  12.565   4.569  0.1618  0.0549 -0.0466
 8251W        W23720  15.452  11.964  15.596  0.1155  0.2435  0.0400
 8252W        W23721   4.037  13.646  12.202  0.2787 -0.0859  0.2449
 8253W        W23722  15.291   4.675   1.739 -0.0535  0.0469 -0.0457
 8254W        W23723  10.145  14.340  15.511 -0.0250  0.0290  0.2432
 8255W        W23724   1.145  18.135  14.438 -0.0469 -0.0370  0.0730
 8256W        W23725   7.654   5.068   4.870  0.0501 -0.0575  0.0241
 8257W        W23726  11.495   1.225  12.270 -0.6159  0.0061 -0.2303
 8258W        W23727  17.575   3.092   1.479  0.0084  0.0761 -0.0785
 8259W        W23728   4.510  14.202   4.930 -0.0119 -0.1343 -0.0783
 8260W        W23729  17.596   6.597   4.981 -0.0637 -0.0199  0.2541
 8261W        W23730  15.307  14.953   3.504 -0.1500  0.0541  0.4055
 8262W        W23731   8.973  15.188  14.462  0.0176 -0.0944 -0.1092
 8263W        W23732   6.354  11.006   1.155  0.0282 -0.0894  0.0395
 8264W        W23733  11.644  12.018  14.801  0.1031 -0.0530  0.0580
 8265W        W23734   3.543  12.784   5.062  0.1322  0.0768  0.0159
 8266W        W23735  13.722   8.105  15.388 -0.0998  0.1246 -0.1632
 8267W        W23736   6.591  10.125  11.658 -0.0479  0.1783 -0.2200
 8268W        W23737  16.952  10.014   4.826  0.0910  0.0520  0.0958
 8269W        W23738   9.214   6.537   6.162  0.0030  0.0918  0.1190
 8270W        W23739   4.673  13.116   2.499  0.1846 -0.0428 -0.2381
 8271W        W23740   4.889  10.710  11.912  0.1803  0.1860 -0.1181
 8272W        W23741  11.869   5.263  14.308  0.0210  0.0010  0.0208
 8273W        W23742   9.838  12.371   4.956 -0.2123 -0.0885  0.4317
 8274W        W23743  14.027  17.875  13.672 -0.1529 -0.2551  0.1713
 8275W        W23744   7.491   6.434  12.547 -0.1231 -0.2853  0.2350
 8276W        W23745  16.940  14.180  14.960  0.3447 -0.1674 -0.0435
 8277W        W23746  17.071   5.250  13.175  0.2296  0.4797 -0.0406
 8278W        W23747   2.349  15.454   2.283  0.3079 -0.3560  0.1168
 8279W        W23748   8.041  17.939  14.271  0.1737 -0.2351 -0.0482
 8280W        W23749  14.450  15.907  10.960  0.2840 -0.0689  0.0465
 8281W        W23750   1.749   5.395   0.312 -0.0592 -0.0073 -0.0198
 8282W        W23751  17.166   9.156   2.062 -0.2346  0.0673 -0.0689
 8283W        W23752   9.311  18.506   3.456  0.0146  0.0122  0.1072
 8284W        W23753   6.909  12.983  15.488  0.3027 -0.0323 -0.0554
 8285W        W23754  12.251   2.644  12.913 -0.2268 -0.1182 -0.1786
 8286W        W23755  16.881   6.725  13.752 -0.1957  0.3087  0.1358
 8287W        W23756   0.069   9.317  10.270 -0.1407  0.0360  0.0446
 8288W        W23757  10.010  12.453  15.252  0.0023  0.0283  0.3444
 8289W        W23758   7.818   0.326   3.336 -0.0450  0.1083  0.3022
 8290W        W23759  13.777  17.969   3.608  0.0310 -0.1161  0.1658
 8291W        W23760   7.066   1.886   3.431 -0.4106 -0.1673  0.2005
 8292W        W23761  17.544  13.628  10.749  0.1785 -0.1777 -0.0086
 8293W        W23762  13.707  15.240  14.450 -0.1087 -0.3526 -0.1853
 8294W        W23763   9.053  13.689  10.833 -0.1706  0.0492  0.1228
 8295W        W23764  13.191  12.571  13.597 -0.0340  0.1637  0.0410
 8296W        W23765   8.788  13.271   3.937 -0.0234  0.1214 -0.3042
 8297W        W23766   9.874  12.515   5.453  0.3273  0.0396 -0.0547
 8298W        W23767  18.489   7.926  15.760  0.2053  0.2898  0.0580
 8299W        W23768   0.558  17.897   0.103 -0.1269  0.0497 -0.2947
 8300W        W23769   5.187  16.703   0.772 -0.0928  0.1937 -0.2670
 8301W        W23770  14.803   4.387   2.449  0.1848  0.2713  0.0206
 8302W        W23771   4.858  17.445  11.815 -0.2647 -0.0441  0.1950
 8303W        W23772  15.293   3.034  15.017  0.2543 -0.0068 -0.1960
 8304W        W23773   5.956  14.033   3.631 -0.2657 -0.4881 -0.0727
 8305W        W23774  13.272   3.187  14.018  0.2890  0.1087  0.0386
 8306W        W23775   4.216  15.667   2.947  0.0695 -0.0231  0.1112
 8307W        W23776  14.656  10.195  12.253 -0.0324  0.1199 -0.1579
 8308W        W23777   9.455   1.169   3.276  0.2929  0.1463 -0.2143
 8309W        W23778   6.823   3.485   2.432  0.0810 -0.0575  0.0537
 8310W        W23779   4.729  11.505  13.241  0.0987  0.2229 -0.2291
 8311W        W23780   4.273  12.367   0.384  0.0347 -0.1436  0.0806
 8312W        W23781   9.782   8.427   4.521  0.0485  0.0196  0.0405
 8313W        W23782   9.617   2.847   4.886  0.0428  0.0311  0.0377
 8314W        W23783  16.569   0.215  13.310  0.2091 -0.3277  0.0551
 8315W        W23784   5.573   8.991  14.858  0.0579 -0.0266  0.0339
 8316W        W23785  14.013  18.479  12.843 -0.1908 -0.0244 -0.0645
 8317W        W23786   3.163   6.219  14.747  0.2833 -0.2482 -0.0056
 8318W        W23787  17.711  16.158   4.127 -0.2120 -0.2134  0.0451
 8319W        W23788   7.501  13.269  13.122  0.0782 -0.0076  0.0722
 8320W        W23789  10.096   1.877  14.920  0.0536 -0.1535  0.1001
 8321W        W23790  15.258   6.735   3.121  0.2185  0.1226  0.2418
 8322W        W23791   2.940  10.433  15.589 -0.3186 -0.0116 -0.0713
 8323W        W23792  11.008  15.285   1.744 -0.0545 -0.3897  0.0724
 8324W        W23793  18.516  15.908   1.547  0.0540  0.1913  0.1092
 8325W        W23794  18.114  11.421  12.530 -0.2109  0.1623  0.2083
 8326W        W23795   8.962   5.688  14.984  0.4605  0.2802  0.1597
 8327W        W23796  11.832  13.908  12.623  0.0793 -0.0395  0.1262
 8328W        W23797   1.010   5.813   0.857 -0.0138 -0.1512  0.2782
 8329W        W23798   2.770   1.162  12.111 -0.0787  0.0976  0.4516
 8330W        W23799  14.886  13.515   4.026 -0.2564  0.3296  0.1180
 8331W        W23800   2.426   5.700  14.580  0.1094  0.1258  0.0772
 8332W        W23801   5.727  14.969   3.960  0.2425 -0.1371  0.0723
 8333W        W23802  13.677   8.140   1.065  0.1088  0.1500  0.0589
 8334W        W23803  18.458  16.749  14.306 -0.1646 -0.3042 -0.1451
 8335W        W23804   3.899  16.266   3.272  0.0797  0.2171  0.0286
 8336W        W23805   2.939  12.853   2.637  0.1206 -0.3532 -0.1060
 8337W        W23806   9.909   9.874  10.087 -0.1363 -0.2586 -0.4043
 8338W        W23807   5.642  11.169   0.618 -0.1396 -0.1081  0.2043
 8339W        W23808  18.562  17.964  14.821 -0.0333 -0.2687 -0.5359
 8340W        W23809  17.953   8.122  13.542  0.1501  0.2487  0.1572
 8341W        W23810   3.146   7.281   1.529 -0.1867 -0.0684 -0.0104
 8342W        W23811   2.553  14.517  13.974 -0.4140 -0.3711 -0.2516
 8343W        W23812   2.301   7.968   6.428 -0.0628 -0.0013 -0.3705
 8344W        W23813   8.859   2.849   0.488  0.2603  0.1403  0.1676
 8345W        W23814   4.789  15.302  13.863  0.2299 -0.3257  0.2335
 8346W        W23815  10.293  13.836  14.786  0.3412 -0.0294 -0.1053
 8347W        W23816  18.669   3.446   2.265  0.0115 -0.0840  0.0574
 8348W        W23817  11.738   1.342  11.281 -0.1634 -0.0972  0.1478
 8349W        W23818  16.970   0.843   1.349 -0.4186 -0.0331  0.0377
 8350W        W23819   6.311  13.681   5.909 -0.3271  0.4117  0.2758
 8351W        W23820   5.747   2.066  14.562 -0.1698 -0.1219 -0.0806
 8352W        W23821   9.579  12.312   1.221 -0.0646 -0.3913 -0.0455
 8353W        W23822  10.664   5.791   9.893  0.2024 -0.0972  0.1024
 8354W        W23823  14.024   5.018   3.848  0.1121 -0.0553  0.0403
 8355W        W23824   0.821   5.959   4.215 -0.3386 -0.1621  0.3267
 8356W        W23825  14.315  14.890  15.193  0.0976 -0.2386  0.0278
 8357W        W23826  15.592   2.685  12.445  0.2024  0.4242 -0.3912
 8358W        W23827  18.320  17.955  10.054  0.0758 -0.3332  0.1680
 8359W        W23828  15.371  11.966  12.902 -0.1000  0.3017  0.2342
 8360W        W23829  11.066  10.363  12.833  0.0859  0.1272  0.1983
 8361W        W23830   0.348  17.270  11.590  0.0609  0.0099 -0.4528
 8362W        W23831   3.923  13.060   0.414  0.1229  0.0922 -0.1427
 8363W        W23832   4.413  10.691   1.092 -0.1053 -0.0614 -0.1818
 8364W        W23833  10.961   3.770  11.704  0.0469 -0.2176  0.2581
 8365W        W23834  17.473  13.298  14.134  0.2611 -0.0045  0.3157
 8366W        W23835  14.951   6.615   0.998 -0.0500  0.0323  0.0740
 8367W        W23836  15.486  17.408  13.430 -0.0025  0.0654  0.1005
 8368W        W23837  10.294   6.766   2.311 -0.4351 -0.1690 -0.1522
 8369W        W23838  10.285   9.865   5.019 -0.2015 -0.1845  0.5036
 8370W        W23839  11.694   2.366   5.208  0.1711 -0.3416 -0.0269
 8371W        W23840   9.321  13.659   0.487 -0.2098  0.0513 -0.1155
 8372W        W23841   9.725   4.777  12.284  0.0033 -0.1149 -0.1470
 8373W        W23842  12.855  11.732  12.008 -0.0032 -0.2509 -0.2741
 8374W        W23843  14.448  16.720   1.934 -0.2729 -0.1251  0.1780
 8375W        W23844   4.671  18.218  15.713  0.0240  0.0974 -0.0302
 8376W        W23845  17.971   1.294  10.803  0.1481  0.1332 -0.2608
 8377W        W23846   7.270  10.690   2.794 -0.2136 -0.4077 -0.2286
 8378W        W23847  17.696  12.371  15.726 -0.0879 -0.1526 -0.3109
 8379W        W23848  11.552   0.887   2.409 -0.1790 -0.3231 -0.1075
 8380W        W23849  14.550   9.938   4.644  0.2433  0.2009 -0.2204
 8381W        W23850   5.116  14.176   3.389 -0.1133  0.1698 -0.0664
 8382W        W23851   2.764  10.374   1.545  0.2572  0.0767 -0.1704
 8383W        W23852  15.597  15.208  11.064 -0.1845 -0.2086  0.2772
 8384W        W23853  14.246  12.829  14.096  0.2550  0.0356  0.0317
 8385W        W23854   6.231  13.945  12.620 -0.1378  0.1850 -0.2358
 8386W        W23855  13.305  16.620   0.131  0.0143 -0.0826  0.3089
 8387W        W23856   4.820   3.376   0.405 -0.0703 -0.0021  0.0229
 8388W        W23857   1.523  14.251   1.067  0.2231  0.0403  0.2276
 8389W        W23858  18.373   0.436   1.933  0.1784  0.0939  0.1050
 8390W        W23859   6.128   7.579   1.806 -0.1702  0.0351  0.0186
 8391W        W23860   5.663  16.049  11.250  0.0032 -0.0746  0.0597
 8392W        W23861   3.883  14.103  14.710  0.1330  0.2356  0.1633
 8393W        W23862   6.944  16.581  11.515 -0.1741 -0.3157 -0.0306
 8394W        W23863   1.421   4.223   4.239 -0.0802  0.1509  0.1201
 8395W        W23864  14.622  14.794   4.964  0.1777 -0.0295 -0.0254
 8396W        W23865   6.566  10.311   4.737 -0.0637  0.3019  0.0899
 8397W        W23866   3.862  10.953   3.237 -0.1638 -0.0963 -0.0034
 8398W        W23867  15.795   7.596   4.035 -0.1947 -0.2560  0.0553
 8399W        W23868  13.206   8.487  13.759 -0.0568 -0.0758  0.0516
 8400W        W23869  18.069  15.152   1.209 -0.1817  0.0415 -0.0890
 8401W        W23870  17.326   9.668  11.294 -0.2451 -0.1118  0.1185
 8402W        W23871  11.334   3.537  15.599  0.1816 -0.0089  0.0273
 8403W        W23872   0.655  17.513  14.968 -0.0415 -0.1351 -0.0689
 8404W        W23873  10.022   8.141  13.989 -0.1625  0.0166  0.0559
 8405W        W23874   0.391   8.568  12.278  0.1951 -0.1147 -0.0514
 8406W        W23875  18.673  16.386  12.394  0.4677 -0.0167 -0.2034
 8407W        W23876   4.102   6.617   9.886  0.2336 -0.3762 -0.4850
 8408W        W23877  16.737   8.548   4.396  0.1280  0.2382 -0.2666
 8409W        W23878  17.344   9.616   4.765 -0.0993 -0.2951  0.0853
 8410W        W23879  13.866  17.376  12.762  0.1291  0.2321 -0.1076
 8411W        W23880  12.303  14.520   1.378  0.1617  0.2389 -0.2166
 8412W        W23881  16.721  10.258  12.374  0.3012  0.1661  0.2460
 8413W        W23882  15.131   3.808  12.275  0.3529 -0.5095  0.2050
 8414W        W23883   4.221  17.639   1.085  0.3292 -0.0163 -0.2869
 8415W        W23884   2.073   6.133   2.561  0.0097  0.2045 -0.0722
 8416W        W23885   2.690   3.866   0.448  0.1827 -0.3003 -0.3487
 8417W        W23886   9.065   6.912   0.840 -0.0131 -0.3848 -0.0444
 8418W        W23887   4.866  13.636   5.426  0.1309 -0.0428  0.0151
 8419W        W23888   6.127  17.849  13.125 -0.2761  0.2339  0.1781
 8420W        W23889   7.731  10.300   0.861  0.1112 -0.1902  0.2482
 8421W        W23890   0.154  13.514  13.047  0.4029  0.0745 -0.3645
 8422W        W23891  15.381  15.636  13.272  0.1090  0.1159 -0.1755
 8423W        W23892   1.751   0.376   2.082  0.0209 -0.0643 -0.0019
 8424W        W23893   2.880   0.279  14.076  0.1075 -0.2043 -0.5305
 8425W        W23894   8.898  18.354   4.606  0.4292  0.0438 -0.0012
 8426W        W23895  14.500   2.565  12.816  0.5011  0.1898 -0.2564
 8427W        W23896   9.713  16.722  11.264  0.1683 -0.1023 -0.0112
 8428W        W23897   8.963  17.845   3.846 -0.1940 -0.1879 -0.2195
 8429W        W23898  15.698   1.157   2.672 -0.0602 -0.0354 -0.0684
 8430W        W23899  16.221   9.074   5.761  0.0286 -0.1252  0.2149
 8431W        W23900   4.442  15.448  15.455 -0.0427  0.4536 -0.0632
 8432W        W23901  12.105   1.646  13.020  0.3305  0.1307 -0.3926
 8433W        W23902   8.775   3.223   1.744 -0.3474 -0.1367  0.0997
 8434W        W23903  17.239   3.047   4.018  0.0644  0.0524 -0.3814
 8435W        W23904   1.658  13.326   9.845  0.0533 -0.0527 -0.0668
 8436W        W23905  16.043   8.480  13.166 -0.1919  0.0353  0.3616
 8437W        W23906   9.826  17.251   3.639 -0.0072  0.1472  0.0351
 8438W        W23907   1.412   3.510  10.199 -0.0064  0.4608 -0.1712
 8439W        W23908  15.606   0.746   0.670  0.0664  0.3076  0.1834
 8440W        W23909  12.140   3.171  11.620 -0.1957  0.0088  0.0370
 8441W        W23910  12.547  11.457   4.616 -0.2619 -0.1423 -0.0431
 8442W        W23911   1.997  17.321   5.372  0.0157  0.0689 -0.0836
 8443W        W23912   8.945  14.993   4.718  0.2219  0.2601 -0.0450
 8444W        W23913   1.497   9.628   4.905  0.1870 -0.0225 -0.1789
 8445W        W23914  14.357  15.545   3.359 -0.1031  0.0557  0.0228
 8446W        W23915  14.391  14.283   0.058 -0.2732 -0.1011  0.1205
 8447W        W23916   0.648   5.056   0.864  0.1176  0.2257  0.0850
 8448W        W23917  12.310   6.177  12.998  0.0373 -0.5590 -0.0718
 8449W        W23918  13.839  15.145   9.751 -0.0341 -0.0182  0.3018
 8450W        W23919  13.264   5.698  15.334  0.1174 -0.0728 -0.2945
 8451W        W23920   3.802   9.360   3.951  0.2370 -0.1547  0.3490
 8452W        W23921   5.548  17.510  14.223  0.0252 -0.0025 -0.1888
 8453W        W23922   4.246  14.464  10.300  0.0202  0.1370  0.0996
 8454W        W23923   3.058   5.714  14.078  0.2014  0.1827 -0.0881
 8455W        W23924  12.146   2.667  11.589 -0.0975  0.0737  0.1507
 8456W        W23925  12.865   2.501   0.346  0.0763  0.2135 -0.0976
 8457W        W23926   7.244  13.729   5.610 -0.0723  0.1057  0.1202
 8458W        W23927   8.682   7.206   0.874  0.0208 -0.3656  0.1022
 8459W        W23928   2.526   8.294   1.024 -0.2998  0.1014 -0.1267
 8460W        W23929  12.037  11.652  12.510 -0.1407 -0.2935 -0.0488
 8461W        W23930  10.102   0.812  11.544  0.0193 -0.3743 -0.1738
 8462W        W23931  16.801  18.159  12.957  0.0615  0.0185  0.0330
 8463W        W23932  10.841  15.683   2.869  0.2828  0.1690  0.0679
 8464W        W23933  17.382   9.870  10.757  0.0988 -0.0431  0.3449
 8465W        W23934   9.027   8.808   0.715 -0.1353  0.1669 -0.3855
 8466W        W23935   8.654   1.638   3.389  0.0111 -0.0747  0.2140
 8467W        W23936   7.123   7.793  13.186 -0.1555 -0.4939 -0.0337
 8468W        W23937  16.362  17.900   3.060 -0.1681  0.0269 -0.0668
 8469W        W23938   4.998  14.947   0.310  0.0324 -0.0573  0.2448
 8470W        W23939   6.545  13.473  12.910 -0.0869 -0.0946  0.4252
 8471W        W23940  17.372  11.119  10.849  0.3059 -0.1874  0.0559
 8472W        W23941  17.162  12.539  12.096 -0.3132 -0.0576 -0.0763
 8473W        W23942   9.666  12.282  12.271 -0.1406  0.0963  0.1477
 8474W        W23943   1.409   6.658  11.235  0.2791  0.1417 -0.3053
 8475W        W23944  10.069  15.090  10.285 -0.2602  0.1522  0.3446
 8476W        W23945   8.773  14.228  13.541  0.0641 -0.1402  0.2121
 8477W        W23946  15.830   9.959   2.342  0.1258 -0.0968  0.1080
 8478W        W23947  13.896   8.585   5.129  0.0793 -0.0970  0.0023
 8479W        W23948  12.199   9.994   0.833 -0.5261 -0.0331 -0.1915
 8480W        W23949   0.635   8.042  10.811 -0.0489 -0.3136 -0.3445
 8481W        W23950   3.180  10.624   6.006 -0.0890 -0.0939  0.2629
 8482W        W23951  13.783  11.047   1.985  0.1389 -0.1075  0.3443
 8483W        W23952  11.979   5.059  13.614 -0.3725  0.1559  0.1476
 8484W        W23953  16.925  13.787   0.321 -0.1689 -0.1460 -0.1168
 8485W        W23954   1.534  11.052   1.906 -0.1721  0.0791  0.0934
 8486W        W23955   2.048  11.258  15.261  0.0842 -0.3822 -0.1133
 8487W        W23956   2.326  12.753   5.266 -0.1356  0.1660  0.1145
 8488W        W23957  12.238  12.488  13.021  0.1138 -0.0970  0.0724
 8489W        W23958  15.543   9.534   2.599  0.1749  0.0591  0.2897
 8490W        W23959   0.248   1.341   3.887 -0.1163 -0.4254  0.2076
 8491W        W23960  12.966  10.520  11.943 -0.0203 -0.0565 -0.0934
 8492W        W23961  14.336   1.316  14.867  0.2969 -0.0016  0.1653
 8493W        W23962  16.260  13.839   4.681  0.0766  0.2313  0.1551
 8494W        W23963  17.193  15.846   2.574 -0.0271  0.0339  0.0314
 8495W        W23964  12.218   1.093  12.081  0.2326  0.2403 -0.0172
 8496W        W23965   2.274   1.107  11.284 -0.5236 -0.1346  0.1170
 8497W        W23966   6.909   1.834  12.848  0.0646 -0.4124 -0.2871
 8498W        W23967   1.866  16.406  12.431  0.2934  0.1404 -0.1916
 8499W        W23968  12.196  10.954  15.641  0.2272  0.0291 -0.0463
 8500W        W23969   2.007   6.848   4.527 -0.3056 -0.0564 -0.1890
 8501W        W23970   6.478   7.337   5.522 -0.3814 -0.4715  0.1232
 8502W        W23971   5.376  12.857   3.512 -0.2929  0.2535  0.2180
 8503W        W23972   9.026  13.722  11.376 -0.1659  0.0095 -0.2414
 8504W        W23973   4.654   1.707   3.332 -0.2316  0.0427  0.1358
 8505W        W23974  17.805   6.397  13.522  0.0721 -0.3790 -0.3832
 8506W        W23975  13.339   7.201  13.041  0.0364 -0.2201 -0.0005
 8507W        W23976   5.638  10.889   6.149  0.3200 -0.1471  0.0499
 8508W        W23977   7.412  11.943   1.506  0.0532  0.0838  0.2508
 8509W        W23978   1.540  16.513   5.450 -0.0457  0.0678 -0.0622
 8510W        W23979   2.880  18.089   2.175  0.0893  0.4539 -0.1325
 8511W        W23980   7.036  11.707   4.842  0.4108  0.2318 -0.1531
 8512W        W23981  13.946   4.789  11.926  0.1377  0.1774 -0.0759
 8513W        W23982  13.915   2.122   4.523 -0.0485  0.2298  0.0011
 8514W        W23983   0.842  18.485  13.093 -0.0641  0.0898 -0.1055
 8515W        W23984   1.279   7.052   5.089  0.0139  0.0444 -0.2015
 8516W        W23985  14.174   4.523   3.847  0.3299  0.3423 -0.0526
 8517W        W23986  13.640  11.389   3.981 -0.1177 -0.2216 -0.1987
 8518W        W23987  16.258   7.108  10.916 -0.0539 -0.2120 -0.0368
 8519W        W23988   9.771  17.082  13.380 -0.0226 -0.1726  0.1189
 8520W        W23989  11.620   0.864  13.465  0.2195 -0.0070 -0.1085
 8521W        W23990   2.921  17.577  14.386  0.1800  0.0536  0.4308
 8522W        W23991   3.834   6.832   1.921  0.0185 -0.1061 -0.1474
 8523W        W23992   3.055   9.608  11.609  0.1216  0.0822  0.0886
 8524W        W23993   5.330   5.442   1.085  0.0478  0.0630  0.0801
 8525W        W23994   9.410   4.414   2.025 -0.0907  0.1189  0.2898
 8526W        W23995   6.469  12.268  11.996  0.0794  0.0342  0.3717
 8527W        W23996   0.724   5.804  12.498  0.0572 -0.0831 -0.1753
 8528W        W23997   0.126  14.952  15.614 -0.0549  0.0254 -0.2790
 8529W        W23998   7.267   5.216  14.449 -0.0626 -0.0895  0.0761
 8530W        W23999  13.639   9.069   0.830 -0.1876 -0.0703  0.1978
 8531W        W24000   7.752   5.256   2.720  0.0057  0.1061  0.0452
 8532W        W24001  13.392  18.058  12.768 -0.0984 -0.1624 -0.1560
 8533W        W24002   8.016  16.416   5.122  0.0803  0.3164 -0.1250
 8534W        W24003   8.763  15.345  11.911  0.3235 -0.1002 -0.0889
 8535W        W24004  12.332   5.334   1.584  0.2483  0.1027 -0.0771
 8536W        W24005   4.842  11.729   1.520  0.0167 -0.2565 -0.1424
 8537W        W24006   5.068  15.775   2.527 -0.0511  0.0293  0.0944
 8538W        W24007   5.523  12.222   1.547  0.1090  0.3213 -0.2838
 8539W        W24008   0.103  11.816  13.574 -0.0619 -0.1797  0.3817
 8540W        W24009   5.297   8.549  10.293 -0.1168  0.2150  0.1710
 8541W        W24010  13.817  10.036   4.129  0.0050 -0.3881 -0.2814
 8542W        W24011  12.434  14.041   1.385  0.0269 -0.2864 -0.0401
 8543W        W24012  13.530   6.369   2.452 -0.0603 -0.1439  0.1931
 8544W        W24013   6.008   3.776  15.393 -0.0692 -0.1990 -0.1248
 8545W        W24014  12.534   7.689   5.930  0.3361  0.0412  0.0236
 8546W        W24015  11.293   9.129   2.879 -0.0640  0.1458 -0.0428
 8547W        W24016  12.260   7.364  15.761 -0.0616 -0.2521 -0.2250
 8548W        W24017  11.573  10.874   1.227 -0.1037 -0.2849  0.0147
 8549W        W24018   4.119   6.284  13.503  0.2192 -0.0668  0.0723
 8550W        W24019   0.683  14.278   4.130 -0.4014 -0.3136  0.0151
 8551W        W24020  10.998  16.679  11.691 -0.0889 -0.0286 -0.1590
 8552W        W24021   5.792   4.657  15.277  0.3895 -0.1143  0.1724
 8553W        W24022   0.809  13.421   3.403 -0.1796 -0.0808  0.0047
 8554W        W24023   8.814  17.338  11.382 -0.4884  0.3347 -0.2736
 8555W        W24024  12.674  11.890   4.798 -0.2623 -0.1663  0.1342
 8556W        W24025   6.073   6.756  14.956  0.2141 -0.1706  0.1799
 8557W        W24026   6.005  12.175   1.607 -0.0088 -0.0659 -0.0670
 8558W        W24027  18.552  18.099   3.529  0.4644 -0.0030 -0.1118
 8559W        W24028   9.085  13.768   5.294  0.1510  0.0671  0.0916
 8560W        W24029   8.265  10.845  15.710  0.0630  0.2386  0.4324
 8561W        W24030   0.050   6.457  13.744  0.2152  0.0345 -0.0513
 8562W        W24031   2.066   7.793  15.065 -0.1920  0.1041 -0.0339
 8563W        W24032   4.101  11.888   2.675  0.1015 -0.0282 -0.1816
 8564W        W24033   6.301   6.939   2.407  0.2929  0.2552  0.0258
 8565W        W24034  17.908  18.331  10.196  0.1464 -0.0538  0.2214
 8566W        W24035  18.030   7.222   1.824 -0.2489  0.0585 -0.2469
 8567W        W24036   0.271   2.983   5.327  0.0159 -0.0354 -0.1319
 8568W        W24037   1.230   0.546   4.552  0.0902  0.1334 -0.0883
 8569W        W24038   5.160   8.398   1.361 -0.0904 -0.0220 -0.1320
 8570W        W24039   1.688   7.394   1.438 -0.2202 -0.1712  0.1261
 8571W        W24040   5.368   9.534   5.074 -0.3365  0.1472  0.0951
 8572W        W24041  10.688  14.112  14.472  0.0065  0.0649 -0.0970
 8573W        W24042  16.627   8.912  14.355  0.1200  0.1993  0.0385
 8574W        W24043   6.443   9.668   1.313  0.1620  0.1218  0.2663
 8575W        W24044  14.525   2.208   1.039  0.2014  0.0390  0.4513
 8576W        W24045  17.478  15.967   0.934  0.0166  0.0942 -0.1956
 8577W        W24046  15.017  15.062   3.980  0.0942 -0.1722 -0.0102
 8578W        W24047   0.095  18.274  13.405  0.1074 -0.2685 -0.0732
 8579W        W24048   7.224   7.310  13.322  0.1840  0.3841  0.1594
 8580W        W24049   3.253   2.398  13.171  0.0038 -0.0914 -0.0661
 8581W        W24050   6.109  13.035  13.615  0.3818 -0.0922  0.1619
 8582W        W24051   2.896  10.766  13.361  0.1620 -0.0440  0.1027
 8583W        W24052   0.173  10.295  15.626  0.2729  0.0357 -0.0703
 8584W        W24053  17.805   2.201   0.104 -0.0380 -0.2391 -0.2082
 8585W        W24054  11.099  14.917   4.644 -0.1881 -0.1009  0.0636
 8586W        W24055  14.682   4.615  12.463  0.0982  0.0003 -0.2269
 8587W        W24056   1.252  13.582   1.033  0.0924  0.1612  0.0288
 8588W        W24057   1.584   1.293  10.879  0.0665 -0.2099 -0.0167
 8589W        W24058  12.391   3.178   3.771 -0.2507 -0.1257  0.0112
 8590W        W24059   0.804   7.763   4.413 -0.0128  0.1152  0.0179
 8591W        W24060   8.336   7.410   1.903  0.0253  0.0015 -0.0128
 8592W        W24061  15.308   5.447   0.976 -0.4054 -0.1418 -0.0317
 8593W        W24062   1.432  17.881   4.180  0.0828 -0.2941 -0.1648
 8594W        W24063  10.170  16.879   3.011  0.0926 -0.4347  0.1613
 8595W        W24064   5.578  11.221   4.907  0.2078  0.1538  0.1291
 8596W        W24065   2.130  11.692   3.456 -0.1226 -0.1874 -0.2536
 8597W        W24066   5.638   9.153  11.732 -0.1160  0.1943 -0.0613
 8598W        W24067   9.683  18.021   4.375  0.0121 -0.1917  0.0848
 8599W        W24068   1.933  12.184  15.186 -0.3117  0.2471  0.0679
 8600W        W24069  18.216  11.187   5.204  0.1278  0.2308  0.1975
 8601W        W24070   6.770  15.139   0.053 -0.0454  0.1035 -0.3646
 8602W        W24071   4.258   1.910   5.350 -0.0089  0.0975  0.1425
 8603W        W24072   7.780  14.115  14.411 -0.2657  0.0764  0.1240
 8604W        W24073   3.096   6.871  14.766  0.3368 -0.0207 -0.2014
 8605W        W24074   2.529  11.576   3.767 -0.2292  0.0326 -0.0093
 8606W        W24075   2.739   2.240   1.673 -0.0587  0.3235  0.1278
 8607W        W24076  13.726   5.181  11.125 -0.0113  0.3155  0.0148
 8608W        W24077   7.810  12.494   2.150 -0.0817 -0.2264 -0.2730
 8609W        W24078  14.692   2.183   0.593 -0.2011 -0.0525 -0.0311
 8610W        W24079   1.692  16.690   4.036 -0.1968 -0.1854 -0.1702
 8611W        W24080  18.685   4.884  11.900 -0.1702 -0.0936  0.1289
 8612W        W24081   3.511  14.795   1.920 -0.1318  0.3585 -0.1498
 8613W        W24082   6.024  10.865   3.434  0.2214 -0.1438 -0.2255
 8614W        W24083   6.667   6.671  15.684 -0.1790 -0.2043 -0.1331
 8615W        W24084   3.300  12.086  14.954  0.2383  0.1985 -0.0831
 8616W        W24085   3.862   9.118  15.436 -0.1996  0.1210  0.0751
 8617W        W24086   2.677  18.156  15.312  0.2910 -0.1743 -0.2712
 8618W        W24087   5.785   6.033  12.638 -0.3056 -0.3169 -0.2748
 8619W        W24088   0.751   4.693  13.478 -0.1401 -0.0956  0.2332
 8620W        W24089   2.063   8.131   5.377  0.1695 -0.2067 -0.1219
 8621W        W24090   9.373  17.971   1.519  0.0562  0.1647  0.1680
 8622W        W24091  13.240  12.999  11.187  0.2598  0.0154 -0.6272
 8623W        W24092  18.674   8.531   3.208 -0.2416 -0.0097 -0.0439
 8624W        W24093   8.126  15.399   4.278  0.1497  0.3525 -0.1689
 8625W        W24094  10.103   5.449   3.464 -0.3626 -0.0842  0.0429
 8626W        W24095  11.761  15.495  15.346 -0.0163 -0.1202 -0.0220
 8627W        W24096   5.549  17.211  12.689  0.0807 -0.1283  0.1253
 8628W        W24097   1.494   6.280   3.677 -0.2791 -0.3417  0.2406
 8629W        W24098   0.591   2.738   0.124 -0.0087  0.2006  0.0802
 8630W        W24099  16.544   2.951  11.641  0.3668  0.1379  0.1474
 8631W        W24100  10.800   1.118   2.624 -0.2258 -0.2902 -0.0677
 8632W        W24101  15.665   9.507   4.204 -0.1642 -0.5969  0.3217
 8633W        W24102  11.380  14.781  13.703 -0.2678 -0.0701 -0.1632
 8634W        W24103  17.839  17.139   0.610 -0.2388 -0.0019  0.0834
 8635W        W24104   3.905   7.669   4.622 -0.2338 -0.1602 -0.0984
 8636W        W24105  13.579  10.065   2.720 -0.2163 -0.0745 -0.0537
 8637W        W24106   0.919  13.293  13.765 -0.0767  0.1648  0.0724
 8638W        W24107  12.808   6.486  14.023 -0.1641 -0.1596 -0.2311
 8639W        W24108   5.149  15.149  13.213 -0.1817  0.0265  0.1962
 8640W        W24109  17.263  12.257   0.257 -0.0297 -0.1690 -0.2649
 8641W        W24110  14.301  15.421  12.810 -0.0406  0.1341  0.5433
 8642W        W24111   4.592  15.011   5.319 -0.0692  0.1901  0.0367
 8643W        W24112  17.910   7.827  11.900 -0.1411  0.0022 -0.1181
 8644W        W24113  17.939   8.627  13.256  0.1363  0.2290 -0.0755
 8645W        W24114   8.437   5.101  13.625 -0.0518 -0.1829 -0.1097
 8646W        W24115   6.824  12.802  12.640 -0.0862 -0.1600 -0.1625
 8647W        W24116   1.045  14.653  10.033  0.1855  0.2814  0.1986
 8648W        W24117   1.920   2.692  12.979  0.1918  0.3658  0.0860
 8649W        W24118   6.222  12.627  15.091  0.1113 -0.0311 -0.0197
 8650W        W24119   3.550   8.700   0.943  0.1352 -0.1954 -0.2354
 8651W        W24120  16.759  15.621   2.687 -0.0496 -0.2100 -0.0688
 8652W        W24121  18.364  13.448   2.013  0.3210 -0.2069 -0.2790
 8653W        W24122   8.427  17.868   0.373  0.5612  0.0553 -0.2257
 8654W        W24123   9.107   6.957  13.507 -0.1779 -0.0085 -0.1475
 8655W        W24124   3.267   0.183   2.304  0.2463 -0.0941  0.0378
 8656W        W24125  11.699  14.724  12.083  0.0140 -0.1626 -0.0243
 8657W        W24126   1.784  17.751  10.934 -0.1580 -0.4966  0.0204
 8658W        W24127   6.095   6.588  13.353  0.0207  0.0621  0.0034
 8659W        W24128   5.059  14.617   6.072  0.0160  0.1804 -0.2552
 8660W        W24129   1.023   0.208   3.641  0.1762  0.2413 -0.0185
 8661W        W24130   1.896  18.115  10.473  0.1285  0.0128  0.1285
 8662W        W24131   6.807   3.090  12.541  0.1521  0.1257 -0.2194
 8663W        W24132   4.094  14.052  12.931  0.1854  0.0591  0.0117
 8664W        W24133   2.015   9.123   1.649  0.1351  0.4552  0.1183
 8665W        W24134  12.385  12.094  13.260  0.0894  0.0733  0.1649
 8666W        W24135   9.563   2.271  11.441 -0.2449 -0.1232 -0.0308
 8667W        W24136   9.261   2.264  13.174 -0.2352  0.1345 -0.2598
 8668W        W24137  18.131   0.912  15.657  0.1589  0.2100 -0.2848
 8669W        W24138   7.359   8.714   5.859 -0.1297  0.2735  0.0468
 8670W        W24139   6.726   6.137   0.768 -0.3220 -0.2413 -0.0437
 8671W        W24140  13.197  18.469  13.688  0.0553 -0.0299  0.1050
 8672W        W24141   2.807   6.964  11.007 -0.4193  0.0237 -0.1580
 8673W        W24142   8.276  17.260  12.474  0.0216 -0.1336 -0.3192
 8674W        W24143  14.360  15.932  12.917  0.0153 -0.0953 -0.2324
 8675W        W24144  16.111  17.614   5.037  0.0729 -0.1198 -0.2022
 8676W        W24145   7.974   2.238   5.599 -0.0098  0.0750 -0.3503
 8677W        W24146  17.341  17.607   2.632  0.0246  0.0532  0.3644
 8678W        W24147   4.531  17.073  12.726 -0.0253 -0.1992  0.1994
 8679W        W24148   3.835   0.309   1.153  0.2392 -0.2042 -0.1116
 8680W        W24149   8.514   7.330  12.968 -0.1983 -0.0215  0.0267
 8681W        W24150  12.564   3.458   1.121  0.0015 -0.2430 -0.0423
 8682W        W24151   5.570  13.773   5.144  0.2192 -0.1739 -0.1187
 8683W        W24152  15.829   3.408  15.662  0.0768  0.1563  0.0611
 8684W        W24153  15.828   3.607  12.764  0.4687  0.1467 -0.0414
 8685W        W24154  15.801   8.035   3.010  0.0935 -0.1023 -0.1021
 8686W        W24155   6.046   0.848  10.787 -0.0190  0.0602 -0.1934
 8687W        W24156   7.993   8.980  13.769  0.1966  0.3170 -0.1604
 8688W        W24157   8.963   6.623   3.747 -0.0931  0.0417  0.0736
 8689W        W24158  12.908   3.953  15.473 -0.0207  0.1866 -0.0503
 8690W        W24159   3.278   1.485  11.990 -0.4066  0.0156  0.1485
 8691W        W24160  14.412  13.308   1.969  0.0259  0.0051  0.0742
 8692W        W24161  16.518   5.383  11.413  0.0515  0.2386  0.2563
 8693W        W24162  10.314   1.319  14.998  0.2579 -0.0782 -0.2247
 8694W        W24163   1.359  12.808   0.981  0.0127  0.2149 -0.1244
 8695W        W24164  13.023  10.710  14.718 -0.3024 -0.0304 -0.1429
 8696W        W24165  10.247  11.740   4.439  0.0962 -0.0094  0.1978
 8697W        W24166   1.979  14.650  13.347 -0.1561 -0.1394  0.1648
 8698W        W24167   8.324   6.878  10.926  0.1302 -0.1021 -0.1797
 8699W        W24168   2.167   3.272  15.007 -0.0813 -0.1355  0.0213
 8700W        W24169   0.326   6.265  11.068 -0.1366  0.0935  0.1108
 8701W        W24170  17.975   8.934   2.685  0.0316  0.4145 -0.0742
 8702W        W24171   4.359  14.499  12.887 -0.3454 -0.1900 -0.2118
 8703W        W24172   6.410  12.395  10.942  0.3572  0.1960 -0.1138
 8704W        W24173   4.278  13.648   2.504 -0.2980  0.1950 -0.1330
 8705W        W24174  11.847   9.989  15.102  0.0613  0.1022 -0.2101
 8706W        W24175  13.963  18.244   1.167  0.0252 -0.1228 -0.0110
 8707W        W24176   3.329   8.498  13.414 -0.0988 -0.0528  0.1368
 8708W        W24177   5.284  14.671  14.308  0.0401 -0.0888 -0.0849
 8709W        W24178  14.460  18.595  13.100  0.3547 -0.0222  0.0767
 8710W        W24179  13.880  11.372  12.877 -0.0886  0.0087 -0.1263
 8711W        W24180   1.441   8.303   4.074  0.1593  0.3993  0.2331
 8712W        W24181   8.868   4.212   5.978  0.1160 -0.2666  0.3715
 8713W        W24182   6.664  14.959   0.841 -0.2837  0.2094  0.2628
 8714W        W24183  10.478   7.489   4.436 -0.3477 -0.0273  0.4306
 8715W        W24184   2.235   5.497   1.715  0.1669  0.0539 -0.2507
 8716W        W24185  15.380   3.527   2.729 -0.0640  0.0116  0.1923
 8717W        W24186   4.281  13.653   3.660 -0.3444 -0.0810 -0.1914
 8718W        W24187   7.834  12.818   1.095 -0.0163  0.0977 -0.1018
 8719W        W24188  16.180  16.954   4.009 -0.2921 -0.1121 -0.0256
 8720W        W24189  14.303   5.703  12.246 -0.0714 -0.0629  0.1884
 8721W        W24190  16.561   9.251   0.749 -0.1278 -0.1895 -0.1415
 8722W        W24191  12.003   8.324   4.126 -0.2513  0.0519  0.0676
 8723W        W24192  13.344   3.390   3.909  0.1004  0.1648  0.2208
 8724W        W24193   5.636  14.381  14.427 -0.1776 -0.0274  0.1263
 8725W        W24194   4.071  11.197  11.609 -0.1431  0.1187 -0.0255
 8726W        W24195   5.476   1.911  12.358 -0.1405 -0.0147 -0.0128
 8727W        W24196   1.152   2.534  14.292  0.1633  0.4284  0.1983
 8728W        W24197   8.900  14.220   2.711  0.1230 -0.4384  0.3891
 8729W        W24198   1.195  11.704  14.679 -0.1178  0.0469 -0.2233
 8730W        W24199  12.166   1.476  15.516 -0.1571  0.2303 -0.2239
 8731W        W24200  11.046  12.401   2.787  0.1760 -0.0868  0.2447
 8732W        W24201  10.511   6.161  11.464 -0.2660  0.2908  0.0243
 8733W        W24202   0.153   4.617  12.753 -0.1072  0.1340 -0.1571
 8734W        W24203   7.224   2.258  15.742 -0.1094  0.4422 -0.4150
 8735W        W24204   1.898   5.835   0.490  0.1363 -0.1826 -0.1284
 8736W        W24205   9.841  14.585   3.018 -0.2726 -0.0758 -0.0108
 8737W        W24206   7.769   6.654  14.291 -0.3077 -0.1043  0.1562
 8738W        W24207  10.894  14.876   4.159 -0.2830 -0.0628 -0.0905
 8739W        W24208   6.569   9.377   2.740 -0.0069  0.1768 -0.0864
 8740W        W24209  16.155   6.644  12.022  0.2412  0.2866 -0.1133
 8741W        W24210  17.911   3.019  10.612 -0.0701  0.2637 -0.2027
 8742W        W24211   5.910  11.302  14.449  0.1232 -0.2613 -0.2451
 8743W        W24212   2.190   5.505  11.009  0.0566  0.0040 -0.0522
 8744W        W24213   4.122   3.021   9.360 -0.1959 -0.1152 -0.3106
 8745W        W24214  17.598   6.354   4.187 -0.0988 -0.2383  0.1247
 8746W        W24215  17.065   8.809  13.564 -0.2516 -0.1791  0.2244
 8747W        W24216   0.652  18.390   0.264  0.1637  0.0696  0.0485
 8748W        W24217  13.789   4.390  11.698  0.1111 -0.0847  0.0121
 8749W        W24218   3.149  18.018   1.216 -0.0031 -0.0555  0.2097
 8750W        W24219  18.528   2.466   2.737 -0.0706 -0.8676  0.0959
 8751W        W24220   5.848   0.216  12.262  0.2258  0.0451 -0.1926
 8752W        W24221   1.356   0.485   0.187 -0.0109 -0.0218  0.1839
 8753W        W24222  18.373  11.772   4.797 -0.0332 -0.1266  0.0003
 8754W        W24223   0.584   7.475  14.229 -0.2285  0.1008  0.1090
 8755W        W24224  12.279   6.957  12.749 -0.1681  0.0714  0.1637
 8756W        W24225  16.765   9.925  14.517 -0.0914  0.2621 -0.0129
 8757W        W24226   2.525  11.575   3.257  0.4735  0.1046  0.0448
 8758W        W24227  17.871   1.456  14.082 -0.0486 -0.0341 -0.2717
 8759W        W24228   3.465  16.434   0.485  0.1276 -0.2126 -0.0700
 8760W        W24229   9.605  12.739   0.811 -0.0277  0.4833  0.5729
 8761W        W24230   9.993   2.503  10.878  0.1744 -0.2315 -0.0469
 8762W        W24231  18.253   0.940   3.500 -0.0046 -0.2055 -0.0332
 8763W        W24232   2.152  16.934   4.495  0.0545 -0.1481  0.2140
 8764W        W24233   6.135   7.251  13.055 -0.1787  0.2519  0.4927
 8765W        W24234   8.199  16.609  13.126 -0.3478 -0.0579  0.1543
 8766W        W24235   6.989  15.470   1.535 -0.0309  0.0537 -0.1333
 8767W        W24236  17.861  15.532   4.731 -0.2209  0.0737 -0.3918
 8768W        W24237   4.560  10.800   1.598  0.1512 -0.1307 -0.1662
 8769W        W24238   8.781   5.841   4.561  0.3752  0.2545  0.0139
 8770W        W24239   2.320   7.997   1.563 -0.0277 -0.2108  0.1779
 8771W        W24240   3.638   0.440  15.209 -0.0051 -0.0956 -0.1741
 8772W        W24241  10.739  15.700  12.551 -0.0201 -0.0975  0.2241
 8773W        W24242   3.592   0.471  11.752  0.0156 -0.4341 -0.2264
 8774W        W24243   1.555  10.414   4.383 -0.0780  0.2579  0.5472
 8775W        W24244   1.017   1.447  11.444 -0.2384 -0.0268  0.0139
 8776W        W24245  10.522  15.174   2.781  0.4122 -0.0233  0.2161
 8777W        W24246  16.191   1.578  13.651  0.0944  0.2040 -0.0098
 8778W        W24247   4.490  11.925   5.478 -0.2996  0.0665 -0.2706
 8779W        W24248   9.339   1.988   1.335  0.2854  0.2037  0.1602
 8780W        W24249  11.200   6.916   0.643  0.2528 -0.0508 -0.1334
 8781W        W24250  15.281   2.301   4.748  0.3761 -0.0064 -0.0100
 8782W        W24251  13.286   6.248   3.470 -0.1545  0.1620 -0.1782
 8783W        W24252   9.255   4.314  10.984 -0.1393  0.0413  0.0709
 8784W        W24253   1.664  18.105  12.185 -0.0008 -0.1189 -0.1413
 8785W        W24254  16.224   4.125   5.402 -0.0527 -0.2596  0.0360
 8786W        W24255   0.542   6.086  15.241  0.1604 -0.1425  0.0660
 8787W        W24256   0.594  16.850  10.814  0.2578 -0.0068 -0.0443
 8788W        W24257   9.408   9.863   3.088 -0.0482  0.0620  0.1259
 8789W        W24258   1.813   5.376  10.705 -0.0221 -0.2299 -0.0719
 8790W        W24259  18.194   0.105   0.990  0.0352 -0.2687 -0.3482
 8791W        W24260  14.646   9.861  14.536 -0.0139 -0.2410  0.0184
 8792W        W24261   0.834  12.404  11.769  0.1444 -0.0622 -0.1042
 8793W        W24262  15.159   6.601  11.195  0.0051  0.0820 -0.0124
 8794W        W24263   5.000   0.557   9.853 -0.1306  0.1908  0.4269
 8795W        W24264   1.783  12.926  13.380 -0.2772 -0.0756 -0.2244
 8796W        W24265  18.685   7.330   0.591 -0.2280  0.0032  0.2115
 8797W        W24266   9.228  16.345  13.900 -0.3012  0.0226  0.0932
 8798W        W24267   6.672   7.450  13.168  0.0613 -0.1452 -0.0377
 8799W        W24268  17.436   6.655  10.407 -0.1469 -0.0625 -0.0758
 8800W        W24269   7.567  10.312   2.940  0.2275  0.1198 -0.0138
 8801W        W24270   0.241  17.221  14.781  0.1182 -0.1396  0.0825
 8802W        W24271  12.542  17.689   4.265  0.0088  0.0320  0.3029
 8803W        W24272  13.730   5.645   1.348 -0.0278  0.0622 -0.3441
 8804W        W24273  15.183  14.661   1.540 -0.0822  0.1839  0.3681
 8805W        W24274  10.477   5.060   0.433 -0.4288  0.0459  0.0489
 8806W        W24275  15.774  16.279  12.322  0.1679  0.1303  0.1448
 8807W        W24276   5.317   1.633  12.832 -0.0726  0.2727  0.2115
 8808W        W24277   1.155  15.758  11.575  0.3262  0.1084 -0.2894
 8809W        W24278   5.291  12.448   5.041  0.4352  0.2634 -0.2189
 8810W        W24279   0.500  12.486   0.181 -0.3022 -0.1001 -0.0275
 8811W        W24280   6.571   8.497  11.271  0.0048  0.2572  0.1506
 8812W        W24281  16.912  16.819  13.802 -0.1724 -0.0838 -0.1268
 8813W        W24282  17.955   3.477  10.405 -0.0524  0.1504 -0.1187
 8814W        W24283   3.656   8.023   3.539 -0.0294 -0.1268 -0.0835
 8815W        W24284  14.773  12.536   0.069  0.1958 -0.0562 -0.1925
 8816W        W24285   7.590  18.199   3.519  0.1061  0.1967  0.0137
 8817W        W24286   0.606  11.279  11.003 -0.1184 -0.2456  0.2148
 8818W        W24287  18.638   1.728   0.828 -0.0112  0.1320 -0.1478
 8819W        W24288   3.562  16.826   2.500 -0.1337  0.0158  0.0069
 8820W        W24289   0.200  15.762   3.974 -0.0333  0.1610  0.1554
 8821W        W24290  11.078  10.358  14.174 -0.0466  0.1854 -0.0800
 8822W        W24291   7.744  10.412  12.436 -0.1443 -0.1930 -0.1192
 8823W        W24292  12.350  11.029   5.358  0.1436  0.1095 -0.0375
 8824W        W24293   8.713   8.930   3.558  0.0747 -0.0521 -0.0856
 8825W        W24294   0.607   0.362  15.541 -0.3308 -0.0329 -0.2503
 8826W        W24295   1.590   8.287  14.394 -0.1690  0.3085  0.0378
 8827W        W24296  10.133   6.403  14.497 -0.0511  0.0167 -0.0757
 8828W        W24297   9.163   8.802  14.809  0.1421 -0.2522 -0.1755
 8829W        W24298   9.608   3.475   0.678 -0.2668  0.1524 -0.0036
 8830W        W24299   8.480   9.761   3.328 -0.1098 -0.1872  0.2215
 8831W        W24300  10.685   9.638   0.140 -0.0589 -0.1216 -0.3324
 8832W        W24301   7.150   9.333  13.057  0.0298  0.2473  0.2863
 8833W        W24302   1.243  14.622  15.238  0.0086 -0.3300 -0.2394
 8834W        W24303   2.949  10.439  12.967 -0.0575  0.0547  0.1149
 8835W        W24304  14.435  11.439   0.886 -0.0432 -0.4124  0.1938
 8836W        W24305   0.778  18.253   2.229  0.1321 -0.1156 -0.2429
 8837W        W24306  12.835  14.681   1.345  0.1105 -0.0010 -0.4493
 8838W        W24307  16.760  16.517   5.053 -0.0305  0.0968 -0.3776
 8839W        W24308   4.305  13.577  13.067  0.1715  0.0300 -0.3584
 8840W        W24309   2.441   3.976   2.606 -0.0323 -0.1532 -0.2640
 8841W        W24310  10.299  18.233   5.122 -0.2639 -0.0246 -0.0420
 8842W        W24311   0.545  11.175  12.374  0.3945 -0.1323  0.0066
 8843W        W24312   1.409   3.077   1.227 -0.1765  0.1225 -0.1167
 8844W        W24313  16.105   7.327   1.523  0.1400 -0.0700 -0.0519
 8845W        W24314  14.126  12.211   4.176 -0.0752  0.2499 -0.0992
 8846W        W24315   4.291  13.821  15.650  0.4364  0.1001  0.3739
 8847W        W24316  17.353  15.561   4.943  0.1749  0.1941 -0.0151
 8848W        W24317  17.549   5.526  13.022  0.3125 -0.1677  0.1638
 8849W        W24318  10.781   0.170  11.405  0.2413  0.0109  0.0123
 8850W        W24319  10.311   9.859   2.507 -0.0327 -0.2683  0.3122
 8851W        W24320   1.174  16.920  13.786 -0.0519  0.0527 -0.1767
 8852W        W24321  18.220   6.567   3.158  0.1244  0.3306  0.1959
 8853W        W24322  17.674   4.422   1.697  0.1376  0.1208 -0.1775
 8854W        W24323   3.504   9.163   5.534  0.1247 -0.0999 -0.1046
 8855W        W24324  11.302  12.947   2.991  0.3211 -0.2041 -0.2992
 8856W        W24325   5.680   2.083  15.565 -0.3169  0.0126  0.1606
 8857W        W24326   9.397  13.008   4.480 -0.0399 -0.2208  0.1698
 8858W        W24327  17.450   3.928   3.915  0.0930  0.2185  0.3062
 8859W        W24328   9.180  10.857   3.799  0.0178  0.4430  0.2802
 8860W        W24329   5.571   7.288   1.898 -0.0548 -0.0131 -0.1236
 8861W        W24330  13.585   9.283   0.356  0.2269  0.0557 -0.1998
 8862W        W24331   1.741   5.313   4.044 -0.2728  0.0930  0.0111
 8863W        W24332  18.032   5.930  14.009  0.0958 -0.1626  0.0982
 8864W        W24333   1.546  15.168   0.433 -0.0254 -0.2172 -0.3981
 8865W        W24334  11.556  11.430  11.930 -0.1650  0.1457  0.1410
 8866W        W24335   7.492   2.842  12.198  0.1130  0.2231 -0.0591
 8867W        W24336   1.043  11.307   1.800  0.0287  0.1570  0.1939
 8868W        W24337  10.423   0.237   4.387  0.2349 -0.0248 -0.0175
 8869W        W24338   6.421   3.890   0.410  0.2335 -0.0743 -0.0359
 8870W        W24339  13.641   2.724   3.293 -0.1585  0.1096 -0.0118
 8871W        W24340   0.578  15.632  12.625  0.0650  0.0447  0.0622
 8872W        W24341  14.211   9.928   5.111  0.0194  0.3383  0.1472
 8873W        W24342   5.232   5.294   1.851 -0.4355 -0.0116 -0.1982
 8874W        W24343   4.153  10.812   4.436  0.0907 -0.2507  0.2056
 8875W        W24344  12.375  10.939   1.443 -0.1211 -0.2962 -0.3095
 8876W        W24345   6.761  13.967   5.627 -0.1319 -0.1495  0.0274
 8877W        W24346   5.107  15.182  11.067 -0.1506  0.0148  0.1696
 8878W        W24347   5.115   7.502  15.759 -0.0195  0.0322 -0.0421
 8879W        W24348   5.543   4.466  14.497  0.0893  0.1320  0.0669
 8880W        W24349  11.944  17.205   2.626 -0.1781 -0.0040  0.1086
 8881W        W24350  10.131   3.104  14.232 -0.2551 -0.0227  0.1898
 8882W        W24351   5.861   4.344   4.135 -0.1819  0.1400 -0.0729
 8883W        W24352  13.025  13.738  15.115  0.2288 -0.1707 -0.0234
 8884W        W24353  10.690  15.677   1.647 -0.1437  0.0365 -0.2648
 8885W        W24354   3.270   9.992   2.297 -0.1098  0.4677 -0.2088
 8886W        W24355   3.455   0.930   5.268  0.0182  0.1661  0.0960
 8887W        W24356   7.593   0.948  12.212  0.2648 -0.1562  0.0954
 8888W        W24357   3.313   3.099  10.626  0.0028  0.0547  0.0249
 8889W        W24358   5.045  13.151   3.786  0.3891 -0.3078 -0.0604
 8890W        W24359   2.842  15.988   1.725 -0.0860  0.2529 -0.0200
 8891W        W24360   7.635   5.891  13.836  0.0982 -0.1131 -0.0188
 8892W        W24361   2.522  12.193  11.652 -0.0088 -0.3782  0.0357
 8893W        W24362   0.230   7.736   3.757  0.1259  0.2203 -0.3424
 8894W        W24363  12.346   5.941   2.759 -0.2449  0.0239 -0.3320
 8895W        W24364  18.612   9.281   3.195  0.1120 -0.0795  0.0540
 8896W        W24365  11.500  13.620   0.946 -0.0880  0.2226 -0.0190
 8897W        W24366  10.822  12.648   0.120  0.2779  0.3275  0.1563
 8898W        W24367   9.367  15.981   3.974  0.1238 -0.0712 -0.0232
 8899W        W24368   9.040  14.218   5.477 -0.0491 -0.1953  0.1622
 8900W        W24369   5.573  11.759  13.554 -0.0137  0.1643  0.1455
 8901W        W24370  11.101  13.959   1.063 -0.0055 -0.0793 -0.4666
 8902W        W24371   7.691  14.368   2.395  0.0931  0.0548  0.0251
 8903W        W24372   7.502  11.649  13.339 -0.1692 -0.2536  0.2464
 8904W        W24373  18.125  18.446   5.043 -0.2310 -0.0348 -0.0610
 8905W        W24374   1.115  17.278   3.609  0.2643 -0.1527 -0.2643
 8906W        W24375  13.871  15.199   2.395 -0.2834 -0.0529  0.1328
 8907W        W24376  15.184   7.006   1.302 -0.8491 -0.0426 -0.0594
 8908W        W24377   0.691   5.454  13.576 -0.1733 -0.3302  0.0144
 8909W        W24378  12.118  17.288   0.271 -0.2421  0.2043  0.0860
 8910W        W24379   2.838  15.639   0.404 -0.0202 -0.3261 -0.0845
 8911W        W24380  12.125   5.954   3.629 -0.0136  0.0873 -0.0838
 8912W        W24381   4.638   6.341   2.977  0.1032 -0.1668  0.3788
 8913W        W24382   4.217   3.386  11.225 -0.0422 -0.0195 -0.0253
 8914W        W24383  11.722   3.918   1.348 -0.1297 -0.3543 -0.0109
 8915W        W24384   6.229  15.789   1.660  0.1299 -0.1748 -0.0210
 8916W        W24385   4.506   3.072  13.139  0.1596  0.1141 -0.1393
 8917W        W24386   8.526   6.462  13.978  0.2651  0.1946  0.0205
 8918W        W24387  17.751   0.005  14.038 -0.2200 -0.0864 -0.3353
 8919W        W24388   2.695   4.992  12.955  0.0189 -0.0748  0.3866
 8920W        W24389   6.409   7.841   5.469  0.0747  0.0745 -0.0916
 8921W        W24390   8.249   1.756   1.023 -0.0120 -0.0884  0.0794
 8922W        W24391   6.940  10.037   5.592 -0.1604 -0.0115 -0.0761
 8923W        W24392  15.631   7.032   3.143  0.2860  0.1294  0.1552
 8924W        W24393   2.551  11.395   4.268  0.2465 -0.1264  0.0883
 8925W        W24394   6.053   7.720  13.760 -0.0430  0.0155  0.0552
 8926W        W24395   8.364  12.089  12.110  0.1305 -0.0531 -0.0642
 8927W        W24396  11.807   1.285   4.811  0.2857 -0.0369  0.0179
 8928W        W24397   8.372  15.340   0.649 -0.1764  0.0959 -0.2300
 8929W        W24398  16.990  10.053  12.934 -0.3520 -0.1311 -0.2143
 8930W        W24399   9.289  12.719   1.845 -0.0293  0.1805 -0.1499
 8931W        W24400   2.047   2.778   0.852  0.1483 -0.2136  0.1338
 8932W        W24401  13.460  12.451   2.405  0.0653 -0.4526 -0.2986
 8933W        W24402  12.313   8.335  15.603 -0.1522 -0.4961  0.0450
 8934W        W24403   5.874   6.406  12.954 -0.2388 -0.2308  0.2652
 8935W        W24404   1.238   2.854  15.187 -0.0363 -0.0086  0.3372
 8936W        W24405  15.174  15.647  12.788 -0.3806 -0.1433  0.0649
 8937W        W24406   5.056  17.350   0.156 -0.1497 -0.1591 -0.2298
 8938W        W24407  15.331  12.440   0.608  0.0939 -0.1020  0.0609
 8939W        W24408   8.303  12.456   3.019  0.1484 -0.2754 -0.0357
 8940W        W24409   7.048  14.746  15.677  0.3946  0.0520  0.3423
 8941W        W24410   6.882   1.292  12.955  0.0808  0.0759 -0.0232
 8942W        W24411   4.439   5.700   2.331  0.4522 -0.1910  0.1991
 8943W        W24412  15.608   3.176   4.633  0.0422  0.1620  0.0504
 8944W        W24413  14.556   2.129   4.348  0.0622 -0.0364  0.1414
 8945W        W24414   1.043  13.441   3.931 -0.0899  0.1130 -0.0116
 8946W        W24415  12.664   2.746  13.318 -0.4673 -0.0537  0.0125
 8947W        W24416  13.092   5.450   3.429  0.1978 -0.0781  0.2163
 8948W        W24417   9.180   2.980  14.880  0.0184  0.1130  0.2362
 8949W        W24418   4.479  11.984  11.078  0.1689  0.0828 -0.1956
 8950W        W24419  10.003   1.329   2.427 -0.3166 -0.2829  0.1762
 8951W        W24420  12.302   2.265   4.856 -0.2395 -0.2187  0.0435
 8952W        W24421   4.747   9.636  12.189  0.0423 -0.2796  0.0637
 8953W        W24422   1.519  11.623  11.901  0.1111 -0.1699  0.1089
 8954W        W24423  16.865   0.062  12.340  0.0886 -0.0985  0.1184
 8955W        W24424   8.744  17.507   2.390 -0.0523 -0.3444  0.0656
 8956W        W24425   9.472   1.329   2.500 -0.2030 -0.0073 -0.2446
 8957W        W24426  14.296   2.189   3.642  0.0860  0.0856 -0.4045
 8958W        W24427   4.389  15.961  15.322  0.2122 -0.1587 -0.0835
 8959W        W24428   7.849  10.216  14.129 -0.1218 -0.1553 -0.3338
 8960W        W24429  11.448   1.707  12.376 -0.0237  0.2392  0.2578
 8961W        W24430  10.951  14.519  14.124  0.0667 -0.0967  0.0981
 8962W        W24431   8.859   1.559  13.873  0.1451 -0.1369 -0.2272
 8963W        W24432   6.907  14.027   4.523 -0.2295  0.0708  0.0832
 8964W        W24433  16.943  13.454   4.385  0.1736 -0.0812  0.1808
 8965W        W24434   0.305   4.616  13.308 -0.0779  0.1509  0.2405
 8966W        W24435   9.324   2.141   0.840  0.0342  0.1158  0.0747
 8967W        W24436   6.915  14.119   3.949 -0.1483  0.2206 -0.0757
 8968W        W24437  15.850   2.850  10.892  0.1088  0.1440 -0.1651
 8969W        W24438   3.562  10.704   3.755  0.1780  0.0623 -0.0006
 8970W        W24439  17.186  15.506   1.448  0.0494  0.0010  0.0041
 8971W        W24440   7.396   4.226  12.100 -0.2525  0.2029 -0.2154
 8972W        W24441  15.855   5.402   5.827  0.3258 -0.2105  0.1989
 8973W        W24442   2.091   6.429  10.678 -0.0059  0.3301 -0.1053
 8974W        W24443   2.989  16.288   4.465 -0.0048  0.4226  0.2255
 8975W        W24444  16.643   5.081   2.269 -0.0696 -0.1004  0.4083
 8976W        W24445   1.745  13.241  10.332 -0.0334  0.2293  0.0979
 8977W        W24446   8.521   0.113  15.653 -0.0128 -0.3911 -0.0052
 8978W        W24447  17.074   1.655  10.790  0.0634  0.1705 -0.0483
 8979W        W24448   1.804   8.079   1.416  0.0099  0.0196 -0.1368
 8980W        W24449  16.435   0.030   4.053  0.2068 -0.2225  0.2846
 8981W        W24450   0.457   5.555  11.602  0.1531 -0.2840  0.0412
 8982W        W24451  13.129  11.520   0.737 -0.0005  0.2202 -0.0146
 8983W        W24452  13.941  18.023   1.868  0.1100  0.0218  0.0279
 8984W        W24453   0.874   3.670   0.413 -0.4276  0.0440 -0.1517
 8985W        W24454   5.723  12.435  11.426 -0.0912 -0.1906 -0.0851
 8986W        W24455  15.741   7.635   4.567  0.0894  0.0122  0.3068
 8987W        W24456   4.572   6.264   4.443 -0.1016  0.1014  0.0105
 8988W        W24457  17.274   1.424  13.370 -0.3013 -0.1368  0.2023
 8989W        W24458   5.288   4.862   1.247 -0.0583  0.1215 -0.0934
 8990W        W24459   2.661   1.588  12.780 -0.0478  0.2183  0.0717
 8991W        W24460  11.035  11.991  14.978  0.0265  0.3629  0.0386
 8992W        W24461  10.973  15.475   0.502  0.1290 -0.0513  0.0791
 8993W        W24462   7.276   9.397   0.408 -0.3465 -0.0018  0.0156
 8994W        W24463  13.927  10.918  15.775  0.2272 -0.0675 -0.0976
 8995W        W24464  15.916  17.333   4.273  0.1341 -0.1787  0.4034
 8996W        W24465   3.109  16.111  11.319  0.2255  0.0271 -0.0245
 8997W        W24466   0.160   7.501  15.037  0.3334  0.2659 -0.0272
 8998W        W24467  14.966  11.699  12.558 -0.0773  0.1285  0.1789
 8999W        W24468  13.969   9.643  14.812  0.0608  0.0999 -0.1337
 9000W        W24469  16.188   6.817  15.305  0.2998 -0.1868 -0.2203
 9001W        W24470   4.291   6.415  14.423 -0.0599 -0.2199  0.1229
 9002W        W24471   8.739  18.035  10.177 -0.0053 -0.1449  0.1641
 9003W        W24472  12.638  15.271  12.048 -0.0495  0.2519  0.2546
 9004W        W24473  15.715  15.099  12.022 -0.4515  0.0505 -0.2128
 9005W        W24474  10.452  16.096  14.096 -0.0829  0.2563 -0.1678
 9006W        W24475  11.727   8.527   1.188 -0.1481 -0.1321  0.1738
 9007W        W24476  10.269   4.699  14.707  0.0377 -0.0264  0.2135
 9008W        W24477  11.427  12.583  10.038 -0.0971 -0.1732 -0.0853
 9009W        W24478  12.240  17.630  15.474 -0.2880 -0.0914  0.5373
 9010W        W24479   4.061  12.687  15.694 -0.2919 -0.4503  0.0738
 9011W        W24480   8.139  17.818  13.815  0.1424  0.2363  0.4998
 9012W        W24481  11.371   2.991  11.243  0.1607 -0.3139 -0.0863
 9013W        W24482   2.749  14.876   2.626 -0.4390 -0.0072  0.2272
 9014W        W24483   7.772   2.866   3.275 -0.0497  0.0543 -0.1489
 9015W        W24484   8.282   1.207   0.911  0.2143  0.0689  0.0220
 9016W        W24485   2.992   5.007   4.046  0.1867  0.1659 -0.0394
 9017W        W24486  12.469   3.595  12.946 -0.0655  0.0638  0.0120
 9018W        W24487  16.656   4.534   4.234  0.0956 -0.0025  0.0367
 9019W        W24488   0.702  13.548   1.052  0.2251 -0.1298 -0.1986
 9020W        W24489   6.284   5.428  12.845  0.0408 -0.0954 -0.0865
 9021W        W24490  11.427  11.734  10.655  0.2535 -0.2193 -0.0552
 9022W        W24491  17.561  15.217   5.750  0.0723  0.2985  0.0211
 9023W        W24492   3.929  14.903  12.136 -0.0286 -0.1647  0.1132
 9024W        W24493   7.726   7.242   4.144  0.0178  0.2516  0.2507
 9025W        W24494  10.273  17.986   4.258  0.0445 -0.0387  0.0499
 9026W        W24495   7.037  12.014   0.507  0.5617  0.1401 -0.1313
 9027W        W24496  14.371  14.405  15.292  0.2064 -0.4505  0.0478
 9028W        W24497  16.015   5.417  12.902  0.2597  0.0046  0.1663
 9029W        W24498   6.657   7.138  14.541 -0.1159  0.2191  0.1471
 9030W        W24499  10.942   1.188  15.498 -0.0318  0.0093 -0.1039
 9031W        W24500  18.550  16.931  13.860  0.2618 -0.0656  0.0461
 9032W        W24501   8.381  17.009   3.649 -0.1568  0.4578 -0.2866
 9033W        W24502   8.025  15.414   5.276 -0.1209 -0.1394 -0.2675
 9034W        W24503   4.114  10.625  12.507 -0.1168 -0.1012 -0.1482
 9035W        W24504  14.525   4.925  12.796 -0.1328  0.0600  0.0503
 9036W        W24505   2.580  18.541  13.560 -0.3238 -0.0785  0.4517
 9037W        W24506  12.749   0.838   0.588 -0.7045 -0.2186 -0.0015
 9038W        W24507   9.777  12.022   4.515  0.0435 -0.0333 -0.0516
 9039W        W24508   8.922   9.500  15.367  0.1822 -0.0020 -0.1609
 9040W        W24509  14.952  10.855   3.356 -0.2119  0.1725 -0.0754
 9041W        W24510   1.227   1.820  13.005  0.1182 -0.2066  0.0373
 9042W        W24511  10.996   8.902  15.388 -0.1719 -0.1308 -0.0376
 9043W        W24512   2.679   3.185   3.967 -0.2032  0.1033  0.0100
 9044W        W24513   5.340  17.946   4.710  0.1432  0.0076 -0.1578
 9045W        W24514  11.618   8.205  12.712  0.0635  0.0935 -0.0174
 9046W        W24515  17.898   9.693  11.268 -0.1270 -0.1742  0.1864
 9047W        W24516   9.692   9.582  14.289  0.2173  0.1450 -0.0926
 9048W        W24517   0.237  13.843  13.436 -0.2830 -0.2725 -0.4472
 9049W        W24518   1.276  10.766  14.052  0.1393  0.2811 -0.0517
 9050W        W24519   0.450  13.117  12.983 -0.3763 -0.2232  0.1932
 9051W        W24520  16.281   8.664  11.787  0.0901  0.1388 -0.0706
 9052W        W24521  11.160  18.506  15.301  0.3301  0.1631  0.1833
 9053W        W24522   2.207   9.793  15.442  0.4149  0.1641 -0.0290
 9054W        W24523   5.477  15.320   3.249 -0.1392  0.0291  0.3302
 9055W        W24524   0.512  17.522  11.985  0.3988  0.1392  0.0534
 9056W        W24525  18.275   0.215   9.260 -0.3435 -0.1836  0.3069
 9057W        W24526  14.324   4.899  12.245 -0.0924 -0.5061 -0.4223
 9058W        W24527   1.273   6.818  15.468  0.0326  0.3531 -0.0865
 9059W        W24528   0.146   6.683   4.313  0.0175 -0.1509 -0.1042
 9060W        W24529   0.134  14.570  11.367 -0.2590 -0.0115  0.2355
 9061W        W24530   5.039   0.947  10.683  0.1128 -0.1249  0.0402
 9062W        W24531  16.296  14.095  14.085 -0.0409  0.0185 -0.0689
 9063W        W24532   6.276  14.979   2.527  0.1622 -0.0737  0.0568
 9064W        W24533   8.129   4.140   0.009  0.0846 -0.0431  0.0524
 9065W        W24534   3.175  11.203  12.063  0.1080  0.1791 -0.0345
 9066W        W24535   3.376  18.087  13.162  0.1468 -0.2405 -0.3437
 9067W        W24536   6.905   9.741  15.618  0.0937  0.0443  0.0652
 9068W        W24537  15.335  14.155  10.081  0.0608 -0.0368 -0.1431
 9069W        W24538  18.413  15.236  10.848  0.3835 -0.1316 -0.2737
 9070W        W24539   8.608  13.309   4.732  0.0672  0.1594  0.1386
 9071W        W24540   6.936   5.258   1.382 -0.0207  0.0441  0.1295
 9072W        W24541   9.473   7.949  11.109  0.1971  0.0113  0.1747
 9073W        W24542  16.799   6.321  11.124  0.1079 -0.3408  0.2119
 9074W        W24543   3.577   0.237  13.327  0.0741 -0.3648  0.1546
 9075W        W24544  18.014   4.302   3.948 -0.2206  0.0026 -0.0304
 9076W        W24545  15.317   5.379   4.008 -0.4557  0.1048 -0.3076
 9077W        W24546   7.863  14.164   5.479 -0.0669  0.0167  0.0396
 9078W        W24547  11.727   8.340  14.372 -0.2718  0.1052 -0.1753
 9079W        W24548  14.696  10.418   1.430  0.2208 -0.1694  0.0709
 9080W        W24549  16.987  18.498   3.193  0.3807  0.0380 -0.0037
 9081W        W24550   1.401   9.196   2.469 -0.1089 -0.0881 -0.2599
 9082W        W24551  15.801   1.102   2.164  0.0870  0.2136  0.1029
 9083W        W24552   8.793  16.500   2.994  0.0446  0.0325  0.1478
 9084W        W24553  15.244  16.813   4.446 -0.1850  0.2717 -0.1959
 9085W        W24554  10.147   5.432  14.241  0.0569  0.0659 -0.3472
 9086W        W24555  11.620   6.941  11.963 -0.1970  0.5870 -0.0482
 9087W        W24556  17.068   0.904  10.883  0.2211 -0.1214 -0.2416
 9088W        W24557  11.972   3.040  12.098  0.0372 -0.0842 -0.0263
 9089W        W24558  17.032  16.995   3.126 -0.0235 -0.0602 -0.1571
 9090W        W24559  10.467   7.446  13.081 -0.1884  0.0300 -0.1753
 9091W        W24560  18.688   7.738   1.490  0.3328 -0.0430 -0.1854
 9092W        W24561  17.254   3.857   3.197 -0.2526 -0.1553 -0.1315
 9093W        W24562  13.159   6.399  10.439  0.0239  0.0478  0.1038
 9094W        W24563  13.722  17.290  13.225  0.0657 -0.0256  0.2563
 9095W        W24564  14.716   7.119   1.219 -0.2399  0.0066  0.4351
 9096W        W24565  10.110  12.347  11.504  0.0767 -0.4225 -0.1451
 9097W        W24566   2.293   9.088   0.433 -0.1417 -0.2819  0.0128
 9098W        W24567  17.805   2.980  11.532  0.1617  0.0742 -0.0694
 9099W        W24568  17.382   6.462  14.801  0.1804 -0.0290 -0.3756
 9100W        W24569   0.817   4.216  15.770 -0.3111 -0.0166 -0.0066
 9101W        W24570   6.865   6.842   4.169 -0.2533  0.1287 -0.1115
 9102W        W24571  12.628  18.500  10.906 -0.1552 -0.1143  0.1505
 9103W        W24572  12.013   4.138   5.843  0.3862  0.1646 -0.2265
 9104W        W24573  13.729  16.983  14.224 -0.1253 -0.0196  0.0851
 9105W        W24574  12.087  16.331  10.193  0.5235  0.0304 -0.0174
 9106W        W24575  16.255   8.494   3.650  0.0003  0.0761 -0.0075
 9107W        W24576  14.456   2.328  10.781  0.2007 -0.1110 -0.0756
 9108W        W24577   9.653  12.454  11.815 -0.1812  0.1739  0.1008
 9109W        W24578   4.334   0.494   3.910 -0.2061  0.1556  0.1087
 9110W        W24579   4.401   2.148   4.374  0.1587  0.0715 -0.1678
 9111W        W24580   0.023  11.902  13.037 -0.1114  0.4629 -0.3954
 9112W        W24581  11.071   4.172  12.106 -0.0193  0.1442 -0.1550
 9113W        W24582   4.043   5.880  13.836 -0.2664  0.1942 -0.0232
 9114W        W24583   6.818   7.590  12.300 -0.2501 -0.1771  0.0302
 9115W        W24584   5.226  11.733  12.696 -0.1668 -0.2403 -0.0556
 9116W        W24585   2.167  11.541  15.719 -0.2413 -0.0516  0.1552
 9117W        W24586   5.482  14.778   0.698  0.0034  0.1533 -0.2110
 9118W        W24587  15.482   3.156   1.167  0.1834 -0.2125  0.0122
 9119W        W24588  15.872  14.083  13.873  0.2237 -0.0118 -0.0823
 9120W        W24589  17.120  16.429   4.083  0.1085 -0.0169 -0.2240
 9121W        W24590   2.040  14.307   4.299  0.1019  0.2429  0.0544
 9122W        W24591   3.808   3.301  14.228 -0.0325 -0.0018 -0.4190
 9123W        W24592   7.067  12.514   2.811  0.1929  0.3149  0.1755
 9124W        W24593  11.001  15.490   0.036  0.0560  0.3013  0.3588
 9125W        W24594  16.191  12.310   4.374 -0.1179 -0.0175  0.0518
 9126W        W24595   2.865  17.052  13.185 -0.0196 -0.2027 -0.0087
 9127W        W24596  12.798  14.647   4.802  0.1537 -0.1388 -0.3873
 9128W        W24597  15.756  18.573  12.937 -0.0119 -0.0557  0.0996
 9129W        W24598   9.561   0.593   5.429 -0.2543  0.1587 -0.0497
 9130W        W24599  16.611   0.025  15.301 -0.3393 -0.2817 -0.1773
 9131W        W24600  10.588   5.489  14.817  0.1617  0.3159  0.0035
 9132W        W24601   0.423   1.881  14.134  0.0585 -0.2710  0.0276
 9133W        W24602   7.605  14.552   3.816 -0.1873 -0.1176 -0.1288
 9134W        W24603  13.283  10.200  14.380 -0.3263 -0.1421  0.1914
 9135W        W24604  10.868   5.798  15.218  0.0494 -0.3919 -0.2287
 9136W        W24605  12.291   2.143  15.014  0.0001 -0.2687  0.0045
 9137W        W24606   7.852  12.944  14.364 -0.1432  0.0714  0.0991
 9138W        W24607   2.801  11.491  13.682  0.1364  0.0133 -0.0959
 9139W        W24608   2.040   5.460  14.273  0.0094  0.1358 -0.3700
 9140W        W24609   5.869   6.564   2.159 -0.0130 -0.1667 -0.3068
 9141W        W24610   5.654  10.233   1.026  0.0648 -0.0758 -0.1107
 9142W        W24611  10.987   7.763   4.281 -0.5390 -0.1365 -0.2616
 9143W        W24612   7.943  16.223  11.151 -0.0877  0.1796  0.3427
 9144W        W24613  10.322   9.166   0.898  0.1851 -0.0008 -0.1552
 9145W        W24614  11.912  16.796  10.739 -0.2288 -0.1618  0.0973
 9146W        W24615  14.461  14.632  14.660  0.3034  0.1103 -0.4118
 9147W        W24616  18.472   8.906   2.799  0.2067  0.2285 -0.3610
 9148W        W24617  18.586   3.149  12.094  0.1157 -0.0181 -0.0871
 9149W        W24618   4.221  14.108   6.297  0.1455 -0.2754  0.1750
 9150W        W24619   5.101   0.528   2.382 -0.0832 -0.2062  0.2886
 9151W        W24620   1.526   9.080  12.035  0.3030  0.4282  0.1894
 9152W        W24621  11.529   4.426  13.718 -0.0145 -0.2885  0.0837
 9153W        W24622  16.686  10.076   5.258  0.0438  0.1431 -0.0687
 9154W        W24623   5.496   0.638  12.229 -0.4995 -0.2417 -0.1038
 9155W        W24624  12.482  18.680   0.744  0.0233 -0.2082 -0.0175
 9156W        W24625  12.782  10.628   3.345 -0.0868  0.0735  0.1420
 9157W        W24626  14.660   0.018   3.288 -0.1340 -0.0524  0.1537
 9158W        W24627   5.950   2.369   2.126 -0.0328 -0.0036 -0.1183
 9159W        W24628   4.564   5.087   3.887 -0.2612  0.2070  0.1153
 9160W        W24629  10.244   2.886   4.212  0.1046  0.3836  0.0954
 9161W        W24630  11.369   4.004   3.994 -0.0214  0.2214  0.4037
 9162W        W24631  17.583   6.741  12.653 -0.1129  0.3392  0.1125
 9163W        W24632  11.999  11.944   4.053  0.0892  0.1091 -0.0130
 9164W        W24633   8.162   6.698  12.358 -0.3882 -0.0507 -0.0998
 9165W        W24634  15.584  11.857  11.771  0.1100  0.1557  0.1409
 9166W        W24635  13.791   4.569  14.868 -0.2677 -0.0369  0.2287
 9167W        W24636  13.701  16.117   0.828  0.3018  0.2288 -0.3796
 9168W        W24637  14.876  16.274  14.538 -0.1062 -0.0991  0.5296
 9169W        W24638   1.242  10.201   3.971  0.0850 -0.3327 -0.2812
 9170W        W24639  11.924   3.280   5.057  0.0137 -0.0041  0.0115
 9171W        W24640   5.764   8.381  12.838 -0.2839  0.4144  0.0293
 9172W        W24641   8.058   9.967   3.867 -0.0788 -0.1423  0.0321
 9173W        W24642  11.799   4.958   4.590 -0.0775  0.1946  0.1188
 9174W        W24643   7.282   1.458   1.814 -0.0481  0.3305  0.1569
 9175W        W24644  16.765  11.725   3.171  0.2705  0.1736  0.1986
 9176W        W24645  17.033  12.709   5.771 -0.1196  0.1645 -0.0329
 9177W        W24646   4.809   3.122  11.234  0.1483  0.0391 -0.0970
 9178W        W24647   6.782  16.230   2.184  0.0093 -0.3174 -0.1551
 9179W        W24648   9.135  14.554  11.235  0.1709  0.2169 -0.1951
 9180W        W24649   8.323  18.486  12.380 -0.3259 -0.1907 -0.0337
 9181W        W24650  13.104   3.571   9.597 -0.0662 -0.0760  0.1872
 9182W        W24651   4.138  10.028   2.230 -0.1385  0.0652 -0.0630
 9183W        W24652   7.984  12.050  12.504 -0.0586 -0.2701 -0.0898
 9184W        W24653  13.676   6.176   0.652 -0.4721  0.0435 -0.0989
 9185W        W24654  11.092   9.876   4.477 -0.1943  0.6333 -0.0621
 9186W        W24655   6.713   0.501   4.856 -0.3614 -0.2924 -0.1324
 9187W        W24656   1.022   6.666  10.867 -0.0939  0.0190  0.0632
 9188W        W24657   8.347   7.752  12.735  0.0624 -0.1134 -0.0876
 9189W        W24658  11.869  17.898  12.649 -0.0959  0.0825  0.0475
 9190W        W24659  16.755  16.502  15.716  0.3563 -0.0938  0.2150
 9191W        W24660   1.197  11.220  13.135  0.0920 -0.1647  0.1671
 9192W        W24661  15.786   1.104   3.707 -0.1742 -0.2538 -0.0317
 9193W        W24662  13.265   0.251  11.918 -0.2022  0.2767 -0.0626
 9194W        W24663   9.537  16.611  13.521  0.1211  0.2596 -0.2133
 9195W        W24664  13.567   4.928  13.526 -0.0114  0.0079 -0.3305
 9196W        W24665   4.775  18.415  13.035 -0.0294  0.1547  0.2158
 9197W        W24666  13.040   3.590  14.330  0.0282 -0.1898  0.0031
 9198W        W24667  13.036   2.501  14.380  0.3774 -0.1262  0.3042
 9199W        W24668  13.582   9.846   2.199 -0.1776 -0.2758  0.0292
 9200W        W24669  13.959   2.610  10.677  0.3814  0.0386  0.1155
 9201W        W24670  13.837   1.323   3.334  0.0435  0.1496  0.0110
 9202W        W24671   0.320  13.839  15.452 -0.1919 -0.1114  0.0546
 9203W        W24672  16.441   8.442  14.655  0.2694  0.3831 -0.3267
 9204W        W24673   2.790  13.799   2.800 -0.1056  0.4933 -0.0231
 9205W        W24674   6.946   5.322   0.140  0.0977  0.0475 -0.0023
 9206W        W24675   3.247   3.812   1.726 -0.1086  0.1675  0.2677
 9207W        W24676  17.370  13.192  11.452 -0.1649 -0.1695 -0.1592
 9208W        W24677  11.029  16.652  10.640 -0.0649  0.2472 -0.0905
 9209W        W24678  17.161  13.927   4.199  0.2131  0.2258 -0.0473
 9210W        W24679   2.312   6.285  13.141  0.0181  0.0543  0.1475
 9211W        W24680  15.982   5.498   5.340 -0.1637 -0.1772  0.0771
 9212W        W24681   7.441   2.535  13.843 -0.1186 -0.1117 -0.0890
 9213W        W24682   6.677  16.351   4.427 -0.1413 -0.1141  0.0998
 9214W        W24683  16.795  14.939  15.077 -0.4040 -0.0238  0.4356
 9215W        W24684   8.902  10.647   1.722 -0.0748  0.0281 -0.0208
 9216W        W24685  10.569   2.629  13.488 -0.0104 -0.0959  0.1032
 9217W        W24686   4.306   5.327  14.567  0.1531 -0.0802  0.1034
 9218W        W24687   0.516  15.043   1.715 -0.2435 -0.0467 -0.0147
 9219W        W24688  15.531  17.978  15.077  0.0806  0.1826  0.1294
 9220W        W24689  13.898   6.514   4.156 -0.3096  0.0504 -0.2774
 9221W        W24690   5.476  17.743   2.653  0.0918  0.2968 -0.0977
 9222W        W24691   5.072   1.089   2.404  0.0861 -0.0245  0.2138
 9223W        W24692  12.916  18.080   4.135  0.2085 -0.1037  0.2644
 9224W        W24693   0.115  15.870   2.478  0.0199  0.0759 -0.1087
 9225W        W24694   8.657   4.210   3.719  0.4154  0.3512  0.1865
 9226W        W24695   8.840   5.347   2.569 -0.1619  0.1298  0.0589
 9227W        W24696   5.457  11.610  14.307  0.2225 -0.0255 -0.2217
 9228W        W24697   4.105  17.510   2.934 -0.0711  0.0093  0.1749
 9229W        W24698   5.437   6.067  12.280 -0.0746  0.0194 -0.1339
 9230W        W24699  12.979   5.437  15.670  0.0822 -0.1080 -0.2621
 9231W        W24700   7.965   4.855  15.113  0.3462 -0.0548  0.1880
 9232W        W24701  15.143   4.920   4.887  0.0639 -0.0329  0.0943
 9233W        W24702  10.927   3.848   9.983 -0.0572 -0.1441  0.0224
 9234W        W24703  14.888   2.691  10.680 -0.1873 -0.2184 -0.0423
 9235W        W24704  18.451  12.731  15.280 -0.0097  0.1837 -0.3738
 9236W        W24705  17.919  15.483   0.218  0.0041  0.3094 -0.0155
 9237W        W24706   1.914   6.529  11.449 -0.2252  0.0246 -0.1033
 9238W        W24707  18.271  18.303  11.099  0.1247  0.1285  0.0049
 9239W        W24708  10.571   3.755   2.910 -0.1314  0.0928 -0.3635
 9240W        W24709   1.070  17.505   1.160 -0.1064  0.1347  0.1953
 9241W        W24710   0.028   1.257   2.818 -0.0370  0.1374  0.0444
 9242W        W24711   1.935  11.117   1.587 -0.0028  0.1285  0.1184
 9243W        W24712   7.278   6.945  10.802 -0.0499  0.1744 -0.0044
 9244W        W24713  13.235   2.956   2.338  0.3927 -0.1787  0.1882
 9245W        W24714  17.384   2.662   4.963  0.0880 -0.0952  0.0523
 9246W        W24715  13.184  17.511   1.525 -0.1083  0.0636 -0.3497
 9247W        W24716   1.598   2.091   0.723 -0.1101 -0.3704  0.1032
 9248W        W24717   1.029   5.067  13.465  0.0500 -0.0339  0.0911
 9249W        W24718  16.831  13.019   0.251  0.2656  0.0586  0.0014
 9250W        W24719  14.488  13.337   1.119 -0.3029  0.3215 -0.2176
 9251W        W24720   0.804   3.036  14.931  0.0541  0.0397  0.2928
 9252W        W24721   1.191  15.773   4.871 -0.2055 -0.0499  0.3614
 9253W        W24722  16.108   8.853  14.511  0.0815 -0.2261  0.2796
 9254W        W24723   7.391  18.669  11.194  0.0149  0.0923 -0.0403
 9255W        W24724  11.743  13.610  13.875  0.2883 -0.0369  0.1122
 9256W        W24725   5.686  17.539   3.168 -0.4334 -0.0377  0.0779
 9257W        W24726  14.048  14.627  10.614 -0.1183 -0.0844  0.0639
 9258W        W24727  14.393  15.275  15.561  0.2663  0.0769 -0.2154
 9259W        W24728   8.386  16.807   5.015  0.1125 -0.2778 -0.0859
 9260W        W24729  15.249   1.821  10.264  0.0742 -0.1143  0.0055
 9261W        W24730   3.761   6.534   0.260  0.3166 -0.0974 -0.0741
 9262W        W24731  10.205   9.021   4.925 -0.0460  0.0770 -0.0867
 9263W        W24732  16.040   4.013   2.990  0.0583 -0.1716 -0.0691
 9264W        W24733   8.061   6.239   1.303  0.5371  0.0386  0.0050
 9265W        W24734   9.816   8.802   4.213  0.1117 -0.2298 -0.0127
 9266W        W24735  16.590  17.945   4.250  0.0525 -0.3190 -0.2239
 9267W        W24736  10.995   9.561  12.480  0.2218  0.1482 -0.1406
 9268W        W24737   2.774   3.632   1.479  0.0463 -0.0438  0.4020
 9269W        W24738  14.621   5.562  11.290 -0.2573  0.2784 -0.2770
 9270W        W24739  10.165  14.609  10.988 -0.0514 -0.0881  0.3502
 9271W        W24740   9.630   6.037  13.158 -0.0206  0.0487  0.1655
 9272W        W24741   6.438  17.233  13.165 -0.1238  0.1088  0.2069
 9273W        W24742   8.509  16.827  13.531 -0.2797  0.1863 -0.3812
 9274W        W24743  11.169   6.812   3.487  0.0181  0.2015 -0.3466
 9275W        W24744  16.437   2.129   4.270 -0.0750 -0.1438  0.0164
 9276W        W24745   2.567  14.940  11.142 -0.0639 -0.0192  0.0067
 9277W        W24746  11.438   6.189  10.680 -0.2837 -0.1644 -0.2304
 9278W        W24747  13.049   5.927   3.916  0.0103 -0.1556  0.0317
 9279W        W24748   7.808  14.898   2.530  0.0727 -0.2605  0.0714
 9280W        W24749   0.034  14.079  15.088  0.2985 -0.1390  0.0905
 9281W        W24750   1.745  18.116  13.599  0.1437 -0.0083 -0.1988
 9282W        W24751  11.328   8.626   2.844  0.1014 -0.0783 -0.0532
 9283W        W24752   9.320  16.751   2.885  0.2860 -0.0159  0.2400
 9284W        W24753   6.064   0.519  11.238 -0.0027  0.0564  0.2941
 9285W        W24754   6.856   9.976   0.305  0.1992 -0.1312  0.1639
 9286W        W24755   1.000   2.799  13.620  0.0527  0.4740 -0.0890
 9287W        W24756   7.454   1.351  14.038  0.0329  0.2514  0.1439
 9288W        W24757   4.079  11.184   5.299 -0.2357 -0.0345 -0.2371
 9289W        W24758  13.579   9.174  11.906  0.0971 -0.1484  0.1027
 9290W        W24759   2.740  16.642  11.301 -0.1557 -0.2270  0.1857
 9291W        W24760  16.419   7.308   5.800  0.0631 -0.1631  0.0114
 9292W        W24761   9.094   8.564   0.242  0.1697 -0.1288  0.3322
 9293W        W24762  13.422  14.690  12.051  0.0010 -0.2158 -0.0586
 9294W        W24763   4.503   4.463   1.178  0.1147  0.1885 -0.0767
 9295W        W24764   8.135   8.473  15.405 -0.4349  0.3099  0.2121
 9296W        W24765  10.474  13.671   4.046 -0.1011  0.3775 -0.3006
 9297W        W24766  16.299  14.092   3.662  0.1572 -0.1480  0.1598
 9298W        W24767   6.853   3.017  10.592  0.0969  0.0493 -0.0132
 9299W        W24768   6.771   7.020  10.893 -0.0563  0.1068  0.0596
 9300W        W24769   2.660  15.803  11.216 -0.0326 -0.3720 -0.1772
 9301W        W24770  13.391  17.478   4.725 -0.2665 -0.1294  0.3380
 9302W        W24771   5.143  16.621   4.802 -0.1607 -0.1395  0.0217
 9303W        W24772   7.134   4.216  11.526  0.1272 -0.2920  0.0251
 9304W        W24773   7.422  12.095  12.525 -0.2315 -0.0887  0.0603
 9305W        W24774   8.585   7.568   0.474 -0.0325 -0.4135 -0.2263
 9306W        W24775   0.152   2.613   1.357  0.3352 -0.0793  0.0611
 9307W        W24776  15.082   4.934  14.021  0.3539 -0.0414 -0.1652
 9308W        W24777  12.166   4.714  11.265 -0.2566 -0.1841  0.1100
 9309W        W24778   9.752   1.906   0.715  0.4425  0.1324 -0.0922
 9310W        W24779   2.160  13.350   2.204  0.1504  0.3199  0.0191
 9311W        W24780   7.178  10.370  14.302 -0.0602 -0.3926  0.0093
 9312W        W24781  16.014   9.824   3.294  0.0823  0.4028  0.2039
 9313W        W24782   7.613   7.472   2.728  0.2572  0.0294 -0.0950
 9314W        W24783   7.672  14.260   3.303  0.0374 -0.0976  0.1104
 9315W        W24784   2.155  11.230   3.792  0.2597 -0.0973 -0.1023
 9316W        W24785  12.782   4.953   4.840 -0.1304  0.0719 -0.0366
 9317W        W24786  12.372  18.588   2.751  0.1539  0.3651 -0.1717
 9318W        W24787  12.344  18.094  12.262  0.2517  0.1162  0.0197
 9319W        W24788   7.147  15.475  14.208 -0.2214  0.0631 -0.1228
 9320W        W24789  17.458   0.448   0.373  0.0980  0.0019  0.1039
 9321W        W24790  10.693  18.034   1.651  0.3147 -0.1030  0.0162
 9322W        W24791   8.683  16.610  12.187  0.1427  0.0571  0.1177
 9323W        W24792   9.709  15.405  13.957 -0.0520 -0.0003  0.0100
 9324W        W24793   9.473   6.079   3.356  0.2770  0.1975 -0.2116
 9325W        W24794   0.317  15.373  11.713 -0.2852  0.1518  0.0862
 9326W        W24795   6.008  14.366  11.925  0.2270  0.4154  0.0060
 9327W        W24796  13.211  17.641   9.679  0.5827  0.3102 -0.1011
 9328W        W24797   0.540  12.423   1.850  0.2665 -0.0256  0.1843
 9329W        W24798   6.655   6.773   4.632 -0.0373 -0.2596 -0.1009
 9330W        W24799   7.038  14.342  11.974 -0.3261 -0.2481 -0.0359
 9331W        W24800   1.969   2.254  14.336 -0.0616  0.0602 -0.0859
 9332W        W24801   0.681   8.408  13.264 -0.0800  0.1196  0.0090
 9333W        W24802   6.859  12.377  11.200 -0.1288  0.0484 -0.4287
 9334W        W24803   5.367  15.067  12.168 -0.1174 -0.3204 -0.3400
 9335W        W24804   3.625  18.393  14.587 -0.0905 -0.1857  0.1477
 9336W        W24805   8.099  17.989   4.950  0.0704 -0.2376  0.0294
 9337W        W24806   6.291  13.944  11.559 -0.0241 -0.2974  0.3928
 9338W        W24807   5.427  13.816   0.785  0.2519  0.0026  0.2584
 9339W        W24808  10.266   1.992  10.439  0.4273  0.1450 -0.4731
 9340W        W24809  17.792   8.675   0.213  0.1538 -0.0902 -0.1460
 9341W        W24810   1.095   8.741  10.498 -0.1620 -0.0898  0.1982
 9342W        W24811  13.943  12.294  15.160 -0.0935 -0.2336 -0.0664
 9343W        W24812  17.370   6.605  13.702 -0.4024  0.0361  0.0592
 9344W        W24813   3.792  18.539   1.349  0.0278  0.3477  0.2698
 9345W        W24814   0.565  16.890   9.563 -0.6420 -0.1220 -0.0349
 9346W        W24815  12.401   6.123   2.293  0.1243 -0.1665 -0.1275
 9347W        W24816   6.495  18.367  14.690 -0.3664 -0.0581  0.1951
 9348W        W24817   9.787   7.919   4.858  0.2394 -0.0011  0.2128
 9349W        W24818  11.338  17.765   4.927  0.2608 -0.0301  0.2627
 9350W        W24819   7.765   3.493  11.654  0.3514 -0.0217 -0.3919
 9351W        W24820  16.732  16.248   0.451 -0.0747  0.0737  0.2935
 9352W        W24821  11.117  15.795   1.408  0.0752 -0.1997 -0.2498
 9353W        W24822  12.433  17.053   2.586  0.0872  0.1813  0.0304
 9354W        W24823  16.647   8.702  13.745 -0.2331 -0.3972  0.0355
 9355W        W24824   9.553   1.253   2.000  0.3749  0.1900 -0.1344
 9356W        W24825  10.783  14.758   0.461  0.2649 -0.0608  0.1265
 9357W        W24826  17.626  16.395  15.780 -0.1027 -0.0151  0.2781
 9358W        W24827   9.295  12.152  11.580  0.3947  0.2483  0.3599
 9359W        W24828  12.303  13.691  12.714  0.2400  0.0374  0.2987
 9360W        W24829   6.786  18.147   0.690  0.1146 -0.0144 -0.1155
 9361W        W24830   9.683  10.315  10.927  0.4880  0.0811  0.5449
 9362W        W24831   1.422   0.450  15.127 -0.0438  0.0652  0.3033
 9363W        W24832   8.570  11.291  14.374 -0.0133 -0.0028  0.0793
 9364W        W24833  17.606  15.929   4.687  0.0112 -0.0199 -0.0815
 9365W        W24834  11.375  12.640  10.551  0.0315 -0.1581  0.1323
 9366W        W24835  15.667   6.976  12.860  0.0923 -0.1620  0.0858
 9367W        W24836  10.568   6.435   2.604  0.1414 -0.3351  0.2940
 9368W        W24837  15.135  13.636  14.967 -0.0274  0.2708 -0.0484
 9369W        W24838  13.712  13.984   2.032 -0.2205 -0.5281  0.0950
 9370W        W24839  14.083   6.374  12.883  0.1803  0.1304 -0.0158
 9371W        W24840  12.289   4.210   4.053 -0.3488 -0.0603  0.1451
 9372W        W24841   8.440   8.137   3.564 -0.1730 -0.2975 -0.1328
 9373W        W24842   1.035  17.714   4.526 -0.0422  0.4970  0.1941
 9374W        W24843  16.839   1.439  12.428  0.2809 -0.0681  0.1625
 9375W        W24844  18.684  12.256   3.380 -0.1663 -0.1696 -0.1724
 9376W        W24845   4.524   7.953  10.933 -0.4134 -0.0058  0.1218
 9377W        W24846   2.200   3.052   4.208 -0.3706 -0.0044  0.3404
 9378W        W24847   1.781  12.023  13.255 -0.1602  0.3593  0.0165
 9379W        W24848  15.712  11.101  15.157 -0.0907 -0.2771  0.3386
 9380W        W24849   1.650   1.419   1.845 -0.0265 -0.3348 -0.0678
 9381W        W24850  17.350  13.723  13.838 -0.1762  0.0845  0.0344
 9382W        W24851   3.624   2.198  12.412  0.0530 -0.0377  0.0400
 9383W        W24852  10.466   1.457   1.729 -0.3098  0.1435  0.4152
 9384W        W24853   8.571   6.887   3.298  0.5591 -0.3038 -0.1481
 9385W        W24854  11.347   1.432   5.166  0.1168 -0.0313 -0.1795
 9386W        W24855   7.078   7.046   0.161 -0.2417  0.3947  0.0215
 9387W        W24856   8.027   4.394   0.561  0.0049 -0.0796  0.1301
 9388W        W24857   9.190   9.967   0.008  0.0155 -0.2461  0.0832
 9389W        W24858  17.142   9.774  15.666 -0.2658 -0.0596 -0.2131
 9390W        W24859   6.024   3.974   2.273  0.1297 -0.1802  0.2134
 9391W        W24860   4.705   9.571  14.596 -0.1529 -0.0781  0.0541
 9392W        W24861  11.691   4.876  14.027 -0.0820 -0.2578 -0.1547
 9393W        W24862  17.830  11.022  10.887 -0.0071  0.0024  0.0235
 9394W        W24863  15.043  11.807  12.086 -0.1565  0.2159 -0.2153
 9395W        W24864   2.965   1.788  10.609  0.0227 -0.3413 -0.5582
 9396W        W24865   3.091  13.759   5.825 -0.3912  0.0042  0.0191
 9397W        W24866   9.284  12.082   4.143  0.0183  0.0241  0.2065
 9398W        W24867   9.745   7.521   3.329  0.0630 -0.3994  0.1936
 9399W        W24868  14.014  13.074  12.205  0.2400 -0.0232 -0.1601
 9400W        W24869  11.199   9.194   4.542  0.0727  0.3428  0.3155
 9401W        W24870  11.874  12.347   3.267  0.0179 -0.5278  0.0022
 9402W        W24871   7.555   7.365   5.812  0.0166 -0.1107  0.1837
 9403W        W24872  13.642  17.798  13.183 -0.4166 -0.1782 -0.2492
 9404W        W24873   6.262   7.260  10.999 -0.1360  0.1273  0.0451
 9405W        W24874  15.467  11.782  14.277  0.0999  0.3694  0.0478
 9406W        W24875   1.132  12.607  15.381  0.2576  0.0195  0.0652
 9407W        W24876  17.637  14.181  13.759  0.0478  0.2351 -0.0751
 9408W        W24877  16.530  17.204   2.475  0.1480  0.0182 -0.0235
 9409W        W24878   5.813  18.260  13.217 -0.2579  0.3202 -0.1449
 9410W        W24879   7.078  18.336  12.444  0.1707 -0.0864 -0.0624
 9411W        W24880   0.696   6.034  14.321  0.0259 -0.1505  0.0092
 9412W        W24881   2.882  14.242  15.609 -0.0624  0.2484  0.2935
 9413W        W24882   0.845   9.804  11.216 -0.1533 -0.0029 -0.1501
 9414W        W24883   9.485   1.419  15.415 -0.0393 -0.2314  0.1926
 9415W        W24884  16.520  10.347   5.732 -0.2426  0.1772  0.1161
 9416W        W24885  11.448   3.641   5.107  0.1411  0.1025 -0.2883
 9417W        W24886  15.454   6.381   4.743  0.1011  0.2148  0.0678
 9418W        W24887  11.203  14.955  15.000 -0.1737  0.2364  0.0555
 9419W        W24888  16.070   9.334   3.248  0.0658  0.2587 -0.0590
 9420W        W24889  14.290  15.747  10.448  0.0045 -0.1204 -0.6447
 9421W        W24890   8.497   7.378  11.158 -0.0001 -0.2068  0.1474
 9422W        W24891  12.769  17.213   1.436 -0.1512 -0.1115  0.0627
 9423W        W24892   6.778   7.483  11.018 -0.0523 -0.1110  0.2848
 9424W        W24893  15.376   4.779   5.429  0.0044 -0.2970  0.0041
 9425W        W24894   4.121   1.042   4.837 -0.0245 -0.0128  0.2395
 9426W        W24895  14.394  16.151  13.394 -0.1032  0.0773  0.1987
 9427W        W24896  10.167  16.485  11.125 -0.2022  0.0700 -0.3623
 9428W        W24897  11.045  12.337  11.829 -0.0101  0.2506  0.3551
 9429W        W24898   7.210  17.615  15.302 -0.0428 -0.3512 -0.0205
 9430W        W24899   3.416   9.000  13.184  0.2907  0.0635  0.0770
 9431W        W24900   1.372   3.322   2.114  0.2752  0.1401  0.0573
 9432W        W24901   6.942   9.769  12.041 -0.0735  0.1221 -0.4164
 9433W        W24902   1.438  13.145  13.115  0.0122  0.0724  0.0327
 9434W        W24903   4.690   5.437  14.208  0.0780 -0.0118 -0.1532
 9435W        W24904   0.306   3.455   3.144 -0.0285  0.1213  0.0737
 9436W        W24905   8.826   0.821   3.107 -0.1980  0.1504 -0.0558
 9437W        W24906   8.366   9.080   4.021 -0.3565 -0.1067  0.1943
 9438W        W24907  17.026   9.855   3.916 -0.1236  0.0637  0.2338
 9439W        W24908   0.921   5.163  15.562 -0.0815  0.0614 -0.0740
 9440W        W24909   7.275  13.303   4.504  0.0525 -0.2282  0.0139
 9441W        W24910   3.603  14.219  11.511 -0.2549  0.2478 -0.1244
 9442W        W24911   6.850   0.339  13.539  0.0680  0.0314  0.2800
 9443W        W24912   3.541   3.268   2.515  0.1212  0.4165 -0.1064
 9444W        W24913   0.292   5.496  10.624 -0.0129 -0.1805 -0.0766
 9445W        W24914  17.280   4.264   9.859 -0.1517 -0.0393 -0.0445
 9446W        W24915  13.242  11.641   0.176  0.1207 -0.3216  0.4049
 9447W        W24916  16.773   7.951  13.397 -0.0258 -0.1114 -0.3019
 9448W        W24917  15.592  16.973  11.567 -0.1538 -0.2466 -0.1774
 9449W        W24918   6.284   1.007  15.024  0.1691  0.1249 -0.0555
 9450W        W24919   5.215  16.588  14.376 -0.1218 -0.1436  0.1134
 9451W        W24920   6.321   4.387   0.226 -0.2013  0.4721 -0.0832
 9452W        W24921  15.329  13.137   4.367  0.1557  0.0124 -0.0628
 9453W        W24922   4.730   4.834   5.532 -0.0026 -0.1821 -0.0934
 9454W        W24923   2.758  12.559   2.233 -0.1359 -0.1420  0.0098
 9455W        W24924  14.915   1.042   2.655  0.1839 -0.0859 -0.1858
 9456W        W24925   4.063   9.552   3.501  0.2067 -0.1750  0.0880
 9457W        W24926   5.079   9.748   5.436  0.1016  0.1603  0.2486
 9458W        W24927   8.388  14.525   4.817 -0.1692 -0.0398 -0.2053
 9459W        W24928  17.174  15.175  12.174 -0.4097 -0.1929 -0.2008
 9460W        W24929   1.878  16.388   4.381  0.2671  0.0229  0.1504
 9461W        W24930   8.703  10.783  14.335  0.0757  0.2508 -0.1669
 9462W        W24931   7.470   2.078   3.743 -0.2245  0.0100 -0.1396
 9463W        W24932   5.042  13.816   0.383  0.0224 -0.2410  0.3861
 9464W        W24933  13.204  18.153  15.348  0.0516 -0.0241  0.1274
 9465W        W24934   7.818   8.707   0.136 -0.0028  0.2133  0.3706
 9466W        W24935   2.041   8.440  11.576 -0.0050  0.1515  0.0118
 9467W        W24936  10.036   8.601  12.735  0.1067 -0.1734  0.1221
 9468W        W24937  12.970  13.432   0.810 -0.0169 -0.0587 -0.2123
 9469W        W24938  12.544   3.104   4.250  0.2741  0.2455  0.0770
 9470W        W24939   0.977  12.224  11.302 -0.0758  0.2538 -0.1339
 9471W        W24940   3.950  11.389  12.994 -0.0683 -0.1921  0.3513
 9472W        W24941   2.529   6.233   5.106 -0.1784  0.1141 -0.1622
 9473W        W24942   3.154   2.815   1.884  0.4603 -0.1762 -0.0326
 9474W        W24943  16.151  10.765   5.751 -0.1504  0.0212 -0.0854
 9475W        W24944  13.009   6.643  15.716 -0.1202 -0.2413 -0.3737
 9476W        W24945  16.207   8.936  13.297 -0.1112  0.1487 -0.3043
 9477W        W24946   5.065   9.884   6.556  0.0923  0.0461  0.3079
 9478W        W24947   6.043  14.711   6.186  0.1035 -0.0490 -0.2742
 9479W        W24948   2.701   1.553  11.403 -0.0907 -0.5859 -0.1038
 9480W        W24949   0.132   1.341   1.046  0.0130 -0.2816  0.0066
 9481W        W24950  14.425   8.896  11.172 -0.3563  0.1687  0.2844
 9482W        W24951   2.860   8.493  15.675  0.1875 -0.1617  0.4346
 9483W        W24952   1.323   1.113   3.227 -0.1621  0.0664 -0.0427
 9484W        W24953   7.345  14.623   5.261  0.0684  0.3172  0.3192
 9485W        W24954  10.126   0.648  10.945  0.0679  0.3267 -0.1137
 9486W        W24955   1.344   8.798   0.253 -0.1075  0.1831  0.0262
 9487W        W24956  11.102  14.221  11.253  0.0571  0.0119  0.1275
 9488W        W24957   5.263   8.879   4.458  0.0541  0.0840 -0.0708
 9489W        W24958  18.258   6.816   9.951 -0.1169 -0.0614  0.2661
 9490W        W24959   3.671   3.151  12.372 -0.4016 -0.2418 -0.1853
 9491W        W24960   7.049   1.976  15.339 -0.0911 -0.1621  0.1755
 9492W        W24961   8.782   9.265   3.168 -0.2198 -0.0530 -0.0129
 9493W        W24962   5.714   8.611   4.337  0.4065 -0.2816 -0.1943
 9494W        W24963  11.500   5.069  11.881  0.5139 -0.0926  0.1731
 9495W        W24964  14.154  17.829  14.369 -0.2666  0.2644 -0.1215
 9496W        W24965   9.657   2.635  13.001  0.1061  0.0144 -0.1691
 9497W        W24966  16.950  10.363   3.067  0.2609  0.2832  0.1720
 9498W        W24967  10.094   6.525   9.965  0.1227 -0.0383  0.1823
 9499W        W24968   6.518  12.367  15.458 -0.1491  0.1081 -0.2614
 9500W        W24969   1.241   3.921   1.525 -0.2300  0.4356 -0.1323
 9501W        W24970  17.398  16.525  12.426  0.0961  0.0962 -0.0660
 9502W        W24971  10.736   5.330  10.695  0.0219 -0.1304 -0.0135
 9503W        W24972   5.073  16.036   1.592 -0.2435 -0.1609 -0.0918
 9504W        W24973  12.488   0.274  14.200  0.0089 -0.1250 -0.0632
 9505W        W24974   4.504  11.987  15.523 -0.2114  0.1288 -0.1610
 9506W        W24975   9.813   6.326   3.741 -0.2364  0.3598 -0.5868
 9507W        W24976   2.190   4.600  12.991 -0.0129  0.2972 -0.0959
 9508W        W24977  18.155   7.458  15.672 -0.0285 -0.2452 -0.1942
 9509W        W24978  16.992   1.605   0.948 -0.2074  0.0587 -0.0589
 9510W        W24979  17.593   8.285  13.055  0.0119  0.0394  0.4259
 9511W        W24980  14.384  17.597   3.946  0.1072 -0.0785 -0.2288
 9512W        W24981  11.433  16.579   0.077 -0.3230 -0.2978  0.2102
 9513W        W24982   7.095   6.206  15.543 -0.0940  0.1642 -0.0174
 9514W        W24983   9.701   5.008  10.821 -0.0195 -0.2106 -0.0743
 9515W        W24984   9.386  16.536  10.485 -0.1654 -0.0557 -0.3066
 9516W        W24985  12.525  13.323  11.879 -0.0053 -0.3999 -0.4818
 9517W        W24986   2.052   6.545   1.727 -0.2514 -0.1172 -0.2287
 9518W        W24987  17.427  10.244   3.287  0.0590 -0.1630  0.4615
 9519W        W24988   1.781   2.055   4.879 -0.0283  0.2420 -0.0847
 9520W        W24989  16.239   5.373   0.409 -0.1058  0.0633  0.0072
 9521W        W24990  13.153  14.535  13.323  0.0244 -0.1134 -0.2248
 9522W        W24991   0.645   3.308  14.503  0.0163 -0.2570 -0.1011
 9523W        W24992   7.388   9.499  12.600  0.3570 -0.0677 -0.2881
 9524W        W24993   1.295   6.827   3.943 -0.0449  0.0486  0.2779
 9525W        W24994   8.382  13.955  13.307  0.5375 -0.3010 -0.2876
 9526W        W24995   0.683  18.615   2.738  0.1640  0.1747  0.1366
 9527W        W24996   6.147  18.152   3.511 -0.2153  0.2483 -0.1268
 9528W        W24997  12.509  13.242   1.098 -0.2674 -0.2858  0.2426
 9529W        W24998   4.745  18.261   1.659 -0.1133 -0.2500 -0.2892
 9530W        W24999  17.873   6.017  11.628  0.1475 -0.3853 -0.0654
 9531W        W25000   7.454  11.216   0.529 -0.1819  0.1282 -0.2342
 9532W        W25001   3.637  17.108  14.422  0.0168 -0.1452  0.0045
 9533W        W25002  11.446  17.313   3.708  0.0598  0.1192 -0.1599
 9534W        W25003   8.765   5.042  11.217  0.0313 -0.2315 -0.0807
 9535W        W25004   7.128  10.387   4.728  0.2154 -0.0638 -0.2724
 9536W        W25005   9.273  14.036   3.675  0.1350 -0.4305 -0.0804
 9537W        W25006  16.513   4.445  11.670 -0.0083  0.2719 -0.0336
 9538W        W25007  11.595  14.221   0.780  0.3727 -0.0270  0.0864
 9539W        W25008  18.497  15.971   2.049  0.0955  0.1194  0.3683
 9540W        W25009  16.301  16.227   3.326  0.1377  0.1310 -0.0010
 9541W        W25010  11.091   7.166   1.952  0.0461  0.2907 -0.1429
 9542W        W25011   0.538   8.043  12.145  0.1482 -0.3452  0.3022
 9543W        W25012   7.487  16.542   0.357  0.1367 -0.0348 -0.0290
 9544W        W25013   5.913  10.965  14.082 -0.0411 -0.1519 -0.1992
 9545W        W25014  12.003   7.020  14.978  0.1790  0.2364  0.0988
 9546W        W25015   7.208   4.755  13.234 -0.1185 -0.2888 -0.0445
 9547W        W25016  13.013  13.119   5.378  0.2868 -0.3450 -0.0258
 9548W        W25017   0.869  13.584  15.521  0.2137  0.1667  0.2426
 9549W        W25018  11.683  17.126  11.055  0.2569 -0.1512 -0.2037
 9550W        W25019  12.440  16.404  13.788  0.0487 -0.1810 -0.0307
 9551W        W25020  16.606   9.484   4.144 -0.4026  0.1030  0.0355
 9552W        W25021  16.623   6.240  13.668 -0.2672  0.1129  0.0658
 9553W        W25022  12.555  16.916  13.474  0.1138 -0.0363 -0.1388
 9554W        W25023   0.194  10.026  13.306 -0.0494  0.0689 -0.2666
 9555W        W25024  15.462  14.385  11.005  0.1588 -0.0674  0.0455
 9556W        W25025  13.856  10.843  13.130 -0.1312 -0.0751  0.0947
 9557W        W25026  16.010   2.545  15.495  0.1936  0.0626  0.1349
 9558W        W25027  14.272  14.243  14.453  0.1180 -0.1419 -0.0349
 9559W        W25028   6.330   2.773   0.770 -0.0893 -0.1238 -0.3292
 9560W        W25029  17.888  10.243  11.312  0.1487 -0.0564 -0.1638
 9561W        W25030  15.611  10.489  13.375 -0.5416 -0.0167  0.0609
 9562W        W25031  12.882   6.566   0.682 -0.1503 -0.1326 -0.0260
 9563W        W25032  14.177   6.115  11.970  0.0920  0.0332 -0.1307
 9564W        W25033  17.517   3.521  14.640 -0.0103 -0.2472  0.3778
 9565W        W25034   5.541   5.860   9.868 -0.1498 -0.0728 -0.1358
 9566W        W25035   6.006   2.527   1.597 -0.1994 -0.0772  0.3851
 9567W        W25036  14.694  14.886  12.209  0.1999  0.0357 -0.0217
 9568W        W25037   9.635   7.147  11.506  0.2040 -0.1033 -0.2452
 9569W        W25038  11.178   2.015  10.803  0.0799 -0.0209  0.2272
 9570W        W25039  16.075  14.048   2.680 -0.2794 -0.1059  0.1880
 9571W        W25040  15.678  10.676   5.940  0.2649 -0.1783 -0.3578
 9572W        W25041  18.433  12.192   0.892 -0.1294  0.1016  0.0713
 9573W        W25042   1.429   0.039  10.858 -0.1760 -0.2078 -0.0054
 9574W        W25043   0.696   4.925  15.150 -0.0041 -0.0472 -0.4276
 9575W        W25044   2.637   5.076  15.249 -0.0661  0.1153  0.2227
 9576W        W25045   5.506  16.310  13.568 -0.1791  0.0219  0.0416
 9577W        W25046  12.362   8.103   3.047 -0.1188 -0.2487 -0.1235
 9578W        W25047  12.543  14.178  14.447  0.2205 -0.0845  0.1819
 9579W        W25048  18.090   3.101  14.660 -0.2270  0.1320 -0.0138
 9580W        W25049  16.607  10.709   0.572 -0.1485  0.1682 -0.1500
 9581W        W25050  11.098  13.426   2.477  0.2590 -0.0313 -0.3851
 9582W        W25051   2.577  17.018  13.590  0.0014  0.1564  0.0912
 9583W        W25052  14.905  10.953   1.392  0.0365  0.0597 -0.1323
 9584W        W25053   6.500  14.212  14.045 -0.0540  0.2830 -0.0976
 9585W        W25054  13.847  16.089  12.023  0.1664 -0.0162  0.0414
 9586W        W25055   3.371  11.170  14.586  0.1266  0.0470 -0.4568
 9587W        W25056  17.160   1.565  14.394  0.0620 -0.1052  0.1167
 9588W        W25057  13.729   4.825  14.393 -0.1093 -0.1183  0.0905
 9589W        W25058  13.289   5.951  11.169  0.1015  0.2074 -0.0038
 9590W        W25059  14.703  14.353  12.133  0.1270 -0.0294 -0.0067
 9591W        W25060   1.430  15.624   0.617  0.2163 -0.0077 -0.0074
 9592W        W25061   7.314   7.774  12.511  0.0950 -0.1576  0.3107
 9593W        W25062  16.986   8.115  11.743  0.2161 -0.4032 -0.0814
 9594W        W25063  12.028  18.200  13.712 -0.2677 -0.2126 -0.1564
 9595W        W25064  16.206  15.698   0.183 -0.1551 -0.1038 -0.1314
 9596W        W25065   1.214  18.153  13.752 -0.2394 -0.2626 -0.0672
 9597W        W25066  10.155   6.763   1.271 -0.0993 -0.1758 -0.2034
 9598W        W25067   5.871  10.568   4.797  0.0893  0.4097  0.0362
 9599W        W25068  16.884   3.594   5.091 -0.3046  0.0285 -0.1335
 9600W        W25069   9.872  18.318  10.999 -0.2454  0.0784 -0.0569
 9601W        W25070   8.118  12.378   3.828 -0.2649  0.2314  0.0205
 9602W        W25071   9.288  10.229  12.300 -0.0639 -0.1041  0.0004
 9603W        W25072  12.975   5.572  14.615 -0.1693 -0.2714 -0.4494
 9604W        W25073   5.510  13.093   3.973 -0.1851 -0.1714  0.3127
 9605W        W25074  13.911   0.900  10.611 -0.1316 -0.1541  0.0527
 9606W        W25075  13.351   3.486   1.733  0.0175 -0.0235  0.1719
 9607W        W25076  18.431   5.397   0.443 -0.1997 -0.4343  0.2587
 9608W        W25077   2.190   5.565  13.602 -0.0355  0.1132  0.0382
 9609W        W25078   6.511   5.697   4.848  0.1760 -0.1606 -0.4856
 9610W        W25079   6.942   1.520  15.309  0.2199  0.2041 -0.0852
 9611W        W25080  17.567  16.408   1.268  0.1272 -0.0857  0.1326
 9612W        W25081  18.693  17.142  10.201  0.0105 -0.0363 -0.1152
 9613W        W25082  18.567   9.463  12.653  0.3067 -0.1798 -0.0787
 9614W        W25083  14.458   8.263  13.421 -0.1232  0.0854  0.5265
 9615W        W25084   1.829  17.548   2.898 -0.2982  0.0705  0.1185
 9616W        W25085  17.552  15.630   1.829 -0.0960  0.2892 -0.1584
 9617W        W25086   3.178   6.600   3.889  0.1626  0.1841  0.1614
 9618W        W25087  15.171   3.354   1.514  0.1177 -0.2066  0.2185
 9619W        W25088  14.012  16.594  12.800 -0.1461  0.2355  0.0586
 9620W        W25089   3.559   0.216   1.912 -0.1571  0.3845 -0.1765
 9621W        W25090  14.109  14.286   5.083  0.0793  0.4147 -0.1390
 9622W        W25091   8.374   8.642   3.307 -0.0062 -0.1551  0.0917
 9623W        W25092  10.227  15.179  13.755 -0.3467  0.1019  0.0564
 9624W        W25093  11.675   9.236  11.616 -0.0779  0.0848 -0.1216
 9625W        W25094  14.213   8.389  11.113  0.0355 -0.3438  0.1954
 9626W        W25095   8.225   9.814  14.173 -0.3143  0.1888 -0.4127
 9627W        W25096  17.574   9.053   3.545 -0.1434  0.1966 -0.1345
 9628W        W25097   1.058   7.627   5.133 -0.2086  0.2118  0.0622
 9629W        W25098   7.675   9.767  14.311 -0.1764 -0.0100 -0.0435
 9630W        W25099   4.713  11.823  12.640  0.2556 -0.2077  0.1432
 9631W        W25100  13.822  16.025   5.521  0.2105 -0.1610 -0.3909
 9632W        W25101  11.497  11.519   0.609  0.1583  0.3231  0.0279
 9633W        W25102   8.768  11.625  13.762  0.0700 -0.0539 -0.2219
 9634W        W25103   9.663  12.086  14.668 -0.2215  0.3340 -0.3664
 9635W        W25104   7.786   3.598   4.641 -0.1943  0.0052 -0.0180
 9636W        W25105  16.999  17.947   1.353 -0.3806  0.0560  0.2010
 9637W        W25106   5.838   5.269   0.653  0.0387  0.2768  0.0320
 9638W        W25107  17.956  13.232  14.226 -0.0589 -0.0002  0.3735
 9639W        W25108  13.559   1.649   3.092  0.1573  0.0756  0.1672
 9640W        W25109   9.510  12.276   1.778  0.1782  0.1811  0.2761
 9641W        W25110   5.273   6.748   5.399 -0.3656  0.0183  0.1160
 9642W        W25111   1.503  13.738   2.710  0.0972  0.1362 -0.2071
 9643W        W25112   1.424   2.233   3.352  0.0038  0.0861 -0.0506
 9644W        W25113   8.687   3.582   2.107 -0.2551  0.0077  0.2425
 9645W        W25114   2.455   8.451  13.692 -0.1709 -0.2847  0.0641
 9646W        W25115  16.127  18.510   3.613  0.4473 -0.1089 -0.4774
 9647W        W25116   6.640   8.823   2.792 -0.1078  0.0031  0.2115
 9648W        W25117   3.030  16.192  14.881  0.0833 -0.2516  0.2378
 9649W        W25118  17.752   6.676  15.090  0.2693  0.0554 -0.2058
 9650W        W25119   7.582   1.086  11.732  0.1109  0.3918  0.0770
 9651W        W25120  13.102   7.103  14.722 -0.2683  0.3526  0.1536
 9652W        W25121  13.964  16.326  13.609  0.0662 -0.0445  0.3806
 9653W        W25122  11.527  18.263  12.680  0.0874 -0.0700 -0.1771
 9654W        W25123   9.707   5.978   9.921 -0.3266 -0.2453 -0.0058
 9655W        W25124   4.169   2.206   3.910  0.1936  0.0213  0.2300
 9656W        W25125  17.794  17.674  14.314  0.0378  0.2482  0.0371
 9657W        W25126   0.033   9.222   4.685 -0.1006 -0.2189 -0.0750
 9658W        W25127   1.118  17.394   0.659  0.1262  0.0708  0.0140
 9659W        W25128   5.003  16.713  13.315 -0.1523  0.0218  0.0140
 9660W        W25129  12.546   9.665  12.993  0.2357  0.2579  0.4173
 9661W        W25130   1.704   2.710   3.160  0.1659  0.0554 -0.1409
 9662W        W25131   2.028  18.683   1.703 -0.0815 -0.2151 -0.2978
 9663W        W25132   8.575  15.708  13.918  0.1827  0.3635 -0.0495
 9664W        W25133  13.716  10.156  11.545  0.0596 -0.0383 -0.2478
 9665W        W25134  17.222  15.643   0.450  0.1772 -0.0123  0.1790
 9666W        W25135  17.810   9.092  13.450  0.0249  0.2474 -0.0701
 9667W        W25136  17.774  17.471  11.500 -0.1762  0.4583 -0.1680
 9668W        W25137   4.059   5.682   1.945  0.0016  0.0186  0.0311
 9669W        W25138  12.722  13.324  12.937 -0.1760 -0.1504 -0.2606
 9670W        W25139  11.115  13.271   4.359  0.0788 -0.1184 -0.1996
 9671W        W25140   8.702  17.365  12.830  0.0463  0.2549  0.0389
 9672W        W25141  16.023  10.293  13.195 -0.0992  0.0288 -0.2251
 9673W        W25142   2.651  10.133  12.625 -0.2081  0.2867 -0.0968
 9674W        W25143  16.292   7.959   2.249 -0.0120 -0.1283 -0.0232
 9675W        W25144   2.682  11.805   5.603  0.1061  0.0729  0.2316
 9676W        W25145  12.268   3.653  15.703 -0.1210  0.1731 -0.0575
 9677W        W25146   3.244  17.199   1.803 -0.1285 -0.2117  0.0442
 9678W        W25147  15.551   4.884   1.045  0.2460  0.0726 -0.3063
 9679W        W25148   6.912  15.472   4.177 -0.0603  0.0869 -0.0621
 9680W        W25149   9.295  13.043   3.180 -0.0051 -0.0213  0.1608
 9681W        W25150  18.576   0.466   4.427  0.1569 -0.2571  0.1622
 9682W        W25151  16.590   5.695  13.533  0.0935 -0.0799 -0.0476
 9683W        W25152  15.559   0.641   5.710  0.1084 -0.0963  0.6744
 9684W        W25153   7.596  13.087   0.332 -0.0230 -0.1536  0.0542
 9685W        W25154  15.048  18.239  15.115  0.0579  0.0084  0.2758
 9686W        W25155  10.609  14.512  12.167 -0.2895 -0.1208 -0.0679
 9687W        W25156   7.372  11.908  14.906  0.1634 -0.3318 -0.2698
 9688W        W25157   7.098   7.055  11.352 -0.0046 -0.2149  0.2362
 9689W        W25158  10.391  12.633   0.937 -0.1674  0.0265  0.0217
 9690W        W25159  16.903  10.189  15.408 -0.1837  0.0635 -0.0490
 9691W        W25160  17.008  13.092   0.798 -0.0746 -0.1486  0.1373
 9692W        W25161   9.177   5.753  12.874 -0.0645  0.1012 -0.2405
 9693W        W25162  15.564   0.584   1.727  0.1859 -0.0091 -0.1830
 9694W        W25163   5.611   9.300  12.665  0.0229 -0.1869 -0.0304
 9695W        W25164  12.568   8.552   2.866 -0.1095  0.1369  0.2436
 9696W        W25165   4.138  11.210   0.401 -0.2212 -0.1189 -0.3749
 9697W        W25166  13.620   8.977  12.339  0.0220  0.1764  0.2200
 9698W        W25167   1.559  13.280   1.368  0.2474 -0.0982 -0.1200
 9699W        W25168   7.995   7.409  10.908  0.2152  0.1235 -0.3500
 9700W        W25169   7.206   3.216  14.461 -0.2119 -0.1569 -0.2882
 9701W        W25170   8.332   9.379   0.771  0.4195 -0.1445 -0.0124
 9702W        W25171   4.304  17.020   0.516  0.0666 -0.1400 -0.0928
 9703W        W25172  14.615  16.448  15.339 -0.2560 -0.2732 -0.0416
 9704W        W25173   0.740   6.630   0.864  0.1092 -0.1390 -0.2409
 9705W        W25174  17.882   0.592   1.810 -0.1831  0.0391 -0.1166
 9706W        W25175   1.989   8.147  14.047 -0.0194  0.2110  0.2158
 9707W        W25176  16.823  14.264   0.466  0.2289  0.0817  0.0561
 9708W        W25177   7.275   7.414   2.085 -0.1609  0.0328 -0.1875
 9709W        W25178  17.208  17.680   0.881 -0.0089 -0.0816 -0.0546
 9710W        W25179   5.334  14.340  11.494 -0.1262  0.2443  0.1865
 9711W        W25180   0.936  15.626  14.767  0.1403 -0.1723  0.0610
 9712W        W25181   2.552  10.138  15.488 -0.3422 -0.0983 -0.2064
 9713W        W25182   1.864   0.962   1.117 -0.1530 -0.3160 -0.1535
 9714W        W25183   9.977   0.746  14.013 -0.2182 -0.0516  0.0525
 9715W        W25184  17.306  17.607  15.239 -0.1383 -0.5216  0.2805
 9716W        W25185   2.184  13.352  14.898 -0.1043  0.0573 -0.0014
 9717W        W25186  16.340  14.830  15.228 -0.2067 -0.0269 -0.2311
 9718W        W25187   5.367   2.956  15.570 -0.1611  0.1306  0.1141
 9719W        W25188  17.397  14.002  12.259 -0.1801 -0.0707 -0.0863
 9720W        W25189   9.182  13.542   3.649 -0.1290 -0.1132 -0.0777
 9721W        W25190  14.194  13.483   4.613  0.0403 -0.0299  0.2392
 9722W        W25191   6.506   1.652  10.641 -0.0520  0.0084 -0.1857
 9723W        W25192  16.695  17.081  12.968 -0.0159 -0.2747  0.2134
 9724W        W25193   6.053   5.411   1.633  0.0219 -0.0407  0.1666
 9725W        W25194  12.437   7.632   2.748  0.0973 -0.1221  0.1960
 9726W        W25195  16.650   7.215   4.615 -0.2220  0.3116 -0.1033
 9727W        W25196  15.561  12.751   3.695  0.0111  0.3297 -0.0385
 9728W        W25197   4.913   5.365  12.009 -0.1003 -0.3054  0.1802
 9729W        W25198   4.658   7.623  13.475  0.1632  0.1698  0.0128
 9730W        W25199   6.357   5.127   3.992 -0.0355  0.2893  0.1702
 9731W        W25200   0.307  17.429   0.105  0.1809 -0.2973 -0.1702
 9732W        W25201   2.925  13.443   4.014 -0.2445 -0.1540  0.0275
 9733W        W25202   0.825  16.608   1.369 -0.3150  0.1536 -0.2683
 9734W        W25203  11.339  14.440  10.172  0.2494 -0.2204 -0.0753
 9735W        W25204   4.534  14.506   3.588 -0.1590 -0.2450  0.2379
 9736W        W25205  15.986  17.133  11.257 -0.1570  0.0641  0.3094
 9737W        W25206   3.022  14.785  13.345  0.0989 -0.0604 -0.2651
 9738W        W25207   3.826  10.031  15.089 -0.0762  0.0640 -0.1734
 9739W        W25208   6.231   5.907  12.927 -0.1914 -0.2436  0.0175
 9740W        W25209  12.181   4.485   2.665 -0.1135 -0.1033 -0.2960
 9741W        W25210   9.451   1.140  12.097  0.0765  0.0845  0.1901
 9742W        W25211   0.798   2.288   4.578  0.0196  0.0326 -0.3167
 9743W        W25212   0.829  10.527   4.055  0.3265 -0.1060  0.1566
 9744W        W25213  11.868  16.179   5.129  0.1714  0.0968 -0.0426
 9745W        W25214   3.980  12.084   3.746 -0.1772 -0.0530  0.2614
 9746W        W25215  15.864   1.959  11.950 -0.1197 -0.1006  0.3924
 9747W        W25216  12.626   8.562   3.883  0.1183 -0.2093  0.1643
 9748W        W25217  12.909  15.279   1.898 -0.1517 -0.1915 -0.0710
 9749W        W25218  14.797  13.430   4.524 -0.2154 -0.1873 -0.0980
 9750W        W25219  12.152   6.711   5.385 -0.1590  0.0245  0.0368
 9751W        W25220  15.989  18.270  13.633 -0.0009 -0.0582 -0.4057
 9752W        W25221   7.739  15.423   3.672  0.3725  0.0851  0.1678
 9753W        W25222  14.784   6.336   4.982 -0.0548 -0.3293  0.1093
 9754W        W25223   3.136  14.778  15.507  0.0756  0.0499  0.1357
 9755W        W25224  10.251   9.111   2.850  0.1010  0.2225 -0.1263
 9756W        W25225   6.209   9.751   3.530  0.2304 -0.3271 -0.1448
 9757W        W25226   7.280  13.214   3.413 -0.0126 -0.1555  0.2041
 9758W        W25227  14.321  16.688  15.745  0.1716  0.2132 -0.0336
 9759W        W25228   4.617   1.301  10.755 -0.1725  0.0934  0.1785
 9760W        W25229   5.571  13.775  13.746 -0.0924 -0.1690 -0.4411
 9761W        W25230   8.118  12.769   0.380  0.0172 -0.3749  0.0665
 9762W        W25231  11.618  16.353   2.969  0.0090  0.3523  0.1160
 9763W        W25232   7.147   3.555   5.450  0.1210 -0.2193 -0.0178
 9764W        W25233  13.203   5.670  12.812  0.1541 -0.0763 -0.0515
 9765W        W25234   5.822   6.037   0.819 -0.0149 -0.1436  0.0507
 9766W        W25235   4.872  11.693   3.645  0.2032  0.0413  0.0488
 9767W        W25236  14.648  13.146  12.857 -0.2389  0.1646 -0.1310
 9768W        W25237   4.452   0.716   0.309 -0.1193 -0.0876  0.0408
 9769W        W25238   2.646  16.135   4.145  0.0072  0.2317 -0.1744
 9770W        W25239   6.197   0.445  13.537  0.3987 -0.2025  0.2068
 9771W        W25240   3.589  13.564  13.993  0.0527  0.1107 -0.2388
 9772W        W25241  17.084   6.951   4.665 -0.1086  0.0790  0.0763
 9773W        W25242   7.641   5.514  12.052 -0.4727 -0.2219 -0.1041
 9774W        W25243   2.198   6.809   0.036  0.0367 -0.1691  0.1540
 9775W        W25244   1.806   8.625  10.230 -0.1775  0.1141  0.3478
 9776W        W25245   8.267   5.392  11.865 -0.0197  0.3929  0.2543
 9777W        W25246   6.123   9.027   4.810  0.0114 -0.3228  0.0781
 9778W        W25247  13.891  15.975  11.076 -0.0231  0.0235  0.0145
 9779W        W25248  16.769  11.146   3.265  0.4732  0.1094  0.1255
 9780W        W25249  12.135   6.678  13.256  0.0733  0.1798  0.0742
 9781W        W25250   0.244  12.568  10.953  0.0725  0.0930 -0.1773
 9782W        W25251   2.917  17.332   5.422 -0.1564  0.1557 -0.0069
 9783W        W25252  18.144  10.332  13.965  0.4204  0.2326 -0.3352
 9784W        W25253  13.609   8.035  11.742  0.2623  0.0793  0.0053
 9785W        W25254  14.521   0.214  13.486  0.0678  0.3301 -0.0619
 9786W        W25255   8.051  10.450   0.115 -0.0880  0.0416  0.2533
 9787W        W25256   1.551   9.284  15.112  0.1237 -0.1390  0.1026
 9788W        W25257  13.791   4.342   5.396 -0.1802  0.2219  0.0622
 9789W        W25258   0.735  17.492   2.046  0.3668 -0.2690 -0.1132
 9790W        W25259  17.703   6.395   3.639 -0.2073  0.0058  0.1320
 9791W        W25260  18.201  18.199   1.806  0.1862  0.2237 -0.0144
 9792W        W25261  18.471  10.180   1.297  0.4281 -0.2254 -0.0326
 9793W        W25262   8.271   8.244  14.989  0.1195 -0.0091 -0.0345
 9794W        W25263  12.737   9.895  14.254  0.1148  0.1483  0.0626
 9795W        W25264   8.659   7.826  15.635  0.2224  0.3292  0.4320
 9796W        W25265   4.999  12.025   1.085  0.1078 -0.3029  0.0428
 9797W        W25266  12.859   5.122  10.764 -0.0626 -0.2739  0.0806
 9798W        W25267  12.795   9.385  14.440  0.2607 -0.3468 -0.2445
 9799W        W25268   5.749   8.193   3.429  0.1447 -0.1937 -0.0972
 9800W        W25269   6.578  16.835   5.229  0.2007  0.2726  0.0405
 9801W        W25270  11.840   6.744   2.880 -0.2965 -0.3250 -0.1620
 9802W        W25271  14.830   3.506  15.634 -0.0181  0.0539 -0.1625
 9803W        W25272   0.268  16.439   2.431 -0.2257  0.1618  0.0962
 9804W        W25273  14.342   1.138  12.347  0.0242  0.2096 -0.0684
 9805W        W25274  13.752  18.379   5.412 -0.1129  0.0469 -0.0558
 9806W        W25275   2.550   9.545   0.611 -0.0714  0.3117  0.0670
 9807W        W25276  14.928   6.794  13.230  0.0070 -0.1499 -0.2499
 9808W        W25277  17.976   0.295   2.198  0.1179 -0.2021 -0.0755
 9809W        W25278  15.728   7.262  15.089  0.1247  0.2471 -0.3162
 9810W        W25279  10.484   6.856   3.553 -0.2044 -0.1010  0.1509
 9811W        W25280  10.483  13.256   5.908 -0.0679 -0.1909  0.0053
 9812W        W25281   2.655   9.111  15.069 -0.0565  0.3732  0.1344
 9813W        W25282   5.114   7.427   5.880 -0.0222 -0.1172  0.3571
 9814W        W25283  15.969  16.765   5.970 -0.2236 -0.0525  0.0729
 9815W        W25284   4.406  15.227  11.439 -0.3599  0.2367 -0.0523
 9816W        W25285  12.803   5.117  14.802 -0.0073 -0.0049  0.2206
 9817W        W25286  12.958   5.872  13.673  0.0082 -0.3338 -0.2240
 9818W        W25287   0.787  16.095   1.974  0.1826  0.1193  0.0774
 9819W        W25288   0.043  13.752   1.401 -0.1245 -0.0581 -0.0707
 9820W        W25289   4.249  11.166   0.945 -0.0678  0.1368  0.0863
 9821W        W25290  16.743  18.492  14.569  0.0224  0.2750 -0.3084
 9822W        W25291   2.922  14.837  12.052 -0.2184  0.0523  0.1044
 9823W        W25292  13.217  14.780   1.874 -0.1247  0.1160  0.1282
 9824W        W25293  10.212   0.944   0.163 -0.2275 -0.1976  0.0057
 9825W        W25294   8.661   9.760  13.209 -0.0539  0.0844 -0.0002
 9826W        W25295   1.250  10.597  13.036  0.0651 -0.2680 -0.0415
 9827W        W25296  13.690  13.670   0.957  0.1401 -0.1225  0.0203
 9828W        W25297   3.223  15.002   3.887 -0.0054 -0.3008 -0.1310
 9829W        W25298  14.134  13.191   3.431  0.0473  0.0861 -0.0263
 9830W        W25299   1.058   3.970  15.160  0.0306  0.1184  0.0005
 9831W        W25300   3.304  14.450   3.193 -0.1274  0.0169 -0.0633
 9832W        W25301  17.263   8.214   0.823 -0.0137 -0.0531  0.1335
 9833W        W25302  11.251   3.694   0.693 -0.0054  0.1901 -0.2628
 9834W        W25303   0.028  11.887  14.300 -0.5434 -0.1462 -0.1221
 9835W        W25304   1.101   7.219  15.700 -0.3194 -0.0548  0.0604
 9836W        W25305   4.192  15.701   4.487  0.0028 -0.0951  0.0430
 9837W        W25306   8.396   4.605  13.597 -0.1040 -0.1255 -0.1808
 9838W        W25307   9.841  12.677  13.072 -0.3679 -0.0228 -0.2206
 9839W        W25308   0.795   0.067   1.146  0.0780 -0.0075 -0.1195
 9840W        W25309   5.487   4.315  14.929  0.0115  0.0056 -0.3308
 9841W        W25310  15.806   8.634   3.838  0.0876  0.1125  0.1690
 9842W        W25311  14.079   6.307  13.374  0.2684 -0.1180 -0.0922
 9843W        W25312  14.210   9.380  11.467  0.1661  0.0474 -0.0172
 9844W        W25313   6.790   0.199   1.119 -0.2663 -0.1490 -0.1788
 9845W        W25314  16.527   0.502   3.822  0.1674  0.0611 -0.2596
 9846W        W25315   2.423   1.245   2.200 -0.0129 -0.0803 -0.0203
 9847W        W25316   0.830  11.686   2.870 -0.4131 -0.2110  0.3606
 9848W        W25317  11.667   8.705  11.782  0.1280  0.1950 -0.3260
 9849W        W25318  10.032   3.023   5.398 -0.0988 -0.0088  0.1776
 9850W        W25319  15.508  13.259   2.920 -0.4288  0.2184  0.0032
 9851W        W25320   2.471  15.624   4.074 -0.0940  0.1395 -0.1385
 9852W        W25321  15.220  12.914  14.297  0.0437 -0.1640 -0.2601
 9853W        W25322  14.527  18.468   4.613  0.4025 -0.2211 -0.0156
 9854W        W25323   3.611  16.384  12.274 -0.0631  0.2910  0.0759
 9855W        W25324   3.506  13.372   1.607 -0.1292  0.2031 -0.2973
 9856W        W25325   0.884   1.300   5.065 -0.0007 -0.1948  0.0299
 9857W        W25326  12.059  17.779  13.091  0.1734  0.2597 -0.0235
 9858W        W25327   5.609   2.657  12.964 -0.1052  0.1202 -0.1784
 9859W        W25328  16.502   0.824  10.578 -0.1200 -0.1619 -0.2258
 9860W        W25329  17.675  16.440  13.568  0.1223  0.0592  0.1215
 9861W        W25330  14.016  16.090  12.591 -0.1257  0.1864  0.1066
 9862W        W25331   3.085   4.522   3.397 -0.1783  0.0740  0.1507
 9863W        W25332   2.362   1.639   1.111 -0.5881  0.1861  0.1055
 9864W        W25333   9.880  10.862  11.808  0.3837  0.1145 -0.1670
 9865W        W25334  17.546  11.295   4.792  0.1516 -0.0462  0.0725
 9866W        W25335   3.352  13.791  13.299  0.0048  0.1652  0.2188
 9867W        W25336   7.571   1.313   1.297 -0.0661 -0.0701 -0.1012
 9868W        W25337  12.710   5.159  12.997  0.0951  0.1432 -0.2194
 9869W        W25338  10.875  12.740   5.089 -0.3226  0.1102 -0.2546
 9870W        W25339   9.209   5.154  15.598 -0.2657 -0.3423 -0.1069
 9871W        W25340  17.292   4.238   0.364 -0.5587 -0.0065  0.5320
 9872W        W25341   5.860   0.447  13.151 -0.0397  0.0348  0.3219
 9873W        W25342   6.162  18.575   1.852 -0.1074 -0.1899  0.1156
 9874W        W25343   4.074   1.428   4.488  0.1460 -0.1570  0.1740
 9875W        W25344   2.793  17.527  11.180 -0.4064 -0.1147 -0.2228
 9876W        W25345   8.527  12.211  12.592 -0.0909  0.2403 -0.0710
 9877W        W25346   2.330  15.707   0.224 -0.1263 -0.2272  0.2536
 9878W        W25347  18.523  15.371  11.845 -0.1107 -0.1271  0.1755
 9879W        W25348   9.927  18.157  14.158  0.0553 -0.0088 -0.0895
 9880W        W25349   2.174   4.839   2.595  0.1252 -0.0472  0.1038
 9881W        W25350   0.264   7.615   3.270  0.0696 -0.0228  0.0698
 9882W        W25351  15.269   7.271  15.313 -0.1030 -0.2578 -0.0294
 9883W        W25352   2.038  16.285  13.275  0.0219 -0.2711 -0.1500
 9884W        W25353  11.748  18.198   0.342 -0.3544  0.0609  0.0984
 9885W        W25354   4.391   7.450   5.323  0.0673 -0.4464  0.2097
 9886W        W25355   4.422  11.918   3.770  0.0145  0.1864 -0.0493
 9887W        W25356   1.310   6.978   1.563  0.0464 -0.0646  0.2305
 9888W        W25357  17.286   2.067   0.410  0.2422  0.0128  0.0360
 9889W        W25358   0.035  17.411   3.971 -0.1408 -0.2225  0.0350
 9890W        W25359  11.746  14.487   3.611 -0.0268 -0.1004 -0.1208
 9891W        W25360   2.998   6.881  11.961  0.0625 -0.0234  0.0833
 9892W        W25361   5.055  12.583  14.719 -0.2849 -0.1454  0.1585
 9893W        W25362  11.851   4.790  14.515  0.1388  0.1577 -0.0077
 9894W        W25363  15.334   5.168  11.611  0.1238  0.1862  0.3220
 9895W        W25364   9.806   4.174   3.868  0.1856 -0.0409  0.1665
 9896W        W25365   4.953   2.401   1.857  0.3028 -0.1249  0.1210
 9897W        W25366  14.284  15.986   5.259  0.0493  0.0945  0.0832
 9898W        W25367   6.544   1.836  13.727  0.1783  0.0412 -0.0744
 9899W        W25368   0.755  18.582   0.714  0.0873  0.0548  0.2493
 9900W        W25369  14.070  13.791   3.301  0.2236  0.3909 -0.1655
 9901W        W25370   5.796   2.103   0.294 -0.1122  0.1048 -0.1331
 9902W        W25371   4.260   6.670   3.160  0.1713  0.4069 -0.1805
 9903W        W25372   4.322  16.459  15.213 -0.0134 -0.2260 -0.1286
 9904W        W25373   1.165  16.265   4.988  0.1888 -0.0436 -0.0476
 9905W        W25374   0.669   6.719   2.484  0.0107  0.1881  0.2335
 9906W        W25375   1.992  15.680  15.567  0.2837 -0.0174  0.0684
 9907W        W25376  11.042   8.244   2.625  0.4185 -0.0808 -0.0330
 9908W        W25377   6.335  11.655  15.774 -0.1990  0.0730 -0.0343
 9909W        W25378   1.140  12.775  14.827  0.1676 -0.0684  0.3119
 9910W        W25379   9.121  17.203  15.078 -0.2300 -0.1154 -0.0868
 9911W        W25380  14.280  10.806   2.759  0.0305 -0.2208  0.0017
 9912W        W25381  14.165  14.074   1.839  0.0422  0.2170 -0.0180
 9913W        W25382  16.141  15.904   2.185  0.0226 -0.1668  0.0638
 9914W        W25383   6.749   7.316   2.123  0.0241  0.0376  0.2660
 9915W        W25384  13.488   9.533   0.794  0.1582  0.1025 -0.1635
 9916W        W25385  18.536  14.822   0.415  0.1344  0.0257 -0.1897
 9917W        W25386   5.735   5.981   5.167 -0.2099  0.0005 -0.0597
 9918W        W25387   5.886   0.191  14.602  0.2474  0.1372  0.2214
 9919W        W25388   4.040  13.890   1.223 -0.3308 -0.2106 -0.0628
 9920W        W25389  10.489   9.924  11.747 -0.1700 -0.0528 -0.4374
 9921W        W25390  14.952   3.407   2.395 -0.0536 -0.5525 -0.4210
 9922W        W25391  11.438  17.423   2.786  0.0707 -0.0821 -0.0598
 9923W        W25392   9.381   0.934  15.508 -0.1097 -0.0344  0.0464
 9924W        W25393  15.328   5.618  15.703  0.1768 -0.0690 -0.1551
 9925W        W25394  18.153  15.638   2.907  0.1136 -0.1050 -0.0772
 9926W        W25395   9.319   7.041   3.030 -0.0956 -0.2781 -0.3074
 9927W        W25396  13.861  15.584  10.707 -0.2307 -0.4361 -0.3825
 9928W        W25397  15.456  17.533  12.452 -0.2813 -0.0307  0.0961
 9929W        W25398  16.351   1.487  15.346  0.0353  0.1060  0.0372
 9930W        W25399  11.197   0.124  11.146 -0.0490 -0.0945  0.1124
 9931W        W25400  18.409  10.244   2.712  0.1436  0.0905 -0.0547
 9932W        W25401  16.736   6.792   2.086  0.0723  0.0230  0.1735
 9933W        W25402   2.130   2.452  10.485 -0.3063 -0.1016  0.0484
 9934W        W25403   3.217  11.902   5.368  0.0524  0.0135  0.0285
 9935W        W25404   5.939  11.240   5.673 -0.1560  0.0016  0.1533
 9936W        W25405  16.365   4.864  15.278 -0.0835 -0.2254 -0.1068
 9937W        W25406  11.768  14.587   9.748  0.3224 -0.2211 -0.2262
 9938W        W25407  15.950   8.184   0.003 -0.1340  0.3469 -0.0656
 9939W        W25408   2.777  15.345   0.876 -0.4581  0.0333 -0.1126
 9940W        W25409   0.045   9.758   5.254  0.0592 -0.1482 -0.0859
 9941W        W25410  12.677   9.242   3.320 -0.3519  0.0393 -0.0502
 9942W        W25411  10.988   5.448  14.464 -0.1612 -0.1714  0.1439
 9943W        W25412   2.959   0.841   0.204  0.3409  0.0213  0.4310
 9944W        W25413  16.405  18.043  13.905  0.0784  0.0060  0.1391
 9945W        W25414   7.881   9.334   5.095  0.2232  0.0563 -0.0312
 9946W        W25415  15.654   8.993  12.995 -0.1913 -0.3295 -0.0492
 9947W        W25416  14.265  16.419   9.873 -0.2364 -0.0288  0.1439
 9948W        W25417   3.967  12.994   4.719 -0.0459  0.2291 -0.2578
 9949W        W25418   2.747  11.602  15.589 -0.0398  0.0592 -0.1706
 9950W        W25419   1.023   3.824   0.977 -0.0175 -0.2665 -0.2300
 9951W        W25420   1.392  17.179   2.862 -0.1983  0.0061  0.1112
 9952W        W25421   9.165   0.827   0.303 -0.0617  0.2033 -0.1091
 9953W        W25422  15.607   7.347  14.235 -0.1412 -0.0003 -0.3434
 9954W        W25423   9.997  15.634  15.380  0.1357 -0.2783  0.2693
 9955W        W25424   1.097  15.316   0.365 -0.0822 -0.1989  0.1101
 9956W        W25425  14.951   7.671  10.954 -0.2633 -0.4246  0.0214
 9957W        W25426  16.789  14.325  11.157 -0.1823  0.2297  0.0722
 9958W        W25427   2.503   4.983   3.026 -0.1743 -0.0681  0.1953
 9959W        W25428  10.319  14.065   1.807  0.3724  0.2999  0.0048
 9960W        W25429   5.478  14.845   2.865  0.0935  0.2282 -0.0711
 9961W        W25430   8.725   2.343   0.087 -0.0736  0.3120 -0.0355
 9962W        W25431   4.910   2.759   3.841  0.2133 -0.1477 -0.0362
 9963W        W25432  10.405  13.240  14.984 -0.2590 -0.0388  0.0830
 9964W        W25433   9.870  14.260   2.672  0.0327 -0.2255  0.1361
 9965W        W25434  18.561   5.019   2.061  0.1492 -0.1048 -0.2019
 9966W        W25435   5.327   3.009  12.245 -0.0099  0.4603 -0.0082
 9967W        W25436   3.596   5.460  11.566 -0.0761  0.1503 -0.2692
 9968W        W25437   5.397  14.877  15.184  0.3845 -0.2610 -0.0162
 9969W        W25438  15.024   2.612   2.096 -0.3422 -0.3296 -0.1135
 9970W        W25439  18.469  12.242  15.468  0.1159  0.1375  0.1587
 9971W        W25440  12.517  15.926   3.720 -0.0458 -0.0108  0.1333
 9972W        W25441  16.104   5.298  11.688  0.1685  0.0254 -0.0468
 9973W        W25442   6.205   1.592   2.300 -0.5907  0.2975 -0.0526
 9974W        W25443   6.917   1.740   4.961  0.4854 -0.0164 -0.1860
 9975W        W25444  12.051  10.644  10.855  0.0834  0.2784 -0.2878
 9976W        W25445   0.185  15.237  13.559 -0.0766  0.0498 -0.2449
 9977W        W25446  17.596  13.976   5.572  0.0711  0.3979  0.1641
 9978W        W25447   9.974   3.504  13.912  0.0677  0.1349 -0.1586
 9979W        W25448  10.376   3.347   4.262  0.0630 -0.0126  0.2308
 9980W        W25449   0.612   5.097   0.290  0.4324  0.4258  0.0372
 9981W        W25450  17.207   7.140  11.819  0.1377  0.0603 -0.0024
 9982W        W25451  15.545  11.673   5.072 -0.0099 -0.1538  0.0128
 9983W        W25452  16.339   8.455   4.703  0.1632 -0.0953  0.0255
 9984W        W25453   6.421  14.120   4.390  0.2039 -0.2569  0.1612
 9985W        W25454   2.142  17.120  12.228  0.0318 -0.1578 -0.1078
 9986W        W25455   3.302   1.823  15.413 -0.0695 -0.2075 -0.1831
 9987W        W25456  13.415   8.376   4.980  0.0480  0.1624 -0.1663
 9988W        W25457  11.285   9.033  11.065 -0.0548 -0.0260  0.1132
 9989W        W25458   8.793   5.690  14.450 -0.2265 -0.0213 -0.1695
 9990W        W25459   6.462  14.236  15.594 -0.1917  0.0338  0.1590
 9991W        W25460  11.198  11.124   1.625  0.2205  0.1962 -0.1397
 9992W        W25461   8.724  14.779  13.634 -0.1074  0.1540 -0.1061
 9993W        W25462   2.705   7.544  14.913  0.0243 -0.0706 -0.0606
 9994W        W25463   1.244  14.242  14.368 -0.1302  0.2989 -0.2634
 9995W        W25464   8.086   3.990  11.576  0.0781  0.0666 -0.0719
 9996W        W25465  14.470  10.773   2.246  0.2456 -0.1228 -0.1645
 9997W        W25466   0.151  14.531  14.260  0.1673  0.3343  0.0080
 9998W        W25467   2.408   6.332  14.113 -0.0694  0.1477  0.1699
 9999W        W25468   3.355   4.867   3.614  0.1142  0.3682  0.0422
10000W        W25469   5.266  14.558   1.982  0.1111  0.2209 -0.0254
10001W        W25470   7.830   5.790   1.488  0.0605 -0.0465 -0.2315
10002W        W25471  18.031  13.955  11.376 -0.2127 -0.0010  0.0108
10003W        W25472   9.632  10.440   0.980 -0.5451  0.0974  0.2838
10004W        W25473  15.442  15.807   2.846  0.0679 -0.0434  0.2544
10005W        W25474   9.670  12.293   0.310  0.0582 -0.1167  0.0394
10006W        W25475  16.703  12.524   1.618  0.1423 -0.3713 -0.1516
10007W        W25476  15.691  14.227  15.765 -0.1316 -0.1789  0.2191
10008W        W25477  12.659  15.001  12.499 -0.1777  0.0340  0.0298
10009W        W25478  13.777   7.277   2.291  0.0003  0.0854  0.2346
10010W        W25479  12.624   1.057  14.127 -0.2118 -0.0984  0.2260
10011W        W25480   9.303   3.066   2.221  0.1518 -0.2686 -0.0250
10012W        W25481   5.110   4.918  11.137 -0.1363  0.0356 -0.1597
10013W        W25482  13.246   0.086   1.787 -0.3673  0.2600 -0.1977
10014W        W25483   7.712   1.629  10.133 -0.1669 -0.0950  0.0113
10015W        W25484  15.022  12.231  12.668 -0.1836  0.0810  0.0421
10016W        W25485  14.480   9.720  13.631 -0.0738 -0.2744  0.2158
10017W        W25486  16.294   8.183   1.754  0.1011 -0.1530  0.1523
10018W        W25487   0.884  15.742  11.065 -0.1501 -0.0427  0.0559
10019W        W25488   6.766   1.413   5.352  0.2478  0.3698  0.0692
10020W        W25489   0.408   5.569  14.982 -0.2280  0.1220 -0.2471
10021W        W25490   8.687  16.228  13.288 -0.1141 -0.1399 -0.2076
10022W        W25491  16.675  14.573   3.815  0.0867 -0.0117  0.1153
10023W        W25492   9.637   9.701  14.918  0.1506 -0.0145  0.0050
10024W        W25493   9.885  18.388   3.417 -0.2711 -0.0881 -0.0257
10025W        W25494   9.056  13.825   4.627  0.0435 -0.0606  0.0998
10026W        W25495   3.174   4.265  10.609  0.1060  0.1343 -0.3757
10027W        W25496   2.998  11.411  12.774  0.0946  0.4133 -0.0223
10028W        W25497   0.408  12.701  14.319 -0.0065 -0.0582  0.0764
10029W        W25498  13.498   3.876   2.649  0.2043  0.0136  0.0561
10030W        W25499  11.681   1.407  10.229  0.0724  0.1146  0.1169
10031W        W25500   7.699   5.793   0.222  0.0580  0.2550  0.1721
10032W        W25501  12.836   3.420  13.877  0.0137 -0.0343 -0.3027
10033W        W25502  17.574  14.575  11.293 -0.2062 -0.0715  0.0908
10034W        W25503  18.287  14.753  11.159 -0.2478  0.1364 -0.2423
10035W        W25504   5.489  13.273  13.618  0.4245  0.2796 -0.0350
10036W        W25505   7.605  18.446   1.899 -0.0658 -0.0669 -0.2392
10037W        W25506  11.894   5.682  12.292  0.4505  0.2281 -0.0162
10038W        W25507   4.414  14.991  14.676 -0.1575 -0.1201  0.3873
10039W        W25508  16.025   4.858  13.607 -0.0444 -0.3059 -0.0132
10040W        W25509   6.437   9.858   1.779  0.2258 -0.3942  0.2162
10041W        W25510  17.647   3.138  15.573  0.5034  0.2160 -0.0580
10042W        W25511   0.180   2.459   3.886  0.1297  0.0628  0.0218
10043W        W25512  13.017   8.863   4.696  0.1578  0.1899  0.1756
10044W        W25513  15.799   2.069  10.166  0.2342  0.0100  0.1244
10045W        W25514  16.043  15.806   4.910 -0.1143  0.1878 -0.2328
10046W        W25515  15.347   3.186   4.031 -0.1859  0.1235  0.0020
10047W        W25516  10.993   0.097   3.386 -0.4625 -0.3541 -0.0311
10048W        W25517  14.880   5.464   4.221 -0.2681  0.3690 -0.0325
10049W        W25518  16.967   0.860  14.760  0.0286 -0.4141  0.2543
10050W        W25519  10.319  16.070  12.192  0.1109 -0.1439 -0.2511
10051W        W25520   9.235  10.998  10.589 -0.1534 -0.0014 -0.1419
10052W        W25521  12.563  13.374   0.190  0.0565  0.1289  0.1273
10053W        W25522  14.504   4.171   2.775 -0.0979 -0.0269 -0.2742
10054W        W25523   9.856  12.763  15.683  0.4016  0.2039 -0.1802
10055W        W25524  11.190  10.622   2.813 -0.0321  0.1018 -0.1723
10056W        W25525   6.322   1.594  14.334 -0.0146 -0.1686 -0.2430
10057W        W25526  16.505  10.887  11.289  0.1753 -0.0528  0.0314
10058W        W25527  14.391   7.932   5.932 -0.0715 -0.0726  0.1144
10059W        W25528   0.854   7.572  12.104  0.0156  0.2305 -0.0799
10060W        W25529   7.546   4.046   0.017 -0.0584 -0.0214  0.0269
10061W        W25530   6.676   0.880  13.682  0.3131  0.0223  0.0462
10062W        W25531   0.300   3.282  13.107 -0.1140  0.2070 -0.2077
10063W        W25532  10.560  10.078   6.084 -0.0822 -0.0588  0.0006
10064W        W25533   5.534   4.866   0.379 -0.0070 -0.0241 -0.0044
10065W        W25534   5.817   4.015  14.693  0.1695 -0.0185 -0.0720
10066W        W25535  18.615   3.582  12.355 -0.2565 -0.2934  0.2063
10067W        W25536   6.496  11.061   5.633 -0.1346  0.2394 -0.1720
10068W        W25537   4.975  17.580   1.739 -0.1067 -0.0900  0.2224
10069W        W25538   2.544  17.456  14.768 -0.0210 -0.0899  0.0642
10070W        W25539  17.725   0.276   1.236 -0.1239  0.2791 -0.3023
10071W        W25540   7.028  15.678   5.480  0.1723  0.2031 -0.3005
10072W        W25541   7.146   3.255  12.919 -0.2112  0.3039  0.3213
10073W        W25542   6.392  17.310  14.229  0.4139 -0.0811 -0.0282
10074W        W25543  15.238  11.112  14.965 -0.2342  0.1805 -0.0048
10075W        W25544  11.446  16.458  12.676  0.1911 -0.0969 -0.3013
10076W        W25545   9.181  10.149   1.892  0.0824  0.2600  0.0308
10077W        W25546  13.631   2.097  14.794  0.1644  0.2612 -0.0637
10078W        W25547  17.000  11.071   0.510  0.2237 -0.2062  0.3107
10079W        W25548   9.065   7.818  14.399  0.0085 -0.1967 -0.3106
10080W        W25549  15.885   5.253  14.832 -0.0128  0.1019 -0.1149
10081W        W25550  12.919  11.525  12.667  0.0056  0.1915 -0.2042
10082W        W25551  16.381  10.982   0.200 -0.2880 -0.1003  0.1693
10083W        W25552   0.050   5.441   2.404  0.0152 -0.1859  0.2289
10084W        W25553  10.811  11.741   5.931  0.1891 -0.1857 -0.0008
10085W        W25554   2.085   1.376   1.449 -0.1764 -0.0700  0.0089
10086W        W25555   2.076  18.209  12.869 -0.0644  0.3602 -0.1677
10087W        W25556  16.345  16.475  10.567  0.0123 -0.2413 -0.1645
10088W        W25557  12.330  14.343  14.882  0.2274  0.0751  0.0272
10089W        W25558  11.553   0.645   0.959 -0.1937 -0.0185  0.0004
10090W        W25559   8.325  16.558  15.087  0.2292  0.1181  0.2664
10091W        W25560  18.531   5.371  15.626  0.0463 -0.1268 -0.0259
10092W        W25561   9.155  10.206   9.789 -0.0828 -0.0432  0.1410
10093W        W25562   6.564   7.273   0.026 -0.4909 -0.0930  0.0993
10094W        W25563  15.257   5.560   4.607 -0.1620 -0.3265  0.1128
10095W        W25564   6.221   1.196   0.120  0.0802  0.0838  0.1116
10096W        W25565   1.096  15.441   4.517  0.0729  0.1178  0.2265
10097W        W25566  16.232  16.421  15.736  0.0873  0.3641  0.3405
10098W        W25567  14.931   3.723  11.556  0.1262 -0.0817 -0.0838
10099W        W25568  11.450   8.710   4.669  0.1873  0.3162 -0.1438
10100W        W25569   6.041  11.451   4.813  0.1667 -0.0011 -0.1772
10101W        W25570  17.579   5.950   2.247 -0.1580  0.0624 -0.0750
10102W        W25571   3.293   5.144   2.591 -0.2794 -0.0628 -0.1320
10103W        W25572   3.152   2.994  11.111  0.0683  0.0185  0.1563
10104W        W25573  14.114  12.492  13.611  0.0314 -0.3386 -0.1757
10105W        W25574   0.308   2.663  13.630  0.1166  0.2872 -0.4160
10106W        W25575  17.323   6.438  11.196  0.1284 -0.2851 -0.0955
10107W        W25576  11.091   7.143   1.068  0.2661  0.0610  0.0301
10108W        W25577  10.190  17.194   4.057  0.2566  0.3305  0.0509
10109W        W25578  15.576   8.204  11.176  0.2834 -0.3885  0.0424
10110W        W25579   1.383   1.658   0.844  0.1663  0.0268 -0.0257
10111W        W25580   0.949  17.066   3.064 -0.0455 -0.3434  0.0826
10112W        W25581   5.232  11.991  14.520 -0.2111 -0.2653 -0.0385
10113W        W25582   0.143   5.293   1.479  0.2840  0.3057  0.2304
10114W        W25583   8.241  17.645   0.890  0.2106 -0.0202  0.0648
10115W        W25584  17.973  16.439   4.517  0.0581  0.1124  0.0980
10116W        W25585   9.487  15.722  11.593  0.0660  0.0765  0.0925
10117W        W25586  17.601   6.099  15.141 -0.1067 -0.4665  0.1709
10118W        W25587   4.973   2.244   5.017 -0.1223 -0.0271 -0.1140
10119W        W25588   8.279  13.468  15.386 -0.0535  0.0846  0.3860
10120W        W25589  12.856  14.250  12.958 -0.0273 -0.4105  0.1241
10121W        W25590   1.097   4.692  12.436 -0.1253  0.4048 -0.0995
10122W        W25591  11.602  14.100  13.487 -0.0994  0.1859  0.0098
10123W        W25592  15.713   9.429   1.172 -0.2298  0.2364 -0.3219
10124W        W25593  14.154  16.460  12.269 -0.2507 -0.1439 -0.2421
10125W        W25594   6.379  14.070   0.691  0.3431  0.2634  0.3514
10126W        W25595   6.250   2.610   4.201  0.1264  0.1654  0.0799
10127W        W25596  10.999   2.997   0.032  0.1037  0.0902  0.1650
10128W        W25597   5.224  18.411   3.387  0.2022  0.1519 -0.0218
10129W        W25598  16.376   5.220  14.843  0.2285  0.2549  0.1099
10130W        W25599  12.320   5.856   0.298  0.1245  0.3706  0.2047
10131W        W25600   1.925  17.337   4.798 -0.2819 -0.1037  0.0756
10132W        W25601   6.834  17.515   3.429 -0.0810  0.1892 -0.3047
10133W        W25602  11.139   9.900  13.263 -0.0813  0.0432  0.0352
10134W        W25603   3.575   8.362  13.827 -0.1285 -0.2386  0.0534
10135W        W25604  13.290   7.415  11.189  0.0927  0.1892 -0.0991
10136W        W25605  10.363  13.594   1.808 -0.0035 -0.1532 -0.0720
10137W        W25606   1.831   8.949  11.069 -0.2915 -0.2108  0.0413
10138W        W25607   4.329   4.961  12.803 -0.2342 -0.2711  0.3055
10139W        W25608  18.620  15.647  15.005  0.2442  0.0209  0.1489
10140W        W25609   5.009  11.931  13.202 -0.0905 -0.1685  0.2227
10141W        W25610  17.257   0.018   0.240  0.0272  0.0709 -0.3102
10142W        W25611   1.399   0.972  13.194  0.0704 -0.0688  0.1428
10143W        W25612   5.683  16.316  15.620 -0.0831 -0.1067 -0.0414
10144W        W25613  12.638   1.830   1.921 -0.0512  0.1850 -0.0171
10145W        W25614   0.673   2.230   5.078  0.0794  0.1824 -0.1262
10146W        W25615  13.566  18.596   4.367  0.4258  0.3982 -0.3720
10147W        W25616   6.467   8.948  11.530  0.2729 -0.0496 -0.4028
10148W        W25617  15.091   7.745   4.900  0.1903  0.0232  0.0303
10149W        W25618   8.632   8.766   0.425  0.1013  0.2432 -0.1369
10150W        W25619  12.491   9.566   0.915  0.0835 -0.0337  0.1932
10151W        W25620  10.871   1.750   1.724 -0.0786 -0.0454 -0.0024
10152W        W25621   6.252  13.474  14.674  0.1533 -0.0552  0.1586
10153W        W25622  13.764   1.688  13.627 -0.0869 -0.0568 -0.0288
10154W        W25623  16.991  12.649   3.361 -0.0703 -0.0449  0.0880
10155W        W25624   4.406   3.292  10.371  0.2671 -0.0064  0.1175
10156W        W25625  11.514  11.226   5.356 -0.1058  0.2258  0.0123
10157W        W25626   4.286  12.378   4.031 -0.3261  0.4293 -0.0158
10158W        W25627   7.730   7.724   3.146 -0.2889 -0.0222 -0.1123
10159W        W25628   4.038   0.964   0.619 -0.4214  0.1851  0.1580
10160W        W25629   1.636   8.712   0.727  0.0231 -0.5935  0.1248
10161W        W25630   6.269   8.822  12.050  0.2658  0.0785  0.6113
10162W        W25631  17.063   4.518   3.542  0.0799 -0.2806 -0.0264
10163W        W25632  11.633  18.074   4.006 -0.0753 -0.2056 -0.0713
10164W        W25633  12.952   3.400   2.002 -0.0589  0.0138  0.0021
10165W        W25634   6.453   9.922   5.244  0.4255 -0.0987 -0.3523
10166W        W25635   9.384  13.529   1.001 -0.0370 -0.0023 -0.1147
10167W        W25636   4.386   4.364   1.671  0.4133 -0.0857 -0.1314
10168W        W25637   6.662  10.148   2.186 -0.0259 -0.0047  0.1490
10169W        W25638  15.511  10.595   3.218  0.2051 -0.0220 -0.0503
10170W        W25639   5.603  13.879  11.967 -0.1574 -0.1701 -0.2328
10171W        W25640  17.290  18.522  14.158  0.0382 -0.2447 -0.0006
10172W        W25641  10.111  17.345  13.706  0.1754  0.0436  0.0145
10173W        W25642   2.786   1.850   2.570 -0.2317 -0.1744 -0.0398
10174W        W25643   7.208  16.603  13.051  0.2872  0.4258  0.1205
10175W        W25644   1.712   2.328  12.467 -0.2092  0.2294 -0.2639
10176W        W25645   7.780  15.130  12.189  0.1840  0.1326 -0.1062
10177W        W25646   7.090   3.706  11.228  0.2941 -0.1809 -0.2085
10178W        W25647   4.943  12.240  13.605  0.2226 -0.0904  0.0716
10179W        W25648  11.947   2.133  12.143  0.1804  0.1186 -0.1061
10180W        W25649  15.562  14.468   3.790 -0.3590  0.1560  0.2092
10181W        W25650   1.445   8.792   4.594  0.1075 -0.0410  0.0199
10182W        W25651   9.567  15.582  12.144 -0.4036 -0.3734  0.0405
10183W        W25652   9.292  13.585   2.279  0.3045 -0.0616 -0.0630
10184W        W25653  16.118  12.740  14.244 -0.2283 -0.1681 -0.1236
10185W        W25654   3.826   8.473  14.238  0.5089  0.2011  0.2206
10186W        W25655  14.328  11.628   5.492  0.0167  0.0072 -0.1018
10187W        W25656  15.866   3.547   2.082 -0.2545  0.0880  0.1386
10188W        W25657   2.683  10.038  14.985 -0.0193 -0.0709 -0.0849
10189W        W25658  15.923   4.523   2.978  0.1134 -0.3035  0.0138
10190W        W25659  11.603   1.482   5.757 -0.1779 -0.4628 -0.1735
10191W        W25660  16.182   7.481   3.644 -0.3306 -0.1193 -0.1308
10192W        W25661   6.965   2.731  13.498 -0.1453  0.1771 -0.2254
10193W        W25662   4.190  14.951  13.022  0.0124 -0.1948  0.1069
10194W        W25663   8.516   0.810  13.304 -0.2763 -0.1417 -0.2701
10195W        W25664  13.686   0.912   0.576  0.2053  0.2382  0.3174
10196W        W25665   7.654  12.922  13.775  0.0542 -0.0068 -0.1700
10197W        W25666  15.682   4.816   3.457  0.2697  0.0068 -0.1288
10198W        W25667  18.470   3.189  14.997 -0.1538  0.1816  0.1841
10199W        W25668  17.341   0.893  11.431 -0.0235 -0.0368  0.0627
10200W        W25669   1.411  17.158  12.517 -0.0969  0.1357  0.0759
10201W        W25670  11.910   3.670   4.634  0.1510  0.1743 -0.1574
10202W        W25671   0.055   2.834  15.661 -0.3073  0.0086  0.0921
10203W        W25672   0.515  13.537  14.601  0.2204 -0.2510  0.1813
10204W        W25673   7.043  18.294   3.471 -0.1064  0.0368  0.3416
10205W        W25674   4.011  18.530  13.529 -0.4050 -0.2650  0.2144
10206W        W25675  10.523  12.117  15.754  0.2546 -0.0284  0.2593
10207W        W25676   4.357  18.496  10.765 -0.3799 -0.3635  0.0385
10208W        W25677  14.443  12.638  12.089  0.1354  0.1927  0.0129
10209W        W25678   3.185   7.690   3.718  0.0900 -0.0341 -0.3532
10210W        W25679  15.629  14.271   2.571 -0.0329  0.1249 -0.0476
10211W        W25680  18.519  17.913   0.686 -0.0784  0.2448 -0.0804
10212W        W25681  15.144   6.091  15.535 -0.2888 -0.0775 -0.0201
10213W        W25682  11.955  14.608   4.444 -0.2627  0.0264 -0.1177
10214W        W25683  10.092   9.381  13.414  0.0711 -0.2202  0.4027
10215W        W25684   3.002   5.151  13.336  0.2970 -0.1555  0.1483
10216W        W25685  17.805  14.791   5.076 -0.2252 -0.0701  0.2256
10217W        W25686  16.984   6.859  11.417 -0.1180  0.2787 -0.2014
10218W        W25687   6.537  18.189   1.528  0.3832  0.0014 -0.3563
10219W        W25688   3.031   1.608  13.723  0.2226 -0.1474  0.2436
10220W        W25689  14.300   8.250   5.589  0.0529  0.0850 -0.1364
10221W        W25690  16.296  17.000   0.977  0.0442  0.1025 -0.0150
10222W        W25691  11.601  10.688  12.496  0.0329 -0.1821 -0.1719
10223W        W25692  11.662  13.441   4.100 -0.0739  0.1233  0.2657
10224W        W25693   3.074  17.079  11.236 -0.2034  0.2208 -0.0784
10225W        W25694   8.944  18.637  10.861  0.0242  0.1226 -0.2985
10226W        W25695   4.751  14.668  13.180 -0.1180  0.2286 -0.0527
10227W        W25696  17.652   3.993  13.203  0.1238 -0.1490 -0.0854
10228W        W25697   7.262   1.671   5.273 -0.1783  0.0156 -0.1303
10229W        W25698  13.414   8.141  13.389 -0.0366 -0.0863  0.2402
10230W        W25699  10.478  11.508   2.851  0.1903  0.0735 -0.1542
10231W        W25700   2.037  12.232   4.166  0.0646 -0.4516  0.0911
10232W        W25701  17.114  18.121   2.119 -0.0947  0.1511 -0.1598
10233W        W25702  11.182   3.216   0.897 -0.0639 -0.1380 -0.0412
10234W        W25703   3.259   9.990   3.795  0.1572 -0.1085 -0.0508
10235W        W25704   1.643   4.786   4.504  0.0113  0.0557 -0.2242
10236W        W25705   2.835   2.363   0.685  0.0789  0.0203 -0.0883
10237W        W25706  13.074  10.532  14.013  0.1747 -0.0156 -0.3060
10238W        W25707   5.188   2.773   4.861  0.1428  0.0970  0.2089
10239W        W25708  15.760   0.408   4.703  0.3269  0.1159 -0.0378
10240W        W25709   2.518  15.784  14.775 -0.4082  0.2014 -0.2059
10241W        W25710   4.987  14.753  12.746 -0.0381 -0.0414 -0.0655
10242W        W25711   5.137  11.893   5.658  0.2503  0.0455  0.3736
10243W        W25712   0.793  15.158   3.669 -0.3527  0.3481  0.0678
10244W        W25713   3.295  15.226  15.465  0.0513 -0.2153  0.0918
10245W        W25714   5.655  18.263  12.563 -0.0733  0.0588 -0.2835
10246W        W25715   5.698   9.962   5.496 -0.0440  0.2781  0.2014
10247W        W25716  11.841  16.255   4.620  0.1142 -0.0423  0.0681
10248W        W25717   3.233   5.622   1.634  0.3861 -0.1153 -0.4076
10249W        W25718   3.762   4.693   5.415 -0.0812  0.1320  0.2073
10250W        W25719  11.968  16.798   0.051  0.0766  0.1911  0.0363
10251W        W25720  11.307  18.193   1.080  0.2629 -0.1228 -0.0853
10252W        W25721  12.933   7.527   0.605  0.2364  0.0713  0.0329
10253W        W25722  18.193  15.366   5.160 -0.0578  0.2363  0.0470
10254W        W25723   7.074   5.316  13.437  0.0925 -0.1548 -0.1083
10255W        W25724  13.508  11.485   4.463  0.3758  0.0225  0.2157
10256W        W25725  16.694   1.454  12.950 -0.1387  0.0531 -0.1062
10257W        W25726   0.578  15.065  14.546 -0.1584  0.1762  0.0928
10258W        W25727  12.040   9.423  15.007  0.0631  0.1295  0.0057
10259W        W25728   3.960   5.943   4.947  0.1674  0.2697  0.4339
10260W        W25729   3.602  17.514   3.094 -0.0235 -0.0649  0.1075
10261W        W25730   0.971   7.762   1.792  0.1337 -0.0451  0.3343
10262W        W25731  10.863  10.343   5.548  0.1698  0.3067  0.3161
10263W        W25732  13.236   7.509   4.946 -0.0171  0.0627 -0.2438
10264W        W25733  11.758   1.087   3.972  0.1584  0.0536  0.2082
10265W        W25734   8.629  12.432   0.082 -0.0869 -0.1672 -0.0367
10266W        W25735  14.808  14.898  14.217  0.0396 -0.1432  0.0187
10267W        W25736  18.408   1.496  10.444 -0.3207  0.4408  0.0404
10268W        W25737  13.460  16.982   5.499 -0.1865  0.0873 -0.3689
10269W        W25738  13.485   0.685   2.613 -0.2030 -0.0322 -0.2520
10270W        W25739   1.693  18.363  13.189  0.0509 -0.0617  0.1543
10271W        W25740   4.627  17.830   1.444  0.0669 -0.1603 -0.1564
10272W        W25741  14.288  10.572  14.327  0.1345  0.1941 -0.1844
10273W        W25742   3.559   8.219  12.727  0.2549  0.0125 -0.1417
10274W        W25743  13.801   9.614   5.237  0.1655  0.1300 -0.0463
10275W        W25744  10.954   0.678   0.790 -0.0582  0.0455 -0.1521
10276W        W25745   6.782   5.540   3.244  0.3213 -0.1514 -0.3628
10277W        W25746   5.029  11.600  14.887  0.0175  0.0788  0.0297
10278W        W25747   3.860   2.987   9.811  0.1119  0.0806 -0.5581
10279W        W25748   4.467   0.885  15.591  0.0266  0.0382 -0.0236
10280W        W25749  13.402  13.468   3.994  0.0993  0.1332 -0.1990
10281W        W25750  12.426  10.663   4.399  0.2296  0.3115 -0.3511
10282W        W25751   9.447   7.565  14.633  0.0267 -0.0955 -0.1459
10283W        W25752  11.542  15.901  11.705  0.0038 -0.0355 -0.0457
10284W        W25753  17.612   6.785   4.526 -0.1730 -0.1588  0.1881
10285W        W25754   9.911  10.592  15.307 -0.4208 -0.1019 -0.1795
10286W        W25755   6.333   3.018   4.488  0.1463  0.1760  0.0094
10287W        W25756   5.588  13.380  12.842  0.4067  0.0042  0.0924
10288W        W25757   6.959   8.689  12.443 -0.1989  0.3769 -0.1008
10289W        W25758   2.516   2.623  11.002  0.0951  0.0647  0.0659
10290W        W25759   4.219  11.714  12.513  0.0868  0.1775 -0.1701
10291W        W25760   8.571   5.369   4.826  0.1422  0.0684  0.1997
10292W        W25761   1.919  13.819  12.607  0.2622 -0.0626 -0.1567
10293W        W25762   6.383   3.686  11.744  0.3519 -0.3357 -0.0344
10294W        W25763   3.420   9.729   2.784  0.0339 -0.3484  0.1110
10295W        W25764  16.686   2.944   2.317  0.0119  0.2758 -0.3804
10296W        W25765  12.330  11.810   0.137 -0.0045  0.2091  0.0370
10297W        W25766   8.297   1.962   4.802  0.1561  0.0203 -0.0866
10298W        W25767  16.921  15.235   3.726 -0.0757  0.4376 -0.2073
10299W        W25768  10.448  17.719  11.568  0.0399  0.1222  0.2183
10300W        W25769   4.181  11.779  14.377 -0.0202  0.0979 -0.0336
10301W        W25770   3.258   7.735   0.432 -0.5801  0.0155 -0.3608
10302W        W25771   1.141   0.797  12.685  0.1015 -0.1997  0.1189
10303W        W25772  12.617   1.453   3.175 -0.1467  0.2540 -0.0725
10304W        W25773  18.143  14.328  12.945 -0.0427  0.3231 -0.0172
10305W        W25774  13.140  13.322  12.027 -0.3090  0.0714  0.1856
10306W        W25775   3.822   6.555   2.291 -0.0698 -0.0476 -0.1220
10307W        W25776  11.427  18.053   2.384 -0.0564 -0.0143  0.0758
10308W        W25777  15.208  14.798   4.915  0.1314 -0.0299  0.2974
10309W        W25778  10.474   9.744  13.312 -0.0368 -0.1515  0.3152
10310W        W25779  10.971   6.404   5.146  0.0683 -0.0242  0.3461
10311W        W25780   4.263   1.721   1.855 -0.2804  0.0017  0.1089
10312W        W25781  11.698   6.127  12.574 -0.0815  0.1348  0.0686
10313W        W25782   9.993   1.303   1.449 -0.1001  0.5173 -0.0908
10314W        W25783   5.900   0.744   0.357  0.4040  0.1122  0.2304
10315W        W25784   5.603   0.768   3.909 -0.0399  0.0882  0.2848
10316W        W25785  11.625   8.693  14.719  0.1764  0.0340  0.2935
10317W        W25786   5.104   2.925   4.293 -0.4245 -0.0146 -0.1054
10318W        W25787  15.350  17.112   0.917  0.0702 -0.0172  0.1456
10319W        W25788   7.213  11.922   2.418 -0.0005  0.2280 -0.0787
10320W        W25789   0.991   5.682  10.671  0.0171 -0.0751  0.2096
10321W        W25790  18.252  10.985   4.713 -0.0621 -0.2641 -0.1858
10322W        W25791   0.815   9.683   1.217 -0.0397  0.3582 -0.0729
10323W        W25792  18.374   8.039  11.624  0.0471  0.0091  0.0774
10324W        W25793   4.464   5.998   3.829 -0.0138 -0.3413 -0.1630
10325W        W25794   4.974   1.482   4.771  0.1701  0.1372 -0.1225
10326W        W25795   1.388  12.421   0.694 -0.1115  0.0298  0.0043
10327W        W25796  11.364  16.948  11.907 -0.0668 -0.2321 -0.1952
10328W        W25797   5.336   9.363  13.666  0.1799  0.2524  0.0412
10329W        W25798  12.828   7.510   2.416 -0.0271  0.0506  0.1860
10330W        W25799   2.345  10.484   3.274 -0.0656 -0.2196  0.0231
10331W        W25800   8.872  10.286   5.302  0.2166  0.2008  0.1307
10332W        W25801   5.991  13.571  15.634  0.0850  0.1241 -0.1852
10333W        W25802   6.202  16.009  11.835 -0.0513 -0.2910 -0.0723
10334W        W25803   7.765  17.484  10.954 -0.0758 -0.3344 -0.2064
10335W        W25804   6.321   2.093  10.524 -0.2711 -0.0558 -0.0593
10336W        W25805   6.883   9.568  12.601  0.2311 -0.4558 -0.1439
10337W        W25806  17.421  10.727   3.442 -0.2348 -0.0889  0.0519
10338W        W25807  10.959   9.441  14.641 -0.0577 -0.1146  0.5155
10339W        W25808  17.584   6.911  14.669 -0.1559 -0.1084 -0.1557
10340W        W25809  18.519  11.491  11.224 -0.2365  0.3277 -0.0719
10341W        W25810   5.149   6.456   3.102  0.3737 -0.0584 -0.1881
10342W        W25811  16.072   7.037   3.383 -0.1768  0.2853 -0.1761
10343W        W25812   2.969   6.183   4.776  0.1646  0.0967  0.2694
10344W        W25813  14.515  13.606   3.644  0.3513 -0.3005 -0.0264
10345W        W25814   4.601   7.846   5.075 -0.2304 -0.1379  0.1173
10346W        W25815  14.966   1.011  12.217 -0.2864  0.0902  0.0542
10347W        W25816   0.193   2.166   2.905  0.0999  0.1307  0.0718
10348W        W25817  17.711   6.850   1.878 -0.0294 -0.2553 -0.2498
10349W        W25818   0.206   1.432   1.845  0.1191  0.1757  0.1228
10350W        W25819   7.692   7.713  13.982 -0.2454 -0.1803 -0.2286
10351W        W25820   7.610  10.380  15.631 -0.2184 -0.0851 -0.0324
10352W        W25821   8.890  16.490   2.065  0.0321  0.2957  0.0941
10353W        W25822  13.265   1.382   2.443  0.0211  0.0424 -0.5631
10354W        W25823   6.318  14.179  11.032  0.0479  0.1683  0.1831
10355W        W25824   5.688   4.900   5.124 -0.0221 -0.1122 -0.0413
10356W        W25825   8.042   8.471   4.763  0.1385 -0.3319 -0.0920
10357W        W25826  12.658   8.519   4.850 -0.1844 -0.1605  0.4360
10358W        W25827  11.346   8.978   2.392  0.3085 -0.1083 -0.0148
10359W        W25828  16.067  16.854   3.293 -0.2260  0.1542  0.2510
10360W        W25829  18.369  13.394   0.435  0.0222  0.3285  0.1494
10361W        W25830  16.197   9.463  11.890  0.0748  0.4007 -0.0778
10362W        W25831  18.523   2.483   2.068  0.0664 -0.2481 -0.0713
10363W        W25832   8.817   0.332   3.101 -0.0123  0.2034  0.1406
10364W        W25833   6.137   3.028   3.974 -0.0686 -0.0988 -0.3292
10365W        W25834   4.818   4.486   4.611  0.1071 -0.1631  0.0082
10366W        W25835  12.202  10.746   5.853  0.1002  0.0855 -0.1180
10367W        W25836   3.502  13.650   1.124 -0.1346 -0.1082  0.0215
10368W        W25837   2.659   9.609   3.014  0.1178  0.0133 -0.2223
10369W        W25838  17.225   2.384   1.859 -0.1367  0.0166 -0.3806
10370W        W25839  17.050   1.832  12.692  0.0918  0.2828 -0.0668
10371W        W25840  11.403   7.357   1.538 -0.0988  0.1878  0.0543
10372W        W25841  18.012  12.342  11.433  0.1301  0.0607 -0.0867
10373W        W25842  10.048  16.712  15.335  0.2362  0.0559 -0.1010
10374W        W25843   1.143   8.552  14.866 -0.1068 -0.2034 -0.0135
10375W        W25844  12.575  12.287  12.768  0.0977  0.1587  0.3496
10376W        W25845   2.428  11.449  14.958 -0.0908  0.1737 -0.0201
10377W        W25846   3.619   3.546  14.978  0.0239 -0.0027 -0.2345
10378W        W25847   4.998  11.615  14.126  0.1366 -0.4924  0.2784
10379W        W25848   8.962  11.213   5.542 -0.1322  0.0178  0.2180
10380W        W25849  18.645  18.438  11.376 -0.0929 -0.1500  0.3189
10381W        W25850   3.567   2.923   2.174  0.3102  0.0724  0.0297
10382W        W25851  17.317  10.415  15.225 -0.1327  0.4872 -0.0771
10383W        W25852   6.421   3.007  12.070  0.1035 -0.2807 -0.0760
10384W        W25853   6.229  16.077  12.534 -0.0300  0.1629 -0.2991
10385W        W25854   4.130   1.162  13.435  0.0810  0.2322  0.3038
10386W        W25855  11.281   3.113   1.394 -0.1074  0.0648 -0.0046
10387W        W25856   0.867   9.005  10.835 -0.0061  0.2493 -0.1771
10388W        W25857   0.851   6.494  12.885 -0.1939  0.1641  0.1859
10389W        W25858   1.256   1.715  11.072 -0.0144  0.4414  0.0206
10390W        W25859   4.440  18.597  14.032  0.0116 -0.0179 -0.0631
10391W        W25860   5.186   4.621  10.710 -0.2277 -0.0877 -0.0032
10392W        W25861  14.556   7.812  13.587  0.0163 -0.2856 -0.4919
10393W        W25862   9.381  14.730   3.122 -0.0763 -0.0256  0.1473
10394W        W25863  15.555   6.107   2.961  0.2421  0.3763  0.2617
10395W        W25864  13.528  11.291   0.550 -0.0992  0.1797 -0.0288
10396W        W25865  17.480   2.678  15.771  0.1489  0.1604  0.0195
10397W        W25866   8.594   3.874  13.333 -0.0864 -0.1447 -0.0742
10398W        W25867   0.442   7.748  14.605 -0.3047 -0.0244 -0.0631
10399W        W25868  12.439   0.157   3.159  0.1006 -0.3533 -0.0832
10400W        W25869  11.499  15.154   1.934  0.0224 -0.1734  0.3908
10401W        W25870   7.575   4.535   3.567 -0.0722 -0.2544 -0.2329
10402W        W25871   4.412  14.283  13.811  0.0009 -0.1110 -0.3091
10403W        W25872   9.072  10.079   2.809 -0.0922  0.4131  0.0336
10404W        W25873   2.256  11.127  11.827  0.5100  0.1163 -0.0064
10405W        W25874   5.539   8.751   6.244  0.1293 -0.0884  0.0358
10406W        W25875   6.422   9.263   1.836  0.4210  0.3675 -0.1715
10407W        W25876  15.949   1.720   0.402 -0.0352  0.4199  0.0755
10408W        W25877   2.158   0.091   1.211 -0.0345 -0.0361 -0.2320
10409W        W25878  18.243  13.156  10.873 -0.0684 -0.0568  0.2790
10410W        W25879   2.169   6.434  14.576  0.2217 -0.4210 -0.0816
10411W        W25880  18.016   5.448  14.708 -0.0851  0.1856 -0.3359
10412W        W25881   4.365   1.434  12.404 -0.2644 -0.0620 -0.2125
10413W        W25882  14.193   6.090  15.664 -0.2782 -0.2343  0.2324
10414W        W25883   9.890  14.923  14.022  0.3065 -0.2314  0.1148
10415W        W25884  14.673   4.624   3.989  0.0483  0.3430  0.1911
10416W        W25885   2.177  14.999  10.715 -0.0154  0.0627 -0.0895
10417W        W25886  11.244  10.172  10.267 -0.0536  0.0397 -0.3048
10418W        W25887   6.538   9.652   2.243 -0.0085 -0.2525  0.0822
10419W        W25888   2.203   6.836   4.997  0.2257 -0.0214  0.4663
10420W        W25889   9.956  12.602  12.602 -0.3068 -0.1164  0.3109
10421W        W25890   1.604  11.967   2.568  0.0195 -0.0399 -0.0900
10422W        W25891  15.815  12.839  12.405 -0.0711 -0.0162  0.1781
10423W        W25892  13.397  13.593   6.070 -0.1847 -0.0900  0.1418
10424W        W25893   9.050   1.408  12.829  0.0256 -0.2325 -0.2239
10425W        W25894   5.818  11.363   4.424  0.1875 -0.2338 -0.1887
10426W        W25895   1.621  18.128   4.617  0.3301 -0.1583  0.0297
10427W        W25896   1.481   5.057   3.540  0.0131  0.0079 -0.2740
10428W        W25897  15.803   0.566  12.029  0.2985 -0.0402  0.4148
10429W        W25898  12.004  17.165   0.799  0.1459 -0.0316 -0.0173
10430W        W25899   0.352  18.247  14.309 -0.4535 -0.2113 -0.0192
10431W        W25900  13.715   4.598   1.181 -0.0370  0.0713  0.0356
10432W        W25901   9.805   6.905   3.080  0.1972 -0.1507 -0.0110
10433W        W25902   6.366   2.548  10.861  0.0288 -0.1685 -0.0369
10434W        W25903  16.997   0.623   1.854  0.2372  0.0365  0.0281
10435W        W25904  10.238   7.380  12.196 -0.0863  0.1456  0.2086
10436W        W25905   4.707   9.335   1.784 -0.0060 -0.0878 -0.2621
10437W        W25906  15.655  13.304  12.395  0.0016  0.0256 -0.1315
10438W        W25907  12.098   9.345  11.016 -0.0512  0.3652 -0.2108
10439W        W25908   5.527  10.370  13.676  0.1574  0.2764 -0.0806
10440W        W25909   3.388   4.548  15.356 -0.1161  0.1835 -0.1362
10441W        W25910   0.877  11.496   5.186  0.0634  0.0198 -0.0360
10442W        W25911  13.033  14.805   5.728 -0.1267 -0.1495  0.1235
10443W        W25912  13.719   0.937  14.277 -0.0261 -0.1654  0.0805
10444W        W25913  12.451   9.056  11.226  0.0005 -0.1833 -0.1222
10445W        W25914  15.323  17.295  14.395  0.1393  0.0919  0.1690
10446W        W25915  10.086  14.537   0.197 -0.2605 -0.5480  0.5171
10447W        W25916  16.290  18.607  10.277  0.2824 -0.2643  0.3251
10448W        W25917  11.108   8.228  13.094 -0.4502 -0.3024 -0.0835
10449W        W25918   2.754  12.619  11.756  0.0176  0.0823 -0.2133
10450W        W25919   2.467  16.549   4.388 -0.1844 -0.1909 -0.2924
10451W        W25920   9.164   3.330  14.415 -0.1890  0.0689  0.1946
10452W        W25921   1.343  11.909  14.237  0.2060  0.1910 -0.4139
10453W        W25922   3.601   5.240   3.249 -0.2088 -0.3366  0.2155
10454W        W25923  17.780   5.844  15.580 -0.0495 -0.3353  0.0525
10455W        W25924   6.549  18.477   3.348  0.0306 -0.1009 -0.2270
10456W        W25925  17.613  18.365  15.594  0.0154 -0.0890 -0.0755
10457W        W25926  11.027  17.043   3.562  0.2996 -0.2437 -0.2966
10458W        W25927  13.481   6.062  13.883 -0.0803 -0.0890  0.0227
10459W        W25928  14.210   3.541   4.878 -0.1508  0.1374 -0.0719
10460W        W25929   6.128   2.855   4.969  0.1521  0.1475  0.0009
10461W        W25930   7.938  13.214  13.433  0.0799 -0.0020 -0.2608
10462W        W25931  11.930   1.844   2.584 -0.3248 -0.0045 -0.0398
10463W        W25932  18.278   2.061  10.991 -0.1406  0.0856  0.2223
10464W        W25933  17.607   2.576   0.595 -0.0486  0.2338  0.3541
10465W        W25934   0.909   8.090   5.905 -0.0282  0.4786  0.0098
10466W        W25935  15.559  12.397  13.664 -0.0774 -0.2686 -0.1768
10467W        W25936  13.081  12.875  15.084  0.0223 -0.0451 -0.0628
10468W        W25937   1.617   8.666  14.716  0.0291  0.2986  0.0225
10469W        W25938  11.040   5.990   4.868  0.0968  0.0894 -0.3628
10470W        W25939  12.022   2.121  12.888 -0.0396 -0.0188 -0.1726
10471W        W25940   8.188  13.505   5.031 -0.4264 -0.2009 -0.0686
10472W        W25941  14.064   4.005  11.895 -0.0868  0.1584 -0.0208
10473W        W25942  16.119   6.354  11.534  0.1618  0.1356 -0.3048
10474W        W25943  10.165   9.408   2.366 -0.0899  0.0759 -0.1764
10475W        W25944  10.168   3.456   2.643 -0.2442 -0.0688  0.0521
10476W        W25945  18.696  17.108   1.993  0.0817 -0.2197 -0.1581
10477W        W25946  14.501   5.327  14.499 -0.0143  0.1785 -0.4847
10478W        W25947  17.950  17.116   5.127  0.1553  0.3506 -0.3756
10479W        W25948   9.783   4.548   5.307  0.0505 -0.0849 -0.1887
10480W        W25949  16.578   0.990   2.965 -0.0250  0.2544  0.1411
10481W        W25950   7.046   7.311  10.576  0.0962 -0.0860  0.1557
10482W        W25951   9.534  11.396   3.929 -0.1366  0.1401 -0.1706
10483W        W25952  16.470  14.387  14.816  0.1476  0.1849 -0.1916
10484W        W25953  14.630   3.476  11.861 -0.0374 -0.0605  0.6198
10485W        W25954   1.152   8.975  15.223 -0.1870  0.2102  0.2808
10486W        W25955  15.192  13.802   4.484 -0.0296  0.1403 -0.2065
10487W        W25956   5.817   3.550   0.404  0.0243  0.0871 -0.1666
10488W        W25957  16.896  12.255   3.966 -0.0066 -0.2877  0.0095
10489W        W25958  10.423   2.666   0.531  0.0194 -0.0864  0.1815
10490W        W25959  16.716   2.802  15.695 -0.1091  0.0461 -0.3806
10491W        W25960  17.981   2.801  12.636  0.1969 -0.0696 -0.0927
10492W        W25961   0.467   8.969   4.978  0.1268  0.0453 -0.2394
10493W        W25962   0.555   3.249  15.307  0.4809  0.1634 -0.1216
10494W        W25963  11.160  15.063  14.086 -0.3387  0.1962  0.0162
10495W        W25964   0.121  11.286  15.336  0.1284  0.0120 -0.0395
10496W        W25965  18.100   0.184  15.635  0.0063 -0.2905 -0.2133
10497W        W25966   6.286  12.297  10.101 -0.2233 -0.0352  0.1414
10498W        W25967  13.665  17.891   0.326  0.1822  0.1958 -0.0423
10499W        W25968  16.803   1.934  14.677  0.1667  0.2421  0.2319
10500W        W25969  17.159   9.693  12.276  0.0775 -0.0778 -0.2764
10501W        W25970   8.180   8.585   0.524 -0.5059 -0.1560  0.2316
10502W        W25971  10.826  11.611  13.968  0.2348  0.0939  0.1320
10503W        W25972  17.346   5.657   2.639 -0.0359 -0.2848  0.1278
10504W        W25973   9.710  15.164   1.367 -0.1075  0.1305  0.4002
10505W        W25974  16.534   4.854  12.908  0.2501 -0.0201  0.1783
10506W        W25975  11.478  18.154  13.507 -0.0896 -0.3483  0.0799
10507W        W25976   2.046  10.688   2.654 -0.1295  0.1228  0.0050
10508W        W25977   4.569  11.925  13.457 -0.1876 -0.0807 -0.1371
10509W        W25978   5.539  14.606   5.198  0.2011  0.1067  0.2945
10510W        W25979   4.510  10.672  10.978 -0.1866  0.2604  0.0717
10511W        W25980   1.122  18.596  14.652 -0.2157 -0.1240 -0.2535
10512W        W25981   3.267  15.928  11.810 -0.1076 -0.1167  0.0681
10513W        W25982   2.112   0.494  11.523 -0.3829 -0.0366  0.0705
10514W        W25983   3.511  13.024  11.671 -0.3353  0.1927  0.0207
10515W        W25984  17.826  12.849   3.299 -0.1503  0.4401  0.0573
10516W        W25985  16.468  15.787  14.818 -0.1491 -0.0814 -0.1499
10517W        W25986  10.214  14.166  14.436 -0.2614  0.0595  0.1178
10518W        W25987   0.782  10.886   5.185  0.1561 -0.0699  0.0915
10519W        W25988   5.507  11.832   4.295 -0.0324  0.0235  0.0601
10520W        W25989  11.394   8.472   0.730  0.0780  0.1778  0.0291
10521W        W25990  18.011  15.434   0.780 -0.0955  0.3696 -0.1421
10522W        W25991  16.810  15.953  11.342 -0.2568  0.1033 -0.0572
10523W        W25992   1.495   6.331  11.965 -0.0133 -0.0987 -0.0008
10524W        W25993  11.994   8.820  12.177 -0.0194 -0.0963 -0.0757
10525W        W25994   0.499   6.501   0.207  0.2207 -0.1156 -0.2829
10526W        W25995   5.674   9.268   0.404  0.3104 -0.0070  0.1036
10527W        W25996   9.525   4.660  10.076  0.4269 -0.1417 -0.3174
10528W        W25997   6.637   5.365   2.277 -0.0530  0.2074  0.4100
10529W        W25998  17.446   2.085   3.088  0.1975  0.1618  0.2694
10530W        W25999  18.594   3.364   0.237 -0.1882 -0.3390  0.0466
10531W        W26000   4.908   2.373   3.551 -0.0079  0.1668  0.0120
10532W        W26001   6.207   7.290  14.039  0.1470  0.2687  0.1350
10533W        W26002  13.001  14.760  12.839  0.1403 -0.1469 -0.0639
10534W        W26003   3.210   6.367  11.844  0.3459  0.0667  0.2584
10535W        W26004   0.690   3.467  11.132  0.2438 -0.1516 -0.1105
10536W        W26005  18.308  11.177   1.692 -0.0362 -0.3137 -0.2619
10537W        W26006   5.016  13.811  13.928 -0.0264  0.0498 -0.0687
10538W        W26007  16.757  16.119   4.306 -0.2990  0.1966 -0.1172
10539W        W26008  12.357   0.115  10.022  0.1200 -0.0985 -0.1774
10540W        W26009   9.799  15.102  14.696 -0.0184  0.1168  0.1068
10541W        W26010   1.329  17.746  11.275  0.0107  0.2558  0.1436
10542W        W26011   5.009   7.971   4.202 -0.2567  0.0273  0.0018
10543W        W26012   1.099  10.087   1.952 -0.0155  0.0896  0.1137
10544W        W26013   2.730   3.407  14.543  0.1966  0.1623  0.4032
10545W        W26014   0.699   1.055  12.733  0.0227  0.4384 -0.0192
10546W        W26015   7.200  15.118  10.902  0.0367  0.1751  0.0625
10547W        W26016   9.627   4.572   4.809 -0.0425  0.2038 -0.1018
10548W        W26017   6.871  18.575   0.214 -0.2398 -0.1648  0.1828
10549W        W26018   9.622  17.583  12.447  0.2048  0.3011 -0.4175
10550W        W26019  15.743   2.941   0.748 -0.0643 -0.3475 -0.1876
10551W        W26020   1.100  14.349   1.339  0.0577 -0.1263 -0.1560
10552W        W26021   2.627   9.821   1.062  0.0196 -0.3135  0.0200
10553W        W26022  11.957  15.105  13.790  0.0013 -0.1454 -0.0893
10554W        W26023  17.103  14.417  12.552  0.1880 -0.4469 -0.0612
10555W        W26024   7.912   3.191  10.963  0.1871  0.1157 -0.0511
10556W        W26025  14.206  14.008   2.805 -0.0072  0.0868  0.0253
10557W        W26026  10.244   2.874  11.148 -0.0447 -0.0525  0.0874
10558W        W26027   4.479  13.205   4.810  0.2866  0.2646  0.3897
10559W        W26028  11.526   0.634  11.101 -0.1661 -0.1188 -0.1055
10560W        W26029  13.340  17.459  11.132 -0.0612 -0.1526 -0.3343
10561W        W26030  18.637   1.449  14.816  0.3067  0.1655 -0.2919
10562W        W26031   0.838   1.412  12.364  0.3528 -0.0024 -0.0873
10563W        W26032  10.208  17.852  12.406 -0.0930  0.0741 -0.1337
10564W        W26033   5.339   3.078  12.709  0.0728  0.1189 -0.1245
10565W        W26034   9.157   1.469  12.364  0.1238  0.2863 -0.3581
10566W        W26035  10.474   2.796   5.272 -0.3087 -0.1437  0.1163
10567W        W26036  14.028   0.552  11.647  0.2991 -0.1751  0.0413
10568W        W26037   6.565   1.247   3.130  0.0628  0.0157  0.0318
10569W        W26038  15.095  11.539  13.786 -0.0920  0.1142 -0.0811
10570W        W26039   3.573   8.657   3.735 -0.0657 -0.0602 -0.2994
10571W        W26040  18.344  18.455   3.158 -0.1273 -0.0048 -0.0613
10572W        W26041  16.601   9.098   3.334 -0.0734 -0.0189 -0.2899
10573W        W26042  18.524   7.048  11.544  0.2737  0.2413  0.0752
10574W        W26043  13.950   6.000   3.668 -0.1261  0.1448 -0.1972
10575W        W26044   6.013  16.996  13.391 -0.0569 -0.1788  0.1970
10576W        W26045  12.905   3.969   2.694 -0.0094  0.2491 -0.1579
10577W        W26046   6.099  10.577  12.629  0.0578 -0.0117 -0.1627
10578W        W26047  12.594   3.285  13.469 -0.3524 -0.2795  0.2313
10579W        W26048   9.725  13.827   5.605  0.1992  0.0270 -0.1362
10580W        W26049   0.555  16.163   0.748  0.0330  0.1601 -0.0219
10581W        W26050  12.970   2.890   4.942  0.2936  0.0747  0.0454
10582W        W26051  11.383  14.521  13.259 -0.4283 -0.3709 -0.0109
10583W        W26052   3.041   2.297   2.727 -0.0717  0.2754 -0.0623
10584W        W26053  14.947   2.904  11.930 -0.1789  0.1286  0.2104
10585W        W26054  16.915  10.986   2.370 -0.1946  0.1746 -0.0168
10586W        W26055  12.355  15.538  12.331 -0.2104 -0.1981  0.4345
10587W        W26056   8.602   0.551   3.528  0.1281 -0.0018 -0.0174
10588W        W26057   9.662   9.950  13.981  0.3997  0.2211 -0.3935
10589W        W26058  15.566  18.590  15.396  0.1018 -0.0791  0.0210
10590W        W26059   9.938  15.621  13.584  0.2980  0.0140  0.0882
10591W        W26060  13.802   8.109   4.860 -0.1441  0.0173  0.2063
10592W        W26061   1.980   6.568  14.107  0.4843  0.0541  0.3752
10593W        W26062  13.602  10.452  12.888 -0.1302  0.0200 -0.4523
10594W        W26063  17.221   8.503   0.047  0.0753  0.0536 -0.1330
10595W        W26064  10.712  17.525   1.829 -0.2473 -0.4872  0.3223
10596W        W26065   7.344  15.025   3.738  0.1101  0.1441  0.0132
10597W        W26066   9.686   3.951   5.421  0.3988 -0.1875 -0.0859
10598W        W26067  11.589   8.902  15.240  0.2230  0.1505 -0.2606
10599W        W26068   8.481  10.601   2.069  0.3683  0.2842 -0.0535
10600W        W26069  15.644   3.535  13.235  0.1089 -0.0159 -0.0564
10601W        W26070  15.349   9.868   3.831  0.0768  0.0851 -0.2393
10602W        W26071   3.148  18.011   9.910 -0.2824  0.0828 -0.0756
10603W        W26072  15.669   6.056  11.691  0.3568 -0.1510  0.2456
10604W        W26073  15.662   6.370   2.466 -0.1158  0.5506  0.0319
10605W        W26074   7.868  12.105   5.838  0.5306 -0.1985  0.1896
10606W        W26075  14.191   2.528  13.284  0.0145  0.0284  0.0049
10607W        W26076  15.353  13.430   5.315 -0.1229 -0.3926  0.1424
10608W        W26077   4.553   5.626   0.121 -0.1250 -0.1439 -0.0557
10609W        W26078   9.463   3.443   3.324 -0.0428  0.0657  0.0808
10610W        W26079  12.940  17.135  13.101 -0.0823  0.1474 -0.0696
10611W        W26080   2.796   9.368  14.695 -0.2647 -0.3889  0.1206
10612W        W26081   3.326   2.255   5.336  0.0384 -0.0324  0.1261
10613W        W26082  11.366  17.639   4.104 -0.0468 -0.1755  0.3949
10614W        W26083   7.404  16.964  12.186  0.2397 -0.0374 -0.0323
10615W        W26084   4.350   6.872   1.847 -0.0178  0.1847 -0.1532
10616W        W26085  16.921   4.220   2.045  0.5734  0.3124 -0.1250
10617W        W26086  15.191  13.646  10.898  0.0456  0.3932  0.0340
10618W        W26087  18.428   1.126   4.549 -0.1349  0.2303 -0.3166
10619W        W26088  17.910  10.501  15.254  0.2768  0.2424  0.5350
10620W        W26089  17.363  10.208  11.139 -0.3450 -0.0390 -0.0059
10621W        W26090   7.955   2.660  11.164 -0.0291  0.0448  0.1084
10622W        W26091   6.276   6.240   0.933  0.0145  0.0046 -0.2378
10623W        W26092  13.020  15.732   2.207 -0.0350 -0.1987 -0.1402
10624W        W26093  13.696   5.322   0.965 -0.1732 -0.1067  0.1688
10625W        W26094  11.643  17.372   3.242  0.0950  0.0892 -0.1474
10626W        W26095  10.888   9.807  11.428  0.2164  0.0343  0.2390
10627W        W26096  18.212  12.497   4.609 -0.2084  0.1188 -0.2306
10628W        W26097  12.129   0.605   3.178 -0.1383  0.0735 -0.1134
10629W        W26098   3.739  11.074   4.453 -0.0039 -0.0112 -0.2288
10630W        W26099   8.501  10.646   3.165 -0.0323 -0.0625 -0.1070
10631W        W26100   1.246   5.826  13.245 -0.1499 -0.0650  0.2882
10632W        W26101  17.325   9.932  15.227  0.3340 -0.1302 -0.0946
10633W        W26102   6.032  18.017  13.628 -0.1641 -0.2498  0.1457
10634W        W26103  13.933   7.020  14.498  0.3373 -0.2014 -0.2515
10635W        W26104   8.191   2.259  11.796  0.1787  0.1706 -0.0261
10636W        W26105   8.583   9.262   0.400  0.1172  0.1576 -0.0775
10637W        W26106   3.987   7.266   5.004 -0.1176  0.0910 -0.2417
10638W        W26107  14.369   7.976   4.241  0.2826 -0.0559 -0.3031
10639W        W26108   1.267  16.598   0.557  0.2706 -0.0012  0.1137
10640W        W26109   8.480  11.336   2.333  0.0801 -0.1238 -0.1014
10641W        W26110  16.755  10.754  13.453 -0.0128  0.2019  0.0191
10642W        W26111   8.673  16.512   1.403 -0.1059  0.0074  0.0792
10643W        W26112  17.306   5.287  11.964 -0.0739  0.4048  0.0848
10644W        W26113  12.292  16.776   0.497 -0.2594 -0.1991  0.2617
10645W        W26114   1.667  10.014  14.776 -0.0697  0.2085 -0.0057
10646W        W26115   8.926   1.773  14.392 -0.0348  0.1531 -0.1035
10647W        W26116   1.368   6.377   3.032  0.0879  0.1746 -0.2904
10648W        W26117   4.322  10.113  13.248  0.1803 -0.1964  0.0585
10649W        W26118   7.053  14.786   1.136  0.0459 -0.0198 -0.0042
10650W        W26119   1.585   4.087   0.167 -0.0202  0.1945  0.2669
10651W        W26120  12.984  13.920  12.207  0.0924  0.3320  0.2491
10652W        W26121  12.440   1.718  14.586 -0.0962  0.1449 -0.3326
10653W        W26122  12.340  16.277  15.515  0.2361 -0.1798 -0.0140
10654W        W26123   1.123   5.551   4.229 -0.1552 -0.3258 -0.0203
10655W        W26124  11.618   5.756  14.568 -0.0424 -0.0271  0.1136
10656W        W26125  17.016   0.059  14.988 -0.0681  0.0648  0.0035
10657W        W26126   5.759   6.715   5.317 -0.0141 -0.1278  0.0627
10658W        W26127  16.058  10.169   2.729 -0.0484  0.2615  0.1975
10659W        W26128   8.072   9.395   1.167  0.1399  0.0913 -0.0908
10660W        W26129  18.246   4.964  12.480 -0.0030 -0.2116 -0.0569
10661W        W26130   3.613   3.628   2.138 -0.1421  0.1309 -0.0723
10662W        W26131   1.049   7.962   4.753  0.0341  0.4034  0.0637
10663W        W26132   1.214   9.079   2.942  0.0878 -0.1266  0.1659
10664W        W26133  16.202  10.150  12.206 -0.1207 -0.2077  0.1223
10665W        W26134  13.182   6.714  13.062 -0.2291  0.0916  0.1875
10666W        W26135  11.620   8.203   4.651  0.2475  0.1433  0.3977
10667W        W26136   1.990   7.314   6.155 -0.0599 -0.2814 -0.0372
10668W        W26137  13.269   1.457  12.468 -0.1444 -0.0495  0.5665
10669W        W26138   4.745   5.254  12.895  0.1021  0.1605 -0.1547
10670W        W26139   2.987   9.161  13.380 -0.3263  0.0456  0.2813
10671W        W26140  11.968   2.534  15.240  0.0572  0.1648  0.3614
10672W        W26141   3.783   4.372  12.368 -0.1421 -0.3553 -0.0130
10673W        W26142   0.003  14.010  12.249 -0.0684  0.1830 -0.1976
10674W        W26143   5.893   6.816   1.040 -0.4194  0.2043 -0.2069
10675W        W26144   3.173  16.945  12.750  0.4657 -0.5278 -0.0060
10676W        W26145   9.621  12.091   5.337 -0.2813  0.0717 -0.1998
10677W        W26146  16.066  17.283   2.702  0.0625 -0.0953 -0.1296
10678W        W26147   2.189  15.411  12.596 -0.1748 -0.0985  0.2270
10679W        W26148  14.616  17.318  13.288 -0.2559  0.0207 -0.0510
10680W        W26149   4.689   5.779   3.190 -0.0665  0.0328 -0.0737
10681W        W26150   4.688   0.743   0.768 -0.1581 -0.0653  0.2904
10682W        W26151   6.278  16.981   1.682 -0.3071 -0.0645  0.3177
10683W        W26152   1.382  14.247   1.888  0.2003  0.5175  0.1848
10684W        W26153  16.630  15.403   9.598 -0.0932  0.2561  0.1944
10685W        W26154   0.908   6.423  15.455 -0.0881 -0.1105 -0.1620
10686W        W26155  15.628  18.121  13.174  0.0014  0.1744 -0.0060
10687W        W26156   1.639  14.113  14.024  0.0862  0.1433  0.3531
10688W        W26157   2.193  10.575   5.523 -0.2906  0.2391 -0.1699
10689W        W26158  11.291  13.337  15.323  0.4087  0.0390  0.0719
10690W        W26159   7.949  11.940   1.105  0.2316 -0.4855  0.1670
10691W        W26160   0.732  18.242   1.620  0.0378 -0.0400 -0.1263
10692W        W26161  17.663   8.105   4.190 -0.0650  0.3932 -0.0886
10693W        W26162  15.597  13.352   1.442  0.1228  0.1384  0.2911
10694W        W26163   6.508  17.273   4.243  0.2842  0.6185 -0.2095
10695W        W26164   6.102  18.194   2.192 -0.0226 -0.0388  0.2428
10696W        W26165  12.038   3.828   4.122  0.1157 -0.1894 -0.0060
10697W        W26166   8.870   1.139  11.319  0.2594  0.0374  0.0895
10698W        W26167  17.838  14.696   1.381 -0.3358  0.0506  0.0247
10699W        W26168  18.664   7.506  12.559 -0.1195 -0.0226  0.2475
10700W        W26169  12.250  16.284  12.090 -0.0280 -0.1182 -0.0225
10701W        W26170  13.691  14.748  14.057  0.2164 -0.1078  0.1557
10702W        W26171   0.158   8.667   2.141 -0.0370 -0.2277  0.0600
10703W        W26172  12.428   9.527   3.683 -0.0791  0.0186 -0.0107
10704W        W26173  12.343  15.809   1.571 -0.1610  0.0615  0.2640
10705W        W26174  13.323  10.646  15.090  0.0669 -0.2673  0.2154
10706W        W26175   3.159   2.656   0.037 -0.0408 -0.0207  0.0153
10707W        W26176   6.613  14.976   5.463  0.2535  0.0125  0.1354
10708W        W26177   2.980   9.313   4.467 -0.1222 -0.0200 -0.4605
10709W        W26178   3.705   0.922  15.093 -0.0193  0.1433 -0.1510
10710W        W26179  10.861   5.155  15.217  0.2012  0.1077 -0.0180
10711W        W26180   3.491   9.910  14.458 -0.0736 -0.4128  0.0266
10712W        W26181  14.396  14.998   5.475  0.1295 -0.0881  0.1655
10713W        W26182  13.815   8.720  12.794 -0.1069 -0.0616  0.1454
10714W        W26183  10.644   9.119  12.449  0.2103 -0.1330  0.0196
10715W        W26184   7.723   5.696   5.717  0.0619 -0.0892  0.3769
10716W        W26185  17.230   3.907  11.435 -0.2798  0.0351 -0.0312
10717W        W26186   7.096   2.123   0.471  0.1262  0.1090 -0.1985
10718W        W26187  15.563   3.921   1.205 -0.1173 -0.1475 -0.1385
10719W        W26188   3.334   5.970  12.279  0.1553  0.0626 -0.0167
10720W        W26189  16.833  10.735  15.205  0.1978 -0.1696 -0.1108
10721W        W26190   0.082   2.850  13.141  0.0908  0.3315 -0.1755
10722W        W26191  13.772  15.160   3.805 -0.0450 -0.1256 -0.0161
10723W        W26192   7.746   7.305   2.253 -0.0780  0.0455 -0.1180
10724W        W26193   5.695   1.234  14.811 -0.1308  0.1747  0.2085
10725W        W26194   2.766  10.986   3.908 -0.1136  0.2018 -0.2228
10726W        W26195   5.719   7.323  13.939 -0.0152 -0.1602 -0.4893
10727W        W26196  13.858  15.473  10.157 -0.0004  0.0050 -0.5110
10728W        W26197   5.941   6.465   0.626 -0.0498 -0.1569  0.3305
10729W        W26198   3.766  12.549   0.330  0.0260 -0.0401  0.1592
10730W        W26199   8.369   8.098   0.707  0.0487  0.1082  0.1195
10731W        W26200   8.222   5.272  15.365  0.0955  0.4243  0.2775
10732W        W26201   0.114   0.253  15.563  0.0059 -0.1313 -0.2564
10733W        W26202   4.160  12.852   4.201  0.0085  0.5389  0.0128
10734W        W26203   3.659   2.683   0.261  0.1374  0.1347  0.1491
10735W        W26204   8.110   8.961   4.765 -0.1078 -0.0301 -0.1165
10736W        W26205   4.006   6.415  11.278  0.0388 -0.0528 -0.0741
10737W        W26206  16.016   0.933   1.699  0.1089  0.3410  0.3923
10738W        W26207  18.003   9.483  14.907 -0.2319  0.2008  0.1035
10739W        W26208  17.630  12.884  13.888  0.0707  0.5408 -0.3500
10740W        W26209  10.623  10.865   4.076  0.0140  0.0319 -0.0149
10741W        W26210  15.626  12.952  10.983  0.0333 -0.0414  0.2264
10742W        W26211   4.986  15.963   4.193 -0.1521 -0.3614 -0.1756
10743W        W26212  16.004   3.154  11.527 -0.1304 -0.1891 -0.2891
10744W        W26213   0.202   6.493  14.259  0.2907 -0.0672 -0.3115
10745W        W26214  16.402   3.743  11.116 -0.3167  0.0508 -0.0707
10746W        W26215   2.579   6.328  12.547  0.2096 -0.3237 -0.1632
10747W        W26216   3.858  14.162  15.626  0.0053  0.1159  0.1458
10748W        W26217   4.083  14.842   0.878 -0.0758 -0.0279 -0.2706
10749W        W26218  16.905  12.451   1.081  0.5213 -0.0406 -0.0263
10750W        W26219  17.806   7.582  15.264 -0.2041  0.2405 -0.1849
10751W        W26220  18.550  18.432   2.100 -0.1968 -0.0133 -0.0059
10752W        W26221   4.791   9.503  10.912  0.0689 -0.1737  0.1921
10753W        W26222  15.027   1.493  14.890 -0.1377 -0.0687 -0.2963
10754W        W26223  15.797   8.319   4.819  0.0729 -0.2057  0.0694
10755W        W26224  10.119   9.370  14.900 -0.1302 -0.2457 -0.1117
10756W        W26225  15.266  17.489  10.819  0.1146 -0.3307 -0.5706
10757W        W26226  10.578   6.392   2.071 -0.2463 -0.0278  0.0264
10758W        W26227  12.953  14.546  12.404 -0.0308  0.2477  0.0646
10759W        W26228  13.218  18.500  12.105 -0.1099 -0.0050  0.2662
10760W        W26229   4.719   4.014   0.955 -0.1824  0.1371  0.0763
10761W        W26230   0.015  12.204   5.885 -0.1923 -0.0209  0.2960
10762W        W26231   0.025  15.673  11.415 -0.3929  0.1904 -0.3137
10763W        W26232   0.820   6.596   4.053 -0.2033 -0.0323  0.2092
10764W        W26233  17.718   8.644  12.626 -0.1378  0.2857  0.1758
10765W        W26234  12.958   1.644   4.402 -0.0100 -0.2594  0.1468
10766W        W26235  12.850  14.289   1.680  0.0262 -0.1529  0.2712
10767W        W26236   8.808   4.338  15.061  0.3646  0.1295  0.0826
10768W        W26237   2.549  13.166  13.839  0.4302  0.3946  0.1484
10769W        W26238   0.294   5.656  12.236 -0.1767 -0.0027  0.1583
10770W        W26239  18.080   0.202   0.485  0.1911  0.0329 -0.0661
10771W        W26240  13.792   9.127  14.193 -0.1340  0.0525  0.0556
10772W        W26241  11.679   5.803   3.543 -0.1278  0.2343 -0.2471
10773W        W26242  10.139  10.090  14.066  0.2147  0.2378 -0.2178
10774W        W26243  18.686   3.296   4.444 -0.3731 -0.1802 -0.0372
10775W        W26244  13.578   6.192   3.936 -0.0089  0.1009  0.1151
10776W        W26245  13.069   7.860   2.703 -0.0769 -0.1406  0.2729
10777W        W26246   5.890  11.333   6.235 -0.1442  0.1333 -0.0221
10778W        W26247   0.475   1.283   3.025 -0.0251  0.1290 -0.1480
10779W        W26248   9.009  15.555   2.581  0.0519 -0.3998  0.0797
10780W        W26249  13.072   4.163   3.168  0.2536 -0.1071  0.0632
10781W        W26250   5.145   8.668   3.091  0.0475  0.1946  0.0826
10782W        W26251   7.378   8.401  13.274  0.1997 -0.0608  0.1026
10783W        W26252  10.225   1.772   3.312 -0.2792 -0.1128 -0.1570
10784W        W26253   1.085  18.420  10.649  0.1622 -0.0437  0.3518
10785W        W26254   5.286   0.831   1.902  0.2120 -0.2353  0.0676
10786W        W26255  11.350   9.594   4.849 -0.0789 -0.3811  0.2568
10787W        W26256   4.328   1.342   3.559 -0.2439  0.0133  0.1632
10788W        W26257   9.473   0.498   3.965  0.0978  0.2498  0.3606
10789W        W26258  10.291   5.477  12.120  0.4318  0.1289 -0.0938
10790W        W26259   0.073   5.425   9.725 -0.1278 -0.1418 -0.1574
10791W        W26260  12.856   4.772  10.391 -0.0721 -0.0297 -0.0249
10792W        W26261   1.923   3.695  12.759 -0.2022  0.1691 -0.2565
10793W        W26262   8.987   4.038  14.608 -0.1177  0.1801 -0.1533
10794W        W26263   3.641  11.310   3.508 -0.0887  0.1646  0.0660
10795W        W26264  10.200   0.918  12.867  0.3205 -0.2500  0.3543
10796W        W26265   9.346  14.683  15.206  0.2284  0.2300  0.2889
10797W        W26266   3.494   7.717   0.855 -0.0657  0.0181  0.2217
10798W        W26267   7.325   0.586  14.477 -0.1670 -0.0794 -0.2525
10799W        W26268   9.881  18.461   5.160 -0.0668 -0.2026  0.1605
10800W        W26269  14.434  16.918  13.442 -0.2735  0.1316  0.3975
10801W        W26270   2.691   6.545  11.596  0.3616  0.0584 -0.1702
10802W        W26271  12.278  18.556   4.640 -0.0479 -0.1128  0.1355
10803W        W26272   8.818   7.624  10.728  0.5373 -0.1546 -0.0955
10804W        W26273   2.183  16.691   2.793 -0.2017 -0.1013  0.1286
10805W        W26274   4.519  12.482  15.701 -0.2619 -0.2544 -0.2065
10806W        W26275  17.626   1.347   4.121 -0.1940 -0.1308 -0.2063
10807W        W26276   2.144   7.981  12.952 -0.0514  0.1756 -0.0822
10808W        W26277  16.842  14.640   5.184  0.1574 -0.1659 -0.0015
10809W        W26278   0.545  14.964  11.472  0.0765 -0.3499  0.0289
10810W        W26279   1.627  18.206   1.088  0.0248  0.2071  0.0273
10811W        W26280  16.749   1.222   2.304 -0.0416  0.3097  0.0774
10812W        W26281  10.043   7.117  11.825  0.0336  0.0344  0.3780
10813W        W26282  10.723   6.486  13.448 -0.1851 -0.2214 -0.0669
10814W        W26283  12.021  11.133  14.508 -0.0808  0.7198 -0.3699
10815W        W26284   6.372   2.820   5.438 -0.1985 -0.0745 -0.3170
10816W        W26285   7.884   2.462  12.108  0.1561 -0.4146  0.2188
10817W        W26286  16.952  12.164  12.857 -0.6107  0.1231  0.0091
10818W        W26287   7.915   3.057  11.531 -0.1191 -0.0030 -0.0083
10819W        W26288  14.486   4.880  11.712 -0.0477  0.2565 -0.0494
10820W        W26289  15.742  10.873  11.534 -0.1868  0.4030  0.0669
10821W        W26290  10.661  16.669  13.477 -0.1322  0.2354  0.1896
10822W        W26291   9.723   9.118  14.038  0.0667 -0.3638  0.0502
10823W        W26292   4.699  14.840  11.199  0.1316 -0.0877 -0.3197
10824W        W26293  17.988   4.679  15.411 -0.1139 -0.4038 -0.1627
10825W        W26294   4.937  16.753   0.126 -0.0169 -0.1267 -0.2982
10826W        W26295   5.051  11.155  13.539  0.1414  0.0116  0.2493
10827W        W26296   4.266   5.866  14.331  0.0560  0.0789 -0.0398
10828W        W26297  14.015  11.196  11.404 -0.0428 -0.0712 -0.1500
10829W        W26298   9.200  11.339  13.660  0.1590 -0.2621  0.0009
10830W        W26299  14.444   6.600  12.341  0.1919  0.0827  0.3563
10831W        W26300   0.366  18.406   1.972 -0.0760 -0.0210  0.0467
10832W        W26301  12.458   1.453  13.792  0.0879  0.1718 -0.2154
10833W        W26302   4.309  11.786  13.025  0.1946 -0.0064 -0.1565
10834W        W26303  13.803  14.381   1.496  0.0507 -0.2262  0.0012
10835W        W26304  12.186   3.371   3.258  0.1276 -0.0559 -0.1158
10836W        W26305  11.471   4.391  15.338  0.0145  0.4770  0.1415
10837W        W26306   4.137  14.125  11.529  0.0575 -0.1211 -0.1258
10838W        W26307   8.458   9.300   2.395 -0.1776  0.2958  0.2609
10839W        W26308   7.257   0.911   2.998  0.0607 -0.0435  0.1889
10840W        W26309  12.089   8.338  11.868 -0.0750  0.2113 -0.2728
10841W        W26310  12.615  16.570  15.211  0.2836 -0.1524 -0.1912
10842W        W26311  12.354  16.241  11.137  0.2085  0.0706 -0.3148
10843W        W26312   6.376  12.809  12.708  0.3921 -0.1027 -0.1205
10844W        W26313   0.498  18.289  12.702  0.3719  0.3437  0.1789
10845W        W26314   0.456  12.038   1.493  0.0679  0.1879 -0.1077
10846W        W26315  14.202   0.883   0.552 -0.0325 -0.3148 -0.0788
10847W        W26316   7.868  17.137   2.055  0.0464  0.0462  0.0389
10848W        W26317  17.459   8.118   2.620 -0.1428  0.3049  0.0563
10849W        W26318   7.577  15.685   1.174 -0.0141 -0.0110 -0.1041
10850W        W26319   0.401   8.825   5.431  0.0158  0.2818  0.3607
10851W        W26320  18.681  17.553  14.427 -0.1946 -0.0064  0.1891
10852W        W26321  14.888  11.639   4.566 -0.1460 -0.2807  0.0142
10853W        W26322  18.427   8.889   3.437  0.0838 -0.0488 -0.2128
10854W        W26323  10.486  10.816   5.348 -0.1251 -0.1869  0.1606
10855W        W26324   7.336   2.250  12.780 -0.2304 -0.1532 -0.0525
10856W        W26325  11.656   3.127  13.285 -0.0229  0.1111  0.1909
10857W        W26326   1.216  16.700  12.950 -0.1697 -0.2283  0.1145
10858W        W26327   6.427  10.930  14.064  0.0559 -0.2578  0.0178
10859W        W26328  16.460   9.228  15.313 -0.0187  0.2423 -0.0022
10860W        W26329   9.202   4.802  12.839  0.1740  0.1833 -0.1510
10861W        W26330   0.705   9.313  13.563 -0.1205 -0.0886 -0.4906
10862W        W26331   9.720  17.017   1.923  0.4597 -0.1660 -0.0933
10863W        W26332  13.584   1.332  11.578  0.0970 -0.1195  0.0179
10864W        W26333  12.116  10.482  15.467 -0.3009 -0.2174  0.0387
10865W        W26334   6.408  13.698  15.461  0.0621 -0.1547 -0.1977
10866W        W26335   3.658   6.839  12.390 -0.1644  0.1514 -0.4522
10867W        W26336   2.742   7.539  15.463 -0.1351  0.0651  0.2357
10868W        W26337  13.052   6.805   1.151 -0.1092  0.1155  0.1473
10869W        W26338  14.775   2.675   0.918  0.0605  0.2759  0.1851
10870W        W26339   3.819  10.239   3.678 -0.2783  0.0636  0.0581
10871W        W26340   2.208   4.317   0.712  0.2615  0.0587 -0.0726
10872W        W26341  12.266  16.407  13.205  0.1569  0.0106 -0.0757
10873W        W26342  10.936   1.388   0.293  0.0897  0.1651  0.2742
10874W        W26343   5.765  10.172   0.496  0.0678  0.0685 -0.2052
10875W        W26344   9.641  17.245   4.261 -0.0984 -0.2266 -0.0405
10876W        W26345   4.225  14.967  15.763 -0.0643  0.1947  0.2659
10877W        W26346  11.403   3.772  11.512 -0.1013  0.0420  0.0273
10878W        W26347   7.746   5.739   0.703 -0.1973  0.2092 -0.2896
10879W        W26348   4.368   7.332  13.129 -0.0788  0.4038  0.1945
10880W        W26349   3.248   8.615  15.416 -0.0539 -0.0303  0.0675
10881W        W26350   6.368   4.865  14.390  0.1604  0.0728  0.0118
10882W        W26351   4.391   3.106  15.378  0.1330 -0.3333  0.1405
10883W        W26352  16.645  17.976  14.479  0.0849 -0.2399 -0.1131
10884W        W26353   9.372   5.130   2.635  0.1329  0.2394  0.0859
10885W        W26354  12.079  11.322  11.388  0.0690 -0.4892  0.3579
10886W        W26355  10.632   8.950   1.336  0.1817 -0.0406 -0.0090
10887W        W26356  10.284  16.931   9.718 -0.0496  0.0535 -0.0099
10888W        W26357   1.053  12.471   0.119 -0.1813  0.0750  0.3187
10889W        W26358   5.900   5.739   0.218 -0.1121 -0.0661  0.0358
10890W        W26359  15.221   4.799  11.028 -0.0529  0.3496 -0.1597
10891W        W26360   1.549   5.394  14.767  0.2086 -0.2238  0.2204
10892W        W26361   4.961  10.498  14.555 -0.3261  0.1459  0.0447
10893W        W26362   9.004  15.519   3.763  0.1389 -0.2697  0.0890
10894W        W26363   9.842   0.123   2.552  0.1325 -0.0244  0.0370
10895W        W26364   6.267  10.100   3.915  0.1586 -0.3224  0.2281
10896W        W26365   3.887   4.380  10.969 -0.0841 -0.2596 -0.1835
10897W        W26366   3.809  15.985  10.734 -0.0818 -0.1092 -0.0614
10898W        W26367   1.511   9.948   0.418  0.2079 -0.0052 -0.4765
10899W        W26368   4.267   2.819  10.497  0.2698  0.1381  0.0988
10900W        W26369  11.866   1.981  11.066 -0.0213  0.1800 -0.3694
10901W        W26370  13.910  16.912  12.335  0.0386  0.0352 -0.0896
10902W        W26371  10.520   2.769  14.077 -0.2979  0.0971  0.1002
10903W        W26372   1.263   2.171  12.602 -0.0294 -0.0594 -0.1660
10904W        W26373   7.808  17.840  11.431 -0.4190 -0.2138 -0.0314
10905W        W26374   3.424  18.419  12.617  0.2814  0.1323 -0.0674
10906W        W26375   6.895   1.644   3.038  0.2380 -0.0832 -0.1313
10907W        W26376  11.749  14.394  15.388  0.0729  0.1014  0.1145
10908W        W26377  10.466   0.370   3.832  0.1978  0.0857 -0.0093
10909W        W26378  17.854  17.882  10.316  0.0369  0.0204 -0.0684
10910W        W26379  16.264  14.554   3.412 -0.1352  0.2531 -0.3183
10911W        W26380   8.139   9.028   0.426 -0.0575 -0.0021  0.0950
10912W        W26381  18.316  15.743  11.164 -0.1597  0.2494  0.2692
10913W        W26382   8.276  12.386   1.767  0.4123  0.4164  0.0013
10914W        W26383  16.495  16.352   0.927 -0.1397  0.0406  0.1005
10915W        W26384   0.788  17.560   1.574 -0.1592  0.0844 -0.0159
10916W        W26385   6.073   4.761  12.272  0.1954 -0.2008  0.0958
10917W        W26386  15.082  17.496   1.690 -0.0699  0.2134 -0.2450
10918W        W26387   8.504  15.759   4.479  0.2557 -0.1699 -0.2138
10919W        W26388   3.702   7.998   0.307  0.0109 -0.0580  0.2951
10920W        W26389  18.698   3.476   1.805  0.4146  0.0633 -0.0453
10921W        W26390   1.769  10.810  13.969 -0.1346  0.0649 -0.0549
10922W        W26391   2.160  10.201  12.730  0.3529 -0.2346  0.1414
10923W        W26392   2.359  10.023   3.631  0.1469 -0.0056  0.1275
10924W        W26393  15.548   5.537  13.005 -0.0708 -0.1876  0.0050
10925W        W26394   0.503  10.291   0.679 -0.0039  0.1189  0.0438
10926W        W26395  12.835   1.380  15.569 -0.1268  0.2568 -0.0008
10927W        W26396   0.503   7.604  11.354  0.0597 -0.1924 -0.3610
10928W        W26397  13.186  13.452  13.207  0.0304 -0.2271 -0.3364
10929W        W26398   6.317  14.819   4.826  0.0280 -0.0462 -0.0201
10930W        W26399  13.186   6.434  14.807 -0.1384 -0.0595  0.1527
10931W        W26400   4.393  12.286   4.596  0.0488  0.0845 -0.3525
10932W        W26401   6.212  11.300   1.590 -0.1828 -0.0826 -0.2472
10933W        W26402   5.673  15.560   3.735 -0.0891  0.1145  0.1819
10934W        W26403  16.251   4.116   1.937 -0.2922  0.0852 -0.0219
10935W        W26404  15.236  16.414   1.617  0.0492 -0.1297 -0.0170
10936W        W26405   7.358  17.199  13.856 -0.0360  0.0289  0.1624
10937W        W26406   5.431  15.604   2.849  0.1283 -0.0373  0.2107
10938W        W26407   1.933   4.054  13.637 -0.2202  0.2598 -0.0140
10939W        W26408   1.088  13.907  13.123 -0.0204  0.1088  0.3153
10940W        W26409  15.124  12.303   3.263  0.0153  0.0057  0.0638
10941W        W26410   4.443   1.733   0.454 -0.2547  0.1331  0.2611
10942W        W26411   2.311   9.929  14.125 -0.0423  0.1549  0.0767
10943W        W26412   5.557   3.371   1.914  0.0408 -0.0748 -0.1539
10944W        W26413  15.285   1.814   2.498  0.0562  0.0680 -0.1243
10945W        W26414   4.663  13.319  15.398  0.0340  0.1118  0.0346
10946W        W26415  10.078   9.061   1.997 -0.4448 -0.2998  0.1196
10947W        W26416  15.308   0.782   2.908 -0.0176 -0.0689  0.1546
10948W        W26417  11.765  10.686  13.939 -0.0050  0.2704 -0.0361
10949W        W26418  17.622   7.986   3.180 -0.2646  0.2828  0.2137
10950W        W26419  16.471  15.109   4.629 -0.0228  0.3871  0.2294
10951W        W26420   9.619  12.328  14.191  0.0191 -0.1168 -0.2135
10952W        W26421   0.881  18.655  12.471  0.1660 -0.1589  0.0269
10953W        W26422   8.649   4.199  11.680  0.0950  0.1599 -0.0394
10954W        W26423  16.666  11.410   0.186  0.0957 -0.0145  0.0989
10955W        W26424   2.335   6.375  15.115 -0.1653 -0.0796  0.0294
10956W        W26425  16.521   1.034  12.159 -0.0056 -0.1365 -0.1061
10957W        W26426  11.867   0.927  15.290  0.0463 -0.2955 -0.1200
10958W        W26427  10.520   2.925   4.613  0.0216  0.1562 -0.1043
10959W        W26428  16.497  11.938   5.429  0.0625 -0.1805 -0.0801
10960W        W26429   8.139   1.356   1.339  0.1884  0.1492  0.0469
10961W        W26430  12.729  14.872   1.795 -0.2225 -0.0240 -0.1131
10962W        W26431   2.381  12.079   3.705 -0.3148  0.0264  0.4940
10963W        W26432  16.653  17.070  12.405 -0.1147  0.0955  0.1285
10964W        W26433  10.417   7.243  14.766 -0.2444 -0.0038  0.1097
10965W        W26434  11.420   9.730  13.592  0.1808 -0.4054 -0.1745
10966W        W26435   3.101  18.086   4.450  0.1992  0.4401 -0.1232
10967W        W26436  18.591  15.134  15.003  0.1295  0.1671 -0.1400
10968W        W26437   0.492   3.985   0.262 -0.2207  0.0086  0.0034
10969W        W26438  10.158  14.949   0.492  0.0904 -0.0629 -0.2565
10970W        W26439  15.600   4.294  12.015  0.0054  0.1821 -0.2056
10971W        W26440   7.182  12.708  13.820  0.1105 -0.0575  0.0167
10972W        W26441   6.541  12.429  13.019 -0.2295  0.1400 -0.4114
10973W        W26442   1.491   3.266  15.081 -0.3049 -0.4210  0.0729
10974W        W26443  14.445  13.032   4.415  0.0359  0.0094  0.3128
10975W        W26444  12.124   5.589  13.451 -0.1353 -0.0227  0.0264
10976W        W26445   2.690   1.107   0.564 -0.0595  0.0334 -0.2134
10977W        W26446   4.054  10.286   4.803  0.1519 -0.2922 -0.2205
10978W        W26447   7.794   0.399  12.738  0.0395 -0.2468 -0.2817
10979W        W26448  16.946  18.443   1.349  0.4222  0.1179  0.0255
10980W        W26449  14.481  14.632  11.810  0.0049 -0.2765  0.3182
10981W        W26450   7.612   0.572  11.768 -0.2396  0.1943  0.1340
10982W        W26451   8.779  16.373  12.723  0.1804 -0.1953 -0.0653
10983W        W26452   5.383  16.864  13.587  0.0976  0.0426  0.0303
10984W        W26453   9.171  14.182  14.133 -0.0972  0.1035 -0.1728
10985W        W26454   2.140  12.931   2.662  0.0139  0.0336  0.1700
10986W        W26455  14.421   6.612  11.136  0.2460  0.2294 -0.2339
10987W        W26456  15.021   4.574  10.386 -0.2445 -0.1081 -0.0379
10988W        W26457  14.299  12.098   9.954 -0.0278 -0.2097  0.0384
10989W        W26458  13.595   7.842  10.740  0.1504  0.1663  0.0514
10990W        W26459  14.127  13.004   1.754  0.0692  0.3010  0.2125
10991W        W26460   1.678  13.646   0.337  0.0058 -0.3133  0.2250
10992W        W26461   4.709  14.968   5.906  0.0558 -0.1439 -0.2752
10993W        W26462  15.682  17.253  12.800 -0.0934  0.0836  0.0720
10994W        W26463   3.008  13.973   3.933 -0.1392  0.2023 -0.2245
10995W        W26464  17.008  16.032   0.788  0.0393  0.0237  0.2980
10996W        W26465   4.786  12.142   3.326  0.0143  0.1806 -0.2674
10997W        W26466  14.647   2.504  12.028  0.0088  0.0676  0.1481
10998W        W26467  12.444  17.330   1.097 -0.0161 -0.2151  0.1728
10999W        W26468   3.165   8.451   5.435 -0.0166  0.0654 -0.0341
11000W        W26469   0.552  14.611   5.502  0.2097 -0.2562  0.1575
11001W        W26470   1.401   9.803  15.118 -0.1265  0.0504 -0.0226
11002W        W26471  14.996   9.806   2.317  0.3913 -0.0047 -0.2441
11003W        W26472   9.579  12.786   1.411 -0.2662  0.1829  0.2295
11004W        W26473  13.808  12.845  15.547  0.3158  0.3899 -0.2022
11005W        W26474  15.169   8.711   3.871 -0.1815  0.0007  0.2045
11006W        W26475   9.963   9.029   0.545  0.1365 -0.0234 -0.0509
11007W        W26476   5.392   0.199   1.084  0.1706  0.2273  0.1702
11008W        W26477   7.817  11.100   3.374 -0.0313  0.1457 -0.0990
11009W        W26478   0.282   6.476  15.103  0.2151  0.2669  0.3760
11010W        W26479   1.821  11.920   1.503 -0.0595 -0.0434  0.2871
11011W        W26480   1.029   5.261   3.425 -0.1523 -0.1383  0.0145
11012W        W26481   5.741  11.498   5.308 -0.1432  0.0613 -0.1406
11013W        W26482   3.418   2.412   1.057 -0.0801  0.0008  0.1789
11014W        W26483   7.783  16.602  15.052 -0.0246  0.0195  0.1007
11015W        W26484   7.293  10.932   4.663 -0.0949  0.2116 -0.5631
11016W        W26485   0.586  17.653   1.087 -0.2705 -0.3316 -0.2920
11017W        W26486   3.031  15.745   3.998  0.3022 -0.2100  0.3387
11018W        W26487   6.674   3.325   3.766 -0.1308 -0.0282 -0.0717
11019W        W26488   9.147  13.281  13.836 -0.0551  0.1008 -0.0182
11020W        W26489  17.393  14.990  11.041 -0.2881 -0.3054 -0.1357
11021W        W26490   9.328   2.119   3.576  0.0874  0.1890 -0.0851
11022W        W26491  15.884  17.690   3.935 -0.1075 -0.1979  0.1233
11023W        W26492  11.662   1.021   5.286 -0.1212 -0.0553 -0.0459
11024W        W26493  11.939  16.454  13.785  0.3979 -0.0660  0.0933
11025W        W26494   9.576   0.562   0.078  0.0629  0.2324 -0.1446
11026W        W26495  17.231   3.033  13.856  0.2322  0.0679 -0.1893
11027W        W26496   9.930  17.084   4.717 -0.0858 -0.1688  0.4616
11028W        W26497  15.793   3.484  11.176  0.0647 -0.3216 -0.2734
11029W        W26498  14.573   3.026   2.464  0.1572 -0.1489 -0.0506
11030W        W26499  10.473   5.563  12.717 -0.2017  0.0147 -0.1539
11031W        W26500   1.429   5.977  15.359 -0.3172 -0.1659  0.0462
11032W        W26501  14.525  10.592  13.904  0.2356 -0.0089  0.0949
11033W        W26502  18.043   9.534  13.291 -0.3627 -0.1903 -0.1182
11034W        W26503  14.717  16.506  13.555  0.1524  0.1357  0.0846
11035W        W26504  18.152  13.226   2.601 -0.3904 -0.0583  0.0275
11036W        W26505   2.371  15.663   4.757 -0.0383  0.0099  0.1008
11037W        W26506   5.564   8.411   2.173 -0.0252 -0.3372 -0.0615
11038W        W26507   8.628  11.505   1.616  0.0837 -0.1941  0.0128
11039W        W26508   2.216  16.123  15.542 -0.1326 -0.0687  0.0206
11040W        W26509  16.244   7.792  10.457 -0.0148 -0.0715 -0.2363
11041W        W26510  11.516   9.908   4.115 -0.1290  0.0801 -0.1757
11042W        W26511  18.477  11.876  12.527 -0.2127  0.1570  0.1180
11043W        W26512  14.883   3.018  15.375  0.0101 -0.2026 -0.4164
11044W        W26513  15.791  15.297   0.937  0.1161  0.0134 -0.0417
11045W        W26514  18.298   8.203  13.915 -0.2443 -0.3669 -0.0433
11046W        W26515  13.888   6.530  14.262  0.0889 -0.1311 -0.0707
11047W        W26516  10.445  13.566   4.990 -0.0148  0.0130 -0.0728
11048W        W26517  15.479  13.285  10.576  0.1738  0.2030  0.3850
11049W        W26518   6.410  11.018  12.630 -0.1761 -0.0752  0.1007
11050W        W26519   7.952  15.590   0.781  0.1386  0.2400 -0.0587
11051W        W26520   6.806  10.816  15.659  0.0754 -0.0911 -0.1420
11052W        W26521   7.630   7.009  11.379  0.0269 -0.2018 -0.1147
11053W        W26522  10.039   7.778  11.902  0.0698 -0.0166 -0.4698
11054W        W26523  17.775  18.518   1.020  0.0723  0.3740  0.1263
11055W        W26524   4.352  18.035  12.837  0.1461  0.2973  0.1618
11056W        W26525  18.519   7.565   4.061  0.3138 -0.1436 -0.0911
11057W        W26526  10.331   5.405   1.622 -0.0373 -0.0888 -0.0081
11058W        W26527  17.048  13.689   1.035  0.0710  0.1788  0.0725
11059W        W26528  10.851  10.693  15.718  0.0482  0.1315 -0.0045
11060W        W26529   2.437  10.138   0.674  0.2584  0.0334  0.1891
11061W        W26530  10.407  11.833   1.653  0.1780 -0.1127 -0.3243
11062W        W26531   7.347  13.530   1.583 -0.0576 -0.4500  0.1717
11063W        W26532  13.166   1.731  15.310  0.2811 -0.1786  0.1682
11064W        W26533  14.551   1.123   4.560 -0.3425 -0.1443  0.4078
11065W        W26534   1.449   7.372  14.970  0.1659  0.3277  0.0548
11066W        W26535   8.606   1.115   1.333 -0.1874 -0.0245  0.0878
11067W        W26536  11.557   2.937  11.838 -0.1363  0.1006  0.1179
11068W        W26537   6.534   9.107   4.114 -0.2135  0.0210 -0.1052
11069W        W26538  12.894   9.241   5.000 -0.1479  0.1100 -0.1887
11070W        W26539   8.356  13.137   4.207  0.1912 -0.0595 -0.0858
11071W        W26540  16.277  16.260   4.301 -0.1729  0.1565  0.2104
11072W        W26541   9.482   7.341  13.675 -0.2404 -0.0041  0.0182
11073W        W26542  12.024   6.203  11.488 -0.0625  0.1328 -0.0419
11074W        W26543   6.916  10.133  12.720  0.0269 -0.2068  0.2203
11075W        W26544  11.179   3.134  15.326  0.2384  0.0749 -0.1821
11076W        W26545   4.829   9.330   5.753  0.1736 -0.0116  0.1079
11077W        W26546   1.515  17.801  15.619 -0.0145  0.2553  0.2271
11078W        W26547   0.036  17.474  11.272  0.0385  0.2372  0.1140
11079W        W26548   8.358  12.884  13.289  0.2669 -0.0990  0.3514
11080W        W26549   1.437  10.439   1.831 -0.0682 -0.0263 -0.5202
11081W        W26550  11.675  18.435  11.498 -0.1392  0.1284 -0.0053
11082W        W26551  14.365   5.203  15.495 -0.3191 -0.3285  0.3449
11083W        W26552  15.681  12.949   1.216  0.2139  0.2592  0.0743
11084W        W26553   3.455   3.363  13.842  0.0552 -0.0871  0.3419
11085W        W26554   7.698   3.100   4.875 -0.2468 -0.1362 -0.0058
11086W        W26555  13.137   3.491   2.421 -0.1153  0.0863  0.0405
11087W        W26556  12.484  12.949   5.166  0.0039  0.0820 -0.0747
11088W        W26557   8.383   8.778  10.213  0.2225  0.1201 -0.1039
11089W        W26558   3.837   0.711  10.978  0.1598 -0.1941  0.2069
11090W        W26559   5.785   0.924   2.851 -0.0338 -0.1823 -0.3778
11091W        W26560   9.269   6.279   3.858 -0.0693  0.1692 -0.1077
11092W        W26561   7.246   8.014   2.806  0.1635 -0.1026  0.0697
11093W        W26562   7.361  11.180  11.820  0.2839  0.1699 -0.1394
11094W        W26563   7.267  16.647   2.670  0.2549  0.3300  0.1251
11095W        W26564  18.634  10.727   2.541 -0.1798  0.2960  0.0309
11096W        W26565   0.417  11.096  13.554  0.1668 -0.1172 -0.0172
11097W        W26566   5.701   9.353   3.644  0.3580 -0.1369 -0.0223
11098W        W26567   9.923   9.511   3.322  0.1612  0.2104  0.1111
11099W        W26568   8.427   8.980   1.920  0.0760  0.0978  0.0988
11100W        W26569   6.402  11.322   4.299 -0.2554 -0.5196 -0.0299
11101W        W26570   4.030  15.516  12.709 -0.2327 -0.4388 -0.0370
11102W        W26571   3.507   3.114   0.340  0.0918  0.1058 -0.1232
11103W        W26572  10.404   0.210  11.784  0.0069 -0.3774 -0.0299
11104W        W26573  13.099   2.557   1.576 -0.5407 -0.0994  0.3924
11105W        W26574   9.166   7.161   3.887  0.1323 -0.3597 -0.1312
11106W        W26575  13.553  12.636  15.211  0.0255  0.1342 -0.1333
11107W        W26576   1.507   6.830  11.780 -0.1415  0.4373  0.0285
11108W        W26577  13.375   5.234  13.142 -0.3968 -0.0456 -0.0520
11109W        W26578  13.952  17.065   4.682 -0.3016 -0.0180 -0.0710
11110W        W26579   9.662  13.344   3.561 -0.0377  0.0557 -0.1702
11111W        W26580  10.896  10.016   1.771 -0.1393 -0.0800  0.0254
11112W        W26581  17.872   7.978  14.961  0.0548 -0.0225 -0.0208
11113W        W26582   9.687  16.443   0.448 -0.1062  0.0781 -0.0291
11114W        W26583  12.282   1.154   2.344 -0.0325  0.1282  0.1766
11115W        W26584  12.212   2.637   1.807 -0.5137  0.2302 -0.0863
11116W        W26585   8.863   5.524  10.887 -0.0602 -0.2088  0.2167
11117W        W26586   3.472  12.215  11.242 -0.0077 -0.1091 -0.1230
11118W        W26587  17.316  16.700  10.782 -0.0364 -0.1618 -0.2581
11119W        W26588   4.004   1.972   1.337 -0.1252  0.0049 -0.0069
11120W        W26589   7.721   2.134  13.617  0.1307 -0.0388  0.1484
11121W        W26590  10.394  16.103  13.222  0.0708 -0.0004  0.6063
11122W        W26591   5.899   3.784  11.823  0.1644 -0.1173  0.0834
11123W        W26592   2.855  15.585  10.386 -0.0576 -0.0967  0.2505
11124W        W26593   9.343  14.188   2.234  0.3789  0.1189 -0.0283
11125W        W26594   5.359   4.822   3.181  0.1934 -0.1200  0.0859
11126W        W26595  12.887   7.995   2.211 -0.1739 -0.1298  0.2071
11127W        W26596   4.831  15.333   2.239 -0.1196  0.4125 -0.3815
11128W        W26597  10.488   3.347   4.852 -0.1779  0.1927  0.1653
11129W        W26598   8.521  11.999   3.011  0.2470  0.0058  0.1704
11130W        W26599   9.185  12.425   0.391 -0.3563  0.0161  0.1380
11131W        W26600  18.212   0.586   3.853 -0.0521 -0.1463  0.0931
11132W        W26601  12.348   7.278  13.541 -0.1663  0.2585 -0.1111
11133W        W26602   4.626  11.998   2.805  0.4954 -0.2384  0.0277
11134W        W26603   8.000  12.344  15.642  0.0748  0.1204  0.6620
11135W        W26604   0.145  16.761  14.873 -0.0709 -0.4352  0.2309
11136W        W26605   5.113   2.051   2.148  0.2389  0.1380 -0.0285
11137W        W26606   0.448   1.564   5.087 -0.0778 -0.2555 -0.1706
11138W        W26607  16.268   3.449  12.504  0.3221 -0.2801 -0.1979
11139W        W26608   7.029   0.312  10.409 -0.0645  0.2425  0.0449
11140W        W26609  10.399   8.586   5.046 -0.3979  0.1195 -0.1405
11141W        W26610   1.778   5.539   0.895  0.0881 -0.4970  0.1558
11142W        W26611   9.960  15.073  15.270  0.0592 -0.3697 -0.0611
11143W        W26612   8.732   0.053   2.547 -0.1901  0.0789  0.1874
11144W        W26613  16.236  18.132   3.931 -0.1826  0.1290  0.3157
11145W        W26614   9.059   8.239   1.554  0.2163  0.0214 -0.0851
11146W        W26615  11.762  11.612  13.956 -0.4165  0.1800 -0.0991
11147W        W26616  10.855  16.144  15.054 -0.2736  0.0576 -0.4242
11148W        W26617   4.561   1.646  13.865  0.0049 -0.3445  0.2503
11149W        W26618   2.378  13.045   1.043 -0.0587 -0.1451  0.3061
11150W        W26619   8.710  15.706  11.293  0.0679 -0.2956  0.0428
11151W        W26620   8.757  11.458   5.098 -0.0573  0.5149  0.0133
11152W        W26621   8.562   0.210  14.299  0.1920 -0.0020 -0.1796
11153W        W26622  12.349  12.430   0.160  0.1813  0.1426  0.1935
11154W        W26623  15.059  12.479  13.607  0.1035  0.1280  0.1549
11155W        W26624  17.647  15.151   2.877 -0.0424 -0.2288 -0.1793
11156W        W26625  16.567  17.108   0.519  0.2549  0.0794  0.0974
11157W        W26626  13.521  17.491  15.557 -0.0633 -0.0405  0.1566
11158W        W26627   9.601   8.051  15.678 -0.0353  0.0494 -0.2675
11159W        W26628  10.455  13.781   4.574  0.0826 -0.1430  0.1817
11160W        W26629  16.016   3.403   0.670  0.0624  0.3861  0.0662
11161W        W26630   4.807  12.824   1.591 -0.1875  0.5369  0.1689
11162W        W26631  14.860   1.538   0.186 -0.5017  0.0782  0.0736
11163W        W26632  16.161  13.532   9.802  0.3133  0.0532  0.1730
11164W        W26633   5.250   4.483   4.784 -0.0468 -0.0442  0.2217
11165W        W26634   8.231   1.596   0.397 -0.1154 -0.0767  0.1969
11166W        W26635  10.808  13.064  15.237 -0.0033 -0.0028  0.2930
11167W        W26636  13.205   0.569   0.501  0.5377 -0.0142 -0.2730
11168W        W26637  11.491  12.459   0.836 -0.0621 -0.3363  0.0221
11169W        W26638   8.278   1.877  11.026 -0.2002  0.2168 -0.4504
11170W        W26639  18.542   7.367  13.460 -0.1726  0.6058  0.0996
11171W        W26640   8.342   4.531  12.824  0.0563  0.3129  0.0400
11172W        W26641  15.279   7.340  13.834  0.0277  0.2406 -0.1955
11173W        W26642   8.549   7.837   5.307  0.2967  0.2122  0.2531
11174W        W26643  11.366   3.790   2.322  0.3719  0.1323 -0.0141
11175W        W26644   0.296  15.811  15.251 -0.0426 -0.1640 -0.0388
11176W        W26645  10.879   9.603  13.608 -0.1981  0.5991  0.0365
11177W        W26646  17.171   3.200  14.542  0.3531  0.4635  0.0061
11178W        W26647   1.476   5.217   0.990 -0.3045 -0.1122  0.0731
11179W        W26648  18.588   8.485  14.838 -0.2546 -0.0394 -0.3093
11180W        W26649  15.150   4.387  12.260  0.3078 -0.2821 -0.3160
11181W        W26650  12.862  14.561  11.267 -0.0635  0.2611 -0.1917
11182W        W26651  12.087   0.119  14.640  0.1532 -0.0439 -0.2693
11183W        W26652  11.480  16.631   2.049  0.0908 -0.1089 -0.1950
11184W        W26653   0.641   3.837  12.023 -0.0020  0.0211 -0.2221
11185W        W26654  11.460   1.471   0.479  0.0559  0.1751 -0.0055
11186W        W26655  17.484  15.117   4.756 -0.2147  0.0443  0.1861
11187W        W26656  12.491   0.522   3.701 -0.1531  0.1119 -0.0428
11188W        W26657   1.752   2.312   1.612 -0.2397  0.0156  0.3863
11189W        W26658  15.721   2.082  15.413 -0.2321  0.1071  0.0507
11190W        W26659   1.286  12.635   4.415  0.1479 -0.1364  0.3026
11191W        W26660   6.040   2.491  11.248 -0.3274  0.2659 -0.1152
11192W        W26661   5.166   6.680   0.302 -0.1300 -0.0156  0.0664
11193W        W26662  15.704  14.949  13.925  0.4211 -0.0301  0.1456
11194W        W26663  15.500  14.363   4.850 -0.3783 -0.0757 -0.0953
11195W        W26664   6.737  13.299  13.507 -0.2935 -0.3192 -0.0805
11196W        W26665   0.573   0.208  13.731  0.1053  0.2158 -0.2261
11197W        W26666  17.117   7.915   0.173 -0.0475  0.0637 -0.2387
11198W        W26667  15.500   2.983   1.646  0.2313 -0.3104 -0.1916
11199W        W26668  13.091  16.629  11.814  0.1101  0.0305  0.2027
11200W        W26669   8.531  13.719  11.532  0.3147  0.1009 -0.0108
11201W        W26670   3.918  15.138  10.103  0.1863  0.1910  0.1791
11202W        W26671  18.250   3.104  11.753 -0.3516  0.2014  0.4143
11203W        W26672   0.463  11.716   5.273  0.1554  0.1896  0.0597
11204W        W26673   9.852   3.037  10.870  0.1234  0.1430  0.4854
11205W        W26674  12.288  16.431   4.484 -0.1771 -0.0062 -0.0513
11206W        W26675  17.371   9.353   0.778  0.1559 -0.0716  0.2665
11207W        W26676   3.044  10.557  12.443  0.0836 -0.1111  0.0653
11208W        W26677   0.095  16.747  11.542  0.0853 -0.1709 -0.0305
11209W        W26678  11.127  12.399   1.183  0.0878 -0.0565 -0.1536
11210W        W26679   8.755   0.826  14.531 -0.1722 -0.0723 -0.1338
11211W        W26680  14.704  12.802  11.654 -0.2233 -0.3648  0.3405
11212W        W26681   6.883  18.605  11.269  0.0291  0.1329  0.0903
11213W        W26682  15.741   6.397   1.812 -0.2198  0.0840  0.2441
11214W        W26683  12.390  11.044   3.804 -0.1281 -0.0964 -0.1792
11215W        W26684  12.001   8.785  15.659  0.2028 -0.1448 -0.1976
11216W        W26685   8.124  18.351  13.518  0.1469  0.1226 -0.1611
11217W        W26686  16.423   2.369   3.043  0.2776 -0.1229  0.3464
11218W        W26687  11.819  12.501  12.693 -0.0954  0.0239 -0.1128
11219W        W26688  13.474  14.333   0.305 -0.0991 -0.0379 -0.1264
11220W        W26689   4.503   6.635  13.606  0.1824  0.0619 -0.3102
11221W        W26690  16.576   1.936   5.475  0.3082 -0.1234 -0.3663
11222W        W26691  12.228  17.169   1.561  0.0708  0.1188 -0.1360
11223W        W26692  11.629   2.087  14.375  0.0731  0.3826 -0.0064
11224W        W26693  11.412   9.356   1.636 -0.1514 -0.2454 -0.1527
11225W        W26694   8.976   0.589   3.972 -0.1068  0.0140 -0.1412
11226W        W26695  16.889   6.806   0.989  0.0498 -0.1306 -0.1634
11227W        W26696   7.967  13.430  14.587 -0.1578 -0.4332 -0.1735
11228W        W26697  15.093  10.488   1.771  0.1111 -0.0310  0.0110
11229W        W26698  11.824   7.077   1.745  0.3662 -0.2824  0.5085
11230W        W26699   8.507   1.761   1.556 -0.2556  0.2173  0.1956
11231W        W26700  16.472  16.201   3.792  0.1909 -0.0903  0.1201
11232W        W26701   3.601   5.907  10.663 -0.3109 -0.1956  0.3058
11233W        W26702   7.589   7.340   0.808 -0.3163  0.2616  0.0257
11234W        W26703   7.384  12.874  12.820  0.0149  0.1231  0.1314
11235W        W26704   2.836   1.431   3.265 -0.0362 -0.0632  0.2020
11236W        W26705  10.097  15.037   3.073  0.2073 -0.0084  0.1812
11237W        W26706   2.412  10.703  11.071  0.0284  0.0857  0.1147
11238W        W26707  12.629   6.313  11.160  0.2432 -0.3050  0.1944
11239W        W26708   3.225   0.231   1.509 -0.1202 -0.1452 -0.2014
11240W        W26709  15.971   6.119   4.900  0.2070 -0.1344 -0.0864
11241W        W26710   9.016  11.756  11.199  0.0324 -0.2601 -0.0274
11242W        W26711  13.684   4.303  12.829 -0.2554  0.2112  0.2399
11243W        W26712   9.457   9.628   4.647  0.1147 -0.2302 -0.0138
11244W        W26713   8.523  10.581  11.783  0.0234 -0.0265 -0.0541
11245W        W26714   4.600  15.749  10.594 -0.1001 -0.2394  0.1203
11246W        W26715   2.957   6.414   1.253 -0.0487 -0.1317  0.1499
11247W        W26716  17.089  13.847  10.229  0.0299 -0.2972  0.2806
11248W        W26717   4.244  13.128   2.860 -0.1021  0.3495 -0.1733
11249W        W26718  13.413  14.120   4.254  0.0222 -0.4545  0.1666
11250W        W26719  17.114   5.816   0.084  0.0044 -0.1903 -0.0575
11251W        W26720  10.999   5.496   3.706  0.2369  0.0535  0.3322
11252W        W26721  14.110  17.746  11.567  0.0465  0.2568  0.0861
11253W        W26722   8.452  14.670   1.249  0.1147 -0.0913  0.0719
11254W        W26723   4.955   0.470  11.361  0.1004  0.0087  0.2543
11255W        W26724   5.277  13.801   4.497  0.1784 -0.4600  0.2540
11256W        W26725   6.955  15.345   1.034 -0.2400  0.2649  0.1413
11257W        W26726  12.742   6.190  14.406 -0.0504 -0.0195 -0.5134
11258W        W26727   1.515   4.650   3.957  0.0582  0.2370 -0.0750
11259W        W26728  12.725  14.389   3.083 -0.5284 -0.0165 -0.1172
11260W        W26729  17.403   1.445   1.766  0.0834  0.3203  0.2782
11261W        W26730   4.534   4.183   2.217 -0.1613 -0.1832  0.0577
11262W        W26731  18.678  10.057   3.674 -0.0749 -0.1905 -0.5062
11263W        W26732   2.739   2.966  14.944  0.1442 -0.0870  0.5059
11264W        W26733   2.548   5.831  14.087  0.1525  0.2024 -0.1316
11265W        W26734  16.181  10.500   0.203 -0.0356  0.1514  0.2185
11266W        W26735   5.692   7.966   2.422  0.0085 -0.1925 -0.1439
11267W        W26736   3.589   6.303   4.040 -0.2231 -0.1879  0.4584
11268W        W26737   0.280  12.746  14.828  0.3005  0.2110  0.0297
11269W        W26738   7.364   0.789   4.296  0.0216 -0.0764  0.1692
11270W        W26739  11.985   0.293  14.155  0.2478 -0.0814 -0.0406
11271W        W26740   2.917   2.504  13.554 -0.0534  0.0741  0.1083
11272W        W26741   1.089  10.851  10.139  0.0961 -0.1549 -0.0350
11273W        W26742   6.444   7.753  12.808  0.0480 -0.2275 -0.4188
11274W        W26743  10.833  18.333   2.510  0.3774  0.2437  0.0267
11275W        W26744   4.462  10.989   2.607 -0.3375  0.1884 -0.0231
11276W        W26745   7.582  14.201  14.993  0.2769  0.1249  0.1801
11277W        W26746  14.414  15.292  11.724 -0.5039 -0.0981  0.2391
11278W        W26747   2.383   2.967  15.349  0.0719 -0.1219  0.0328
11279W        W26748   2.490   0.932   0.067  0.0158  0.0005  0.0330
11280W        W26749   9.321  17.357   0.219  0.0531 -0.4583  0.0381
11281W        W26750  17.674  17.016  12.936  0.0367  0.1725  0.3249
11282W        W26751   4.042   3.417   1.911 -0.0295  0.2040 -0.0277
11283W        W26752   7.051  18.086   0.237 -0.0370 -0.1719 -0.0520
11284W        W26753  12.832  11.223   1.578  0.1055  0.3912 -0.0396
11285W        W26754  16.620  11.988   2.523 -0.2703  0.2848  0.1392
11286W        W26755  15.437   5.275  15.322 -0.0491 -0.1993  0.2599
11287W        W26756  17.942   4.364   2.538 -0.0986  0.0856 -0.4432
11288W        W26757  17.442  16.097  12.702  0.1351  0.0163  0.1151
11289W        W26758  10.956   5.107   2.578  0.1203 -0.2718  0.1777
11290W        W26759  10.358   8.128  12.486 -0.3118  0.0594  0.0883
11291W        W26760  15.281  17.496  11.491 -0.0551  0.1253 -0.0996
11292W        W26761   3.878   4.405  15.472 -0.0121  0.0970  0.0190
11293W        W26762  15.554  14.978   4.021  0.1986  0.1066 -0.0518
11294W        W26763  15.319   8.599   3.366  0.1706 -0.0851  0.0203
11295W        W26764  14.952   2.732   3.698 -0.4037 -0.1232 -0.1919
11296W        W26765  10.605   8.281  12.035 -0.0240  0.2573 -0.1508
11297W        W26766  14.413  15.131   1.107 -0.3264 -0.2552 -0.0689
11298W        W26767   9.185  18.198   3.024  0.0551  0.1102  0.2875
11299W        W26768   6.023  15.590   5.265  0.3602 -0.2646  0.1240
11300W        W26769   0.032  16.334   1.584  0.0622  0.1992  0.3707
11301W        W26770  16.902   4.099   9.626 -0.0249 -0.4487 -0.0445
11302W        W26771   9.764   7.534   4.396 -0.1551  0.0019 -0.0030
11303W        W26772   7.835   8.248  15.779  0.3852  0.1832 -0.0772
11304W        W26773  15.976  15.082   3.753 -0.0638  0.0803 -0.4582
11305W        W26774   5.676  12.442   4.014  0.2825  0.0360  0.0443
11306W        W26775  13.368   8.911  11.539  0.0259  0.2524  0.0121
11307W        W26776   4.613   4.216  13.123  0.0508  0.0643 -0.1328
11308W        W26777  10.912  14.498  11.753  0.1348 -0.0167 -0.2080
11309W        W26778  12.795  13.598  10.657  0.1222 -0.1131 -0.4110
11310W        W26779  12.222  18.200  10.772 -0.2348 -0.3416 -0.1721
11311W        W26780  13.006  17.758   4.534 -0.0892  0.0675  0.0406
11312W        W26781  12.590   1.664  11.502  0.2838  0.3255  0.1700
11313W        W26782  18.057  15.487  13.227 -0.3447  0.3548  0.1200
11314W        W26783   2.261   2.380   0.041  0.1502  0.1905 -0.0510
11315W        W26784   9.078  13.359   4.451 -0.4318  0.1371  0.1666
11316W        W26785   1.067   7.031   4.334  0.2629  0.0771 -0.1295
11317W        W26786  17.269  15.594   3.694  0.2286  0.1218  0.0123
11318W        W26787   2.573  16.185  13.204  0.0746 -0.2060 -0.2650
11319W        W26788   8.110   0.936  13.020 -0.1928  0.0899 -0.0869
11320W        W26789   9.436   7.074  15.301  0.0675 -0.0942  0.0806
11321W        W26790   0.224  15.006   4.549  0.1638 -0.0267 -0.2231
11322W        W26791  15.193   2.534  11.612  0.2957 -0.3185  0.5502
11323W        W26792  17.739   4.838  10.602  0.5516  0.3207 -0.1298
11324W        W26793  13.610  13.195   1.193  0.0408 -0.2228 -0.1125
11325W        W26794  18.021  18.181  13.770  0.0251 -0.1073  0.1176
11326W        W26795   5.932   7.227  14.489  0.4524 -0.1565 -0.2824
11327W        W26796   8.864   2.826   3.343 -0.3710  0.0907  0.0667
11328W        W26797   0.502  16.507  11.739 -0.1939 -0.2262  0.1309
11329W        W26798  11.932   0.014  13.763  0.0141 -0.2653  0.0839
11330W        W26799   2.920  13.881   0.766  0.1050 -0.3246 -0.1030
11331W        W26800  15.465   7.489  13.345  0.0506  0.1275  0.2013
11332W        W26801  14.455   2.737   3.747  0.1537  0.3357  0.0387
11333W        W26802   4.999   2.097  12.316  0.1186 -0.1138  0.1398
11334W        W26803  14.972  16.060  15.153  0.0510 -0.1946  0.0686
11335W        W26804  17.768  12.044   3.398 -0.2077  0.0773 -0.0126
11336W        W26805  14.067  11.542   1.955 -0.0122 -0.1027  0.2872
11337W        W26806  17.851   9.113  12.439 -0.1074  0.2771  0.3388
11338W        W26807   9.743  13.559   2.004 -0.1981 -0.1544 -0.0069
11339W        W26808  12.828   0.669  13.924  0.1456  0.1692 -0.0414
11340W        W26809  12.225   9.835   3.333  0.0522  0.0193  0.1698
11341W        W26810   3.902   4.752   0.105  0.1699 -0.3586  0.2385
11342W        W26811  10.589   5.423   2.116  0.0357 -0.3789 -0.1585
11343W        W26812  14.396  13.649  11.747 -0.0405  0.0390 -0.1671
11344W        W26813  11.641   3.222   4.669 -0.0283  0.0405 -0.3207
11345W        W26814  12.270   1.247  11.613  0.3212 -0.1622  0.0547
11346W        W26815  11.762  14.501   2.602 -0.2251  0.2148 -0.0163
11347W        W26816   1.214   7.379   4.665 -0.2097  0.0589  0.0116
11348W        W26817   2.791  12.612  12.659  0.3349  0.3299 -0.2187
11349W        W26818   6.653  11.388   1.757  0.1322 -0.2343 -0.2284
11350W        W26819  10.645  16.595   1.629 -0.0107  0.1350 -0.3675
11351W        W26820   3.762  14.086  12.380 -0.4914  0.3141  0.2186
11352W        W26821   0.523   2.038  15.330  0.2313  0.1060  0.0360
11353W        W26822  14.161   5.361   4.849  0.0642  0.2433  0.1641
11354W        W26823   3.599   9.231   0.081  0.1088  0.1990 -0.4403
11355W        W26824  13.526  13.461   2.007 -0.0482 -0.0200 -0.0269
11356W        W26825  14.511   9.423  11.898  0.2088 -0.5694  0.4253
11357W        W26826  17.343  11.241   3.765  0.0619  0.1631 -0.3902
11358W        W26827  18.323   2.407  14.738 -0.2117 -0.0028 -0.1719
11359W        W26828  15.754  12.113  14.051  0.2032  0.3053  0.2577
11360W        W26829   5.450   0.649  14.615 -0.4721 -0.1930 -0.1305
11361W        W26830   4.242   5.498  10.930 -0.1290  0.1035  0.0638
11362W        W26831   8.388  14.195   3.971 -0.0680  0.2043  0.1831
11363W        W26832  15.014   9.870   3.419  0.1737  0.2665 -0.2659
11364W        W26833  10.327   6.435   3.850  0.3027 -0.1797 -0.1737
11365W        W26834  12.212   5.445   4.540 -0.0964  0.0129  0.0704
11366W        W26835   2.675   4.594   2.526  0.0574 -0.0760 -0.1053
11367W        W26836   6.446  11.208  14.590 -0.0217  0.2876 -0.1262
11368W        W26837   1.534   5.724   1.853 -0.1001  0.1730 -0.1160
11369W        W26838  15.003  15.639   2.854  0.1718  0.2356  0.3461
11370W        W26839   5.844   1.805  13.592 -0.0211 -0.0845 -0.0267
11371W        W26840  12.215  14.564   2.976  0.2008  0.3585 -0.0070
11372W        W26841   6.711  10.189  14.676 -0.1392  0.1018 -0.1085
11373W        W26842   9.824   5.340  13.876  0.2070  0.1386  0.2772
11374W        W26843  14.010   9.451   0.719  0.1334  0.0269 -0.0024
11375W        W26844  14.680   8.562  15.094  0.1974  0.1907 -0.1073
11376W        W26845   7.868  12.297   9.844 -0.1233 -0.1242 -0.0039
11377W        W26846   8.927   8.443   3.665  0.1835  0.0227 -0.2634
11378W        W26847   8.649  11.461  11.431  0.2276 -0.1127  0.0440
11379W        W26848   5.699   6.442   3.201  0.1759  0.1480 -0.0207
11380W        W26849  14.180   7.546  12.770  0.1172  0.1079 -0.0344
11381W        W26850   2.060   3.874   3.499  0.1104 -0.0757  0.3422
11382W        W26851  18.011   7.310   3.764 -0.1361  0.0567  0.0121
11383W        W26852  13.386  15.318   3.050  0.3427 -0.1199  0.1024
11384W        W26853  17.325   4.372  10.727 -0.1198  0.1146 -0.1047
11385W        W26854  16.146  18.466  12.572 -0.2236 -0.0674 -0.0113
11386W        W26855  12.834  11.312  12.230 -0.1466 -0.2995 -0.0707
11387W        W26856   3.799   3.536   0.184 -0.1360  0.3305 -0.0924
11388W        W26857  11.255   1.496  12.787 -0.0544  0.2689  0.0281
11389W        W26858   7.883  13.822   2.397 -0.0346  0.0420  0.1874
11390W        W26859   5.120  10.598   2.063  0.1170 -0.0791 -0.2016
11391W        W26860  10.087  16.677  12.302 -0.0059 -0.1536 -0.1104
11392W        W26861   5.120  11.662   2.858 -0.1212 -0.2230  0.0964
11393W        W26862   4.670   6.784   0.568 -0.0403 -0.0826 -0.1338
11394W        W26863  18.400   9.781   0.478  0.0238  0.1728 -0.1501
11395W        W26864  12.627   2.186  14.612 -0.2235 -0.0137 -0.0215
11396W        W26865   6.367   0.667  14.403  0.0221 -0.3038  0.0433
11397W        W26866  13.246  15.711   0.402 -0.0850  0.1712 -0.0924
11398W        W26867   9.153   0.547  14.037  0.1205 -0.2424  0.0506
11399W        W26868   2.218   1.829  11.219  0.0361  0.0236 -0.0981
11400W        W26869  10.458   7.016  12.670 -0.0890  0.1526 -0.0108
11401W        W26870  13.871  14.311   4.129  0.0431  0.0748  0.3226
11402W        W26871  10.204   1.822   1.451  0.0536  0.0684  0.3435
11403W        W26872   9.623   4.163   1.441  0.4183  0.0000  0.3141
11404W        W26873  10.639   2.870  15.381 -0.1096 -0.0669 -0.0315
11405W        W26874   4.039   4.267   5.118  0.0296  0.1940  0.2221
11406W        W26875   7.436   3.357  15.004  0.0592 -0.1061 -0.0178
11407W        W26876   8.402  12.228   4.667  0.2608 -0.3305 -0.2185
11408W        W26877  14.281  13.791   0.945  0.0081  0.1119 -0.1650
11409W        W26878   9.985  18.570  10.559 -0.2928 -0.0409 -0.1678
11410W        W26879  15.901   4.753   0.272 -0.2771 -0.0436  0.2137
11411W        W26880  18.291   6.693  15.224  0.0473 -0.3873  0.1876
11412W        W26881   3.762  11.250  11.266 -0.3981 -0.2976  0.2924
11413W        W26882  10.290   9.636   0.936  0.2124 -0.3297 -0.0748
11414W        W26883  12.809   2.326   2.199  0.0020 -0.0588 -0.1956
11415W        W26884  18.196   6.212  10.489  0.1169  0.0042  0.1960
11416W        W26885   5.051   6.264   5.582 -0.2530 -0.0776  0.0972
11417W        W26886   5.058   9.981   2.773 -0.0981  0.0024  0.1870
11418W        W26887  15.539  15.473  10.493 -0.1055  0.3116  0.0985
11419W        W26888   6.153  18.390  14.308  0.1467 -0.0394  0.0149
11420W        W26889  10.296  17.856  13.538  0.0649  0.1899  0.3917
11421W        W26890  14.378  11.541   4.731 -0.4462  0.0354  0.0800
11422W        W26891   5.943  13.280  11.445  0.1923  0.3074  0.0159
11423W        W26892   2.835  15.561  11.643 -0.3319 -0.4023 -0.3097
11424W        W26893  11.344  16.961   9.742 -0.4577 -0.0569 -0.0203
11425W        W26894   5.125   3.210  11.839 -0.1556  0.1157  0.0347
11426W        W26895  17.891  15.856  12.886  0.1810  0.0574 -0.0994
11427W        W26896   3.470  14.005  10.989  0.0328  0.2173  0.1840
11428W        W26897  11.213   5.466  13.222  0.0616  0.1031 -0.3223
11429W        W26898   9.858  18.370  12.905 -0.5030 -0.1054 -0.2868
11430W        W26899   6.799   8.485  15.762  0.1769  0.0819  0.0045
11431W        W26900  12.193  11.373   0.992  0.0062 -0.1625 -0.0850
11432W        W26901   2.895  10.788  11.992  0.0728  0.2146 -0.0467
11433W        W26902  15.064   5.063   0.880 -0.1273 -0.2332 -0.1231
11434W        W26903   7.149  17.248   2.206 -0.1709  0.0762  0.1606
11435W        W26904   8.287  12.743   3.433  0.1600  0.4579 -0.0590
11436W        W26905  10.550   6.029  13.331 -0.0706 -0.1623 -0.0391
11437W        W26906  13.973   1.930   4.988 -0.0886 -0.0124  0.1121
11438W        W26907   6.671  10.351   4.116  0.2691 -0.2403 -0.2357
11439W        W26908  13.338   8.129   2.377  0.1111 -0.0546 -0.0724
11440W        W26909   8.564  16.695  14.215  0.1868 -0.0644  0.2368
11441W        W26910   3.631  15.839   0.118 -0.0049 -0.0734 -0.0556
11442W        W26911   5.522   1.212  11.578  0.1796 -0.1572 -0.0528
11443W        W26912  10.164  17.755   0.670  0.1675 -0.1796 -0.1513
11444W        W26913   7.722  12.852  12.044 -0.1265 -0.3520 -0.1764
11445W        W26914  10.625  12.452   1.375 -0.1070  0.0081 -0.0274
11446W        W26915   4.509  11.113   5.063  0.1394 -0.0811  0.1765
11447W        W26916  17.418   0.608  14.521  0.1139 -0.2941  0.3566
11448W        W26917   0.011  16.536   1.116  0.1469 -0.4798 -0.0882
11449W        W26918   5.440   7.135   0.192  0.0783  0.1184 -0.0689
11450W        W26919   5.371  11.880  15.139  0.4121 -0.2158 -0.2073
11451W        W26920  14.266  13.197  10.626 -0.1847 -0.1126  0.3139
11452W        W26921  17.357   5.713   9.572  0.0565 -0.2290 -0.1681
11453W        W26922   4.300   0.740   2.233 -0.4681  0.0611 -0.3242
11454W        W26923   0.115   8.634   5.034  0.0057  0.1913 -0.0285
11455W        W26924  16.236   0.682   4.396 -0.2853 -0.0528  0.3985
11456W        W26925   4.097   7.759   1.690  0.0751 -0.1280 -0.0210
11457W        W26926   3.577   6.357   1.894  0.3668  0.2897 -0.0257
11458W        W26927   3.364   5.884   2.588 -0.0290 -0.0915 -0.1112
11459W        W26928  15.902   8.292  11.621  0.0387 -0.1542 -0.2828
11460W        W26929   8.826  11.931   1.726  0.0475  0.2309  0.0577
11461W        W26930   8.885   8.781   1.802  0.1209 -0.2274  0.2911
11462W        W26931   8.924  10.433   4.065 -0.2221 -0.1019 -0.1717
11463W        W26932   4.266   9.355  14.226 -0.1892  0.2785  0.2134
11464W        W26933   4.875   5.416  13.349  0.0458 -0.1803  0.2426
11465W        W26934  12.637  18.609   0.268  0.0703 -0.3880  0.1133
11466W        W26935   2.864  18.421   1.423 -0.3258 -0.1126 -0.1173
11467W        W26936   3.819   4.726  14.285 -0.0631  0.0195 -0.1290
11468W        W26937  13.681  16.256   3.155 -0.0943 -0.2495 -0.0817
11469W        W26938   6.708   4.772   4.823  0.0297  0.1983  0.1444
11470W        W26939   1.660  10.272   0.071 -0.1240 -0.0087  0.1670
11471W        W26940   4.094   0.586  14.984  0.1590  0.1778 -0.2606
11472W        W26941   8.713   3.696   0.562  0.1344 -0.1109  0.2102
11473W        W26942  11.385   4.847   5.710  0.0203  0.1022  0.1544
11474W        W26943   6.412   8.209   0.095  0.1217  0.3492 -0.2733
11475W        W26944  14.575  12.828   1.979  0.3458 -0.3685 -0.2373
11476W        W26945  14.433   5.927   0.888  0.0434  0.2519  0.1491
11477W        W26946  16.645   1.360  15.776  0.0573 -0.1306 -0.0410
11478W        W26947   1.744   4.816  14.170 -0.2141  0.2754  0.0773
11479W        W26948   9.634  10.898  14.417 -0.1146 -0.4327  0.0118
11480W        W26949  13.173  10.857  15.640 -0.3650  0.0297  0.1603
11481W        W26950   1.266   3.390  10.936 -0.0308 -0.0714  0.1684
11482W        W26951  18.148   2.219   1.823  0.0056 -0.1463 -0.0029
11483W        W26952   6.228  14.635  13.835  0.4240  0.1141  0.2088
11484W        W26953   1.849   1.888   0.256  0.0085  0.3114 -0.1371
11485W        W26954   6.633   1.066   0.890  0.2407  0.3939 -0.1174
11486W        W26955  14.800  18.536   9.510  0.2682  0.1734  0.2280
11487W        W26956   1.691   6.314  10.044 -0.0195 -0.1056 -0.1348
11488W        W26957  10.967  16.651  15.334 -0.1252 -0.0393  0.0033
11489W        W26958   1.222   5.813  12.331  0.3539 -0.0744 -0.0297
11490W        W26959   5.725   7.525   1.492  0.4803  0.1336 -0.1619
11491W        W26960  13.630   6.918   5.452  0.1782 -0.1974  0.1851
11492W        W26961  15.518  13.507  15.282  0.2450 -0.3197 -0.0478
11493W        W26962  14.989   8.962  11.008 -0.0741  0.1966 -0.0217
11494W        W26963  12.180  16.011   5.829 -0.0501  0.1895 -0.0856
11495W        W26964  11.181   7.978   0.650  0.1185 -0.2003 -0.1985
11496W        W26965  12.794  17.457   0.034 -0.0711  0.2872 -0.2241
11497W        W26966   5.669  15.218  11.216 -0.0242  0.2510 -0.0649
11498W        W26967  16.193   6.964   2.917 -0.0657  0.0011  0.0192
11499W        W26968  15.645   1.311   1.351  0.3301  0.2487 -0.0117
11500W        W26969  18.073   0.083   4.669 -0.0037 -0.2339 -0.1296
11501W        W26970   2.726   6.235   2.513 -0.2239 -0.1101 -0.0255
11502W        W26971   9.374  11.397  13.172  0.0472 -0.0357  0.0326
11503W        W26972   3.650  17.764  11.937  0.3584 -0.0941  0.1249
11504W        W26973  13.429   6.085  15.099 -0.0390  0.1250  0.0452
11505W        W26974   8.332  15.047   2.788  0.1103  0.1196  0.0469
11506W        W26975   5.645  14.230   0.476  0.1687  0.2746  0.3212
11507W        W26976  14.859  17.720  15.025  0.0414 -0.0972  0.1229
11508W        W26977   1.148  18.385   1.014 -0.5449  0.2340  0.0212
11509W        W26978  15.733   1.406   3.222  0.1703  0.0270  0.0165
11510W        W26979  11.519  13.435  12.478  0.2277 -0.1412  0.2349
11511W        W26980  11.381   3.796   2.896 -0.1283  0.0725 -0.1520
11512W        W26981  16.830   7.551  15.661 -0.0208  0.1576  0.1764
11513W        W26982  15.143   7.185  11.088 -0.2293  0.2526  0.1691
11514W        W26983   6.199   6.215   2.102 -0.2598  0.0256 -0.2878
11515W        W26984   9.324   2.867  11.977  0.1730 -0.2151 -0.4243
11516W        W26985  14.191  17.823   1.038  0.0332 -0.0035  0.0245
11517W        W26986  13.757  17.047  15.601  0.4301 -0.1936  0.0304
11518W        W26987  14.430   3.013  12.037  0.1822 -0.0967  0.0574
11519W        W26988  14.285  11.548  11.134 -0.0966  0.2540  0.4959
11520W        W26989   8.653   8.626  15.714 -0.0493 -0.3394 -0.0838
11521W        W26990   2.678  10.783   1.104  0.1162  0.3789  0.0142
11522W        W26991   9.884   0.233  15.661 -0.0320  0.0594 -0.2265
11523W        W26992   5.842  14.098  14.898  0.0905  0.2339 -0.1182
11524W        W26993  14.465   1.908   3.274 -0.1628  0.0237 -0.0543
11525W        W26994  16.511  17.511  13.642  0.0893 -0.0258  0.0597
11526W        W26995   4.234   3.915  13.357  0.0422 -0.6577  0.0242
11527W        W26996   7.725  12.233  12.071 -0.2229  0.5308 -0.0705
11528W        W26997  10.206   1.319  11.508  0.2952 -0.2664 -0.0668
11529W        W26998   5.896   1.080   3.695 -0.2287  0.0613 -0.2070
11530W        W26999   7.498  18.519  12.657 -0.1434  0.0130 -0.1032
11531W        W27000  14.347   0.670   3.159 -0.0814  0.2926  0.2420
11532W        W27001   1.801   5.844  10.808 -0.1683 -0.0139  0.0740
11533W        W27002  18.533   9.649  12.168  0.2072  0.1921 -0.1885
11534W        W27003   0.146  15.329   0.180  0.0600 -0.0596 -0.2187
11535W        W27004   3.198  10.816  11.584 -0.0845  0.1074 -0.0527
11536W        W27005  14.785   5.330  11.683  0.2996  0.2819  0.2629
11537W        W27006   1.232   8.190  12.671  0.3600 -0.0724 -0.2234
11538W        W27007  17.775   3.193   1.990  0.2034 -0.0392  0.1797
11539W        W27008   7.158   2.277  14.127  0.0753  0.0377 -0.0022
11540W        W27009   4.759   4.782   3.478  0.0026  0.2316 -0.2956
11541W        W27010  12.432   2.834  11.128  0.1665 -0.0403 -0.1217
11542W        W27011   2.572  16.959  11.978 -0.0005  0.2105  0.0410
11543W        W27012  17.544   2.517  12.427 -0.3701 -0.1607  0.0081
11544W        W27013   6.931   8.495  14.800  0.0045 -0.1244  0.4038
11545W        W27014  17.791   6.935   1.380  0.1170 -0.1475 -0.0157
11546W        W27015   3.145  10.318  10.307  0.0171 -0.1484  0.0412
11547W        W27016  17.214  12.773  15.001 -0.0265 -0.1408 -0.1623
11548W        W27017  13.865   1.263  15.081 -0.0590  0.2496 -0.2668
11549W        W27018  14.894   4.416   4.853 -0.2004 -0.0647  0.1815
11550W        W27019   1.068  15.952   3.518  0.2691 -0.1985 -0.0381
11551W        W27020  18.019  13.020   1.172 -0.4298 -0.0578  0.0535
11552W        W27021   5.751   7.593  12.498 -0.2001 -0.1823  0.1105
11553W        W27022  11.178  12.520  13.430  0.0152 -0.1416  0.0686
11554W        W27023   6.359   5.700   3.813  0.1714  0.0597 -0.2207
11555W        W27024   3.785   3.189  11.896 -0.0249 -0.0745  0.0081
11556W        W27025  14.520   5.237   3.957 -0.1434  0.0666 -0.3442
11557W        W27026  16.221   4.575   4.540  0.2293  0.0512 -0.1784
11558W        W27027   7.836  14.641   5.158 -0.3649  0.2504 -0.0959
11559W        W27028  14.181  13.781  14.391 -0.0856 -0.1092  0.1769
11560W        W27029   7.376  10.607  15.013 -0.1091  0.0036  0.0421
11561W        W27030  15.796   2.821   4.228 -0.3203  0.0800 -0.0886
11562W        W27031  15.614  17.275   2.518  0.0963  0.0042 -0.2242
11563W        W27032   0.999   7.614   2.577  0.2822  0.0386  0.3389
11564W        W27033  15.317  11.944  13.412 -0.0866 -0.1986  0.1630
11565W        W27034   1.859   3.437  13.781 -0.0643 -0.0700  0.1290
11566W        W27035   7.208  11.853  15.457  0.0452 -0.2252 -0.2836
11567W        W27036  15.783   4.059  10.917 -0.1284 -0.1281  0.1381
11568W        W27037  12.113  13.321  14.188 -0.0555 -0.1243  0.2342
11569W        W27038   3.180  18.552  10.121  0.0252  0.1312  0.0652
11570W        W27039   3.823   4.867   3.510  0.2925 -0.0706 -0.0373
11571W        W27040   6.619   6.504   2.574 -0.3422 -0.0166 -0.0381
11572W        W27041   7.592  14.685   4.345  0.0378 -0.0698  0.0646
11573W        W27042  13.834  11.708   2.372 -0.2096  0.1260 -0.1010
11574W        W27043   0.351  15.083   0.570  0.0417 -0.1820  0.2332
11575W        W27044  12.367   2.308  12.511  0.1776  0.0658  0.1675
11576W        W27045  17.177  13.780   3.712 -0.0180  0.1372 -0.1123
11577W        W27046  15.009   9.471  14.354 -0.2505 -0.0160  0.0060
11578W        W27047   6.620  11.809   4.448  0.1945 -0.1364 -0.2290
11579W        W27048   0.788   1.240   1.590  0.2361 -0.1984 -0.0223
11580W        W27049   9.404   9.493   1.054 -0.1908  0.1608 -0.1484
11581W        W27050   1.532  10.539   2.895  0.2428  0.3326  0.1294
11582W        W27051  14.967  14.228   4.546  0.1171  0.0104 -0.0243
11583W        W27052   7.819   4.540  11.054 -0.0382 -0.0302  0.1479
11584W        W27053   4.445  18.408   4.542  0.1679  0.2522  0.3016
11585W        W27054   3.514  10.125  11.739  0.1265  0.3253 -0.1823
11586W        W27055   4.954  18.661   2.732  0.0817  0.0325  0.0419
11587W        W27056   0.136  11.502  12.265  0.0755 -0.1533  0.0069
11588W        W27057   8.009   3.650   3.022 -0.0863 -0.0675 -0.1301
11589W        W27058   4.656  18.267   2.918  0.2149  0.0285  0.0181
11590W        W27059  10.073  16.389   3.545  0.1556  0.1185  0.1416
11591W        W27060   8.633  14.337   3.095 -0.0725 -0.1027  0.1528
11592W        W27061   1.310  15.160   1.387 -0.1566 -0.0540 -0.3551
11593W        W27062   3.538   2.314   2.628 -0.1422 -0.2672 -0.1160
11594W        W27063   6.041   4.791   0.531  0.2841 -0.0703  0.0217
11595W        W27064   7.490  12.751   0.726  0.0959  0.2367  0.0301
11596W        W27065  17.738   3.219  13.793 -0.2267  0.0177  0.0350
11597W        W27066  15.592  18.405  12.193 -0.1148 -0.0743 -0.2724
11598W        W27067  13.672   0.577  12.551  0.1711  0.0611 -0.1914
11599W        W27068   5.784  18.676  12.814  0.1437 -0.1732 -0.0536
11600W        W27069   0.928   9.266  12.447 -0.1163 -0.1126  0.0371
11601W        W27070  14.467  15.285   5.933 -0.2291  0.1521  0.0762
11602W        W27071  11.232  14.193  14.430  0.3009  0.2809 -0.1844
11603W        W27072   2.448  11.518  11.010  0.0913 -0.2132 -0.1344
11604W        W27073  11.932  14.608   2.131 -0.1990  0.0895  0.3422
11605W        W27074   8.973   1.103   2.686  0.3678 -0.0699 -0.1425
11606W        W27075   8.372  18.496  13.045  0.1772 -0.0309  0.0719
11607W        W27076  17.766   5.330   5.513 -0.1467 -0.0505 -0.0032
11608W        W27077   2.346   1.819   2.379 -0.0361 -0.2941 -0.1536
11609W        W27078   8.638  14.752   3.390  0.0561  0.0215  0.1355
11610W        W27079   7.918  15.762  10.915  0.2356 -0.1666  0.0338
11611W        W27080  18.390  15.618  10.556  0.2642 -0.0570  0.0698
11612W        W27081  15.503   7.080   0.001  0.0924 -0.4325 -0.3206
11613W        W27082  18.397   4.935   0.565  0.2350 -0.0592 -0.0988
11614W        W27083   0.497  15.248  15.493 -0.1819  0.0278 -0.1305
11615W        W27084   3.614   6.051   0.248  0.1186  0.0969 -0.0621
11616W        W27085   2.516   8.865  11.844 -0.0691 -0.0191 -0.1053
11617W        W27086   0.763  11.738  11.030  0.0036  0.0236  0.0242
11618W        W27087   5.851  15.931  13.823  0.2680  0.1946  0.0863
11619W        W27088  13.856   9.430   1.947 -0.1478  0.3229  0.1938
11620W        W27089  15.708   6.773   2.184 -0.0320  0.0488 -0.2154
11621W        W27090   5.982   0.766  12.552 -0.1146 -0.1746  0.1890
11622W        W27091  11.220   7.873   2.232 -0.0313  0.0280  0.3075
11623W        W27092   0.520   5.234   5.978  0.1473  0.0006  0.1175
11624W        W27093  15.267  15.959  14.740 -0.0976 -0.2146 -0.2688
11625W        W27094   2.614   7.995  13.650 -0.0411 -0.0970  0.1520
11626W        W27095  14.327  11.415  15.289 -0.1995 -0.0810  0.0530
11627W        W27096   3.456   1.350   2.349 -0.2628 -0.0763 -0.3015
11628W        W27097   4.310   4.551  15.156 -0.2432  0.2419  0.4216
11629W        W27098   4.123  13.091  12.192 -0.0460 -0.3215  0.3110
11630W        W27099   2.273   2.184   2.062 -0.2727 -0.2061  0.0510
11631W        W27100   3.227   0.501   5.220  0.1525 -0.3189 -0.1797
11632W        W27101  11.802  13.609   4.835 -0.2339  0.0104 -0.3151
11633W        W27102   1.342  15.430  13.192 -0.1598  0.0908  0.0927
11634W        W27103  12.997  13.021  11.667 -0.0702 -0.0084  0.0249
11635W        W27104  15.845  18.278  15.728  0.0168 -0.5017 -0.2329
11636W        W27105   2.306  17.529   3.661  0.2494  0.0927  0.3228
11637W        W27106  15.293  10.693   3.772  0.0667 -0.1130  0.3321
11638W        W27107  12.036   4.459   3.178 -0.1401 -0.2008  0.0835
11639W        W27108  15.356  16.619  12.203 -0.3895  0.0147  0.0611
11640W        W27109  14.936  11.711  11.257 -0.2686 -0.2848 -0.0426
11641W        W27110   8.599  10.249   1.700 -0.0197 -0.2287 -0.1407
11642W        W27111  13.954   4.000   4.001  0.0909 -0.0549  0.1595
11643W        W27112  17.585  10.287  13.766  0.0457  0.3875  0.1760
11644W        W27113  15.574   4.637   4.721  0.0757  0.0182  0.0462
11645W        W27114   7.388   8.953  12.620  0.1319  0.0854 -0.1866
11646W        W27115   1.835  15.265   1.453  0.1892  0.3894 -0.4871
11647W        W27116  17.990  12.615   0.931 -0.1464  0.1677 -0.0232
11648W        W27117  10.502  11.993   2.154  0.2452 -0.2185 -0.2776
11649W        W27118  17.591  11.549  11.072 -0.0117  0.2222  0.1539
11650W        W27119  17.547   0.858  12.516  0.2164 -0.0068 -0.2544
11651W        W27120   2.046   7.072  12.439 -0.0647 -0.3346 -0.0862
11652W        W27121   9.627   2.589  10.525 -0.1366  0.5024  0.0012
11653W        W27122  16.141  14.102  14.989  0.1375  0.2042  0.0048
11654W        W27123   5.487  15.380  10.747  0.0023  0.1537 -0.0891
11655W        W27124  13.654   0.059  13.748  0.1140  0.0949 -0.0307
11656W        W27125   5.025  10.089  11.445  0.0640  0.0907 -0.2261
11657W        W27126  12.799  10.902   2.859  0.3499  0.1728  0.0928
11658W        W27127   5.623   9.375  13.174 -0.0728 -0.3581  0.0672
11659W        W27128  17.050   7.452   1.374 -0.0921  0.0191 -0.0354
11660W        W27129  16.062  18.305  12.095  0.2816  0.0654  0.1973
11661W        W27130   8.286  11.706  15.356  0.0850  0.0289 -0.1837
11662W        W27131   7.630   8.241  11.240  0.3510  0.1882  0.0155
11663W        W27132  16.982   6.682  14.595 -0.1187 -0.1121 -0.1413
11664W        W27133   1.345   1.784   1.609 -0.1037 -0.4586  0.0192
11665W        W27134   5.702   9.669   3.124 -0.1019  0.1178  0.0304
11666W        W27135   1.823  18.634   4.553 -0.0216 -0.4058 -0.1354
11667W        W27136   7.193  16.976   4.986  0.0303 -0.4032  0.1433
11668W        W27137  14.416  13.549  12.645  0.2425 -0.0686 -0.1969
11669W        W27138  17.296  18.318  11.433  0.1452  0.0247 -0.1039
11670W        W27139   7.703   2.093  11.680  0.1505  0.4608 -0.3080
11671W        W27140   3.226   6.544  12.327  0.0731 -0.2400  0.1765
11672W        W27141   8.290  10.853   2.446  0.0273  0.1684  0.0801
11673W        W27142   8.878   7.480   4.166 -0.2397  0.2676  0.1378
11674W        W27143   0.156  13.582  14.207 -0.3570 -0.0545  0.1823
11675W        W27144   9.562   5.723   5.712 -0.2734  0.3411  0.1941
11676W        W27145  11.602   6.805   0.129  0.0206 -0.1696 -0.1373
11677W        W27146  18.572   0.005   3.544  0.1796  0.1849 -0.2778
11678W        W27147   7.806   9.746  10.793  0.2304  0.2342  0.3192
11679W        W27148   7.092  12.919   4.229  0.0114 -0.0695 -0.1202
11680W        W27149  12.718   0.646   3.320  0.1242  0.0900 -0.3255
11681W        W27150  10.128   6.369   4.954  0.0336 -0.0210  0.0027
11682W        W27151  16.248  11.647  11.039  0.0847  0.2304 -0.0236
11683W        W27152   5.743  10.004  13.399 -0.0309  0.4262  0.0328
11684W        W27153   5.600  11.183   3.547 -0.0704  0.0470 -0.1039
11685W        W27154  12.161   9.033   5.546  0.0703  0.0939 -0.1210
11686W        W27155  15.972   4.005   4.370  0.0941 -0.1381  0.0267
11687W        W27156   0.456   5.229  11.994  0.2469 -0.1168 -0.1375
11688W        W27157   4.079  12.070  11.379  0.2471  0.1062 -0.0900
11689W        W27158   0.597   6.557  13.793  0.1410 -0.0698 -0.3317
11690W        W27159   5.660  13.749   2.747 -0.0146 -0.0581  0.0171
11691W        W27160  15.090  16.755  11.767 -0.0304 -0.0380 -0.2286
11692W        W27161  14.290  16.601   4.273 -0.0523 -0.1652 -0.2855
11693W        W27162   4.388  16.100  14.865 -0.0384  0.0178  0.0005
11694W        W27163  11.891   9.610  14.558 -0.0037  0.0019 -0.1308
11695W        W27164  16.401   3.216   0.286 -0.2025  0.0556 -0.0484
11696W        W27165  13.631  16.480   5.496 -0.2778 -0.1187  0.0750
11697W        W27166   6.388  14.123  15.133  0.1733 -0.2202  0.0247
11698W        W27167   3.372   6.981   2.989  0.1791  0.1842 -0.2170
11699W        W27168   1.330   1.280  14.354 -0.3285  0.2532 -0.2146
11700W        W27169   1.271   4.331   0.486 -0.0240 -0.2177 -0.1331
11701W        W27170   7.321  10.754  13.461 -0.1526  0.1104  0.2270
11702W        W27171  14.495   1.739  12.225 -0.1309  0.1032 -0.0440
11703W        W27172   0.332  15.095   3.033 -0.3241  0.1703 -0.0164
11704W        W27173   6.722   5.609  15.133 -0.0976  0.1209  0.4888
11705W        W27174  16.740  11.572  12.283 -0.0847  0.2738  0.0311
11706W        W27175   9.048   1.509   4.403  0.1649 -0.1729 -0.0693
11707W        W27176  16.844  15.101   1.088 -0.0598  0.0690  0.0792
11708W        W27177  12.067   6.124  13.435 -0.0705  0.1099 -0.2858
11709W        W27178   3.794  17.108   2.935  0.2083  0.0240  0.2853
11710W        W27179  10.620  10.778   2.822  0.1246 -0.1295 -0.1597
11711W        W27180  10.079  13.488   3.322  0.0422 -0.2457  0.2040
11712W        W27181  10.835   5.946   1.033 -0.1077  0.1132  0.0315
11713W        W27182   4.697  15.810   2.155  0.0395  0.3369  0.0981
11714W        W27183  17.041   7.784  13.762  0.3944 -0.1227 -0.0584
11715W        W27184   0.903  13.438   1.999  0.0350 -0.0258  0.0409
11716W        W27185   1.695   1.496   3.984 -0.0918  0.0231  0.3739
11717W        W27186  17.319   9.550   1.374  0.1165  0.0475 -0.0878
11718W        W27187   4.334   0.769  13.148 -0.1090  0.3145 -0.0964
11719W        W27188   8.288  16.800   1.416  0.2583 -0.0198  0.2662
11720W        W27189  14.862   2.303   1.708  0.2488  0.0616 -0.0141
11721W        W27190  17.911   1.616   5.629 -0.1964 -0.1288  0.1678
11722W        W27191   9.248  13.610   3.156 -0.2053 -0.0707  0.2142
11723W        W27192   3.964   9.285   2.077  0.0320  0.1395  0.1219
11724W        W27193  14.272   4.695   1.872 -0.2090 -0.0176  0.2570
11725W        W27194   8.306  17.081   1.857  0.0288  0.1464 -0.2069
11726W        W27195  18.640  13.279   2.440 -0.2449 -0.1312 -0.1613
11727W        W27196   2.915  10.726   1.921  0.0467  0.1732  0.2302
11728W        W27197  16.927   9.948  10.951  0.0340  0.2084  0.1328
11729W        W27198  15.287  13.344   2.429 -0.3444 -0.2533 -0.3509
11730W        W27199  15.903  16.246  12.853 -0.2520  0.2008  0.1339
11731W        W27200  11.627  12.770   5.775  0.2427 -0.0611 -0.5350
11732W        W27201   5.168  14.927   2.340  0.0315  0.1764  0.2068
11733W        W27202   2.815   7.076  15.190  0.0568  0.0427 -0.1403
11734W        W27203  18.694   2.906   2.393  0.1259  0.0543 -0.2415
11735W        W27204  10.597   3.901   1.264  0.0093  0.0821  0.0391
11736W        W27205   4.094  17.266   2.414 -0.1199  0.0307  0.0148
11737W        W27206  10.541   8.228   5.524  0.3051  0.4285  0.0060
11738W        W27207   2.272   5.685   4.417 -0.0493 -0.4118 -0.1181
11739W        W27208   4.783  14.471   1.129  0.0884 -0.1998  0.0629
11740W        W27209  13.554   5.515   1.843 -0.2208  0.0822 -0.0790
11741W        W27210  14.873   3.855  14.235  0.2453 -0.1621  0.0521
11742W        W27211   8.390  11.559   4.778  0.0859  0.0442  0.3196
11743W        W27212   4.815  14.626   5.589 -0.2394  0.1013 -0.0805
11744W        W27213  10.147   1.923   5.085 -0.0240  0.2392 -0.0439
11745W        W27214   1.720   8.364   5.688 -0.2533  0.0043 -0.1162
11746W        W27215   4.235  12.063   5.921 -0.1125  0.1390  0.0184
11747W        W27216   8.252  12.649  10.783  0.1452 -0.1604  0.3528
11748W        W27217  18.233   2.244  15.236 -0.0088 -0.4488  0.0044
11749W        W27218  10.247  17.538  15.406  0.3044 -0.2248 -0.1256
11750W        W27219   3.545   8.963   2.249  0.1816  0.0102 -0.3078
11751W        W27220  15.636  18.122  10.461 -0.0467 -0.3311  0.2243
11752W        W27221   9.942  12.048  13.192 -0.2567  0.1909 -0.1413
11753W        W27222   0.002   5.174  12.840 -0.2106  0.1755  0.0015
11754W        W27223   7.900  15.629  15.645  0.3969 -0.1946  0.0207
11755W        W27224   4.701   0.366   2.151  0.0471  0.1005  0.1299
11756W        W27225  10.018   2.959  11.635  0.0193  0.0703  0.1381
11757W        W27226  13.460  16.050  15.336  0.3245  0.0934  0.0791
11758W        W27227  15.115  17.391   0.519 -0.0039 -0.1020  0.1067
11759W        W27228   2.468  11.241   0.256 -0.0870  0.0704  0.0327
11760W        W27229  12.836   9.804  14.791  0.1272 -0.0643  0.1278
11761W        W27230  12.057  16.738  12.840  0.0924 -0.0069 -0.1865
11762W        W27231   6.244   1.892  11.222 -0.1155 -0.1183  0.0117
11763W        W27232   1.640  17.310   4.345 -0.0770  0.0470 -0.1510
11764W        W27233  15.793  13.123  15.354 -0.2298  0.0249 -0.0384
11765W        W27234   0.884  12.292   4.396 -0.1913  0.3065 -0.1687
11766W        W27235   9.904  12.811  10.752 -0.1006  0.2054  0.1295
11767W        W27236   8.854  17.161  15.541  0.1458 -0.0041  0.1468
11768W        W27237  16.730  15.376  12.529  0.0621 -0.1778 -0.3339
11769W        W27238  18.243   7.725  13.410  0.1566 -0.2641  0.0170
11770W        W27239  14.037   0.515  10.894 -0.1645  0.0585  0.1354
11771W        W27240   2.379  18.044   2.421 -0.4433 -0.0870 -0.1561
11772W        W27241   1.116  15.131  14.561  0.1568  0.2664  0.1041
11773W        W27242   1.808  13.100   3.151 -0.1374  0.0873  0.2859
11774W        W27243   4.417   4.729  13.279 -0.1018  0.0451  0.0270
11775W        W27244   7.968   2.028   0.561 -0.0407  0.0108  0.1335
11776W        W27245  17.903  10.171   3.554 -0.1618 -0.1376  0.1769
11777W        W27246  16.414  15.478  13.978 -0.3989  0.1507 -0.1438
11778W        W27247  16.287  10.187   2.085  0.0615 -0.0846  0.0012
11779W        W27248  15.598  16.605  15.182 -0.1705  0.0398 -0.1237
11780W        W27249   9.187  15.124  11.965  0.2957 -0.1478  0.0592
11781W        W27250   3.624  17.940  11.239 -0.2390 -0.2173  0.0365
11782W        W27251  10.088  10.179   1.257 -0.0493  0.2328 -0.1204
11783W        W27252   2.673   4.873  14.804 -0.4345  0.2083  0.0145
11784W        W27253   3.081   2.871  11.606 -0.0778  0.0358 -0.1082
11785W        W27254   1.474  14.488  14.739 -0.0340 -0.0625 -0.5019
11786W        W27255   5.738   4.670   1.911  0.2020  0.0455 -0.1585
11787W        W27256   9.901  14.075   2.044 -0.2357 -0.0767  0.2268
11788W        W27257  16.119   1.433   2.456 -0.3220  0.0870 -0.0361
11789W        W27258  10.510   2.833  14.771 -0.0192  0.1959  0.0852
11790W        W27259   7.687   4.544   0.157 -0.1557  0.0055 -0.0148
11791W        W27260   8.073  16.974  14.091 -0.1074 -0.2298 -0.0491
11792W        W27261   3.887   7.518   2.304 -0.2588  0.0365 -0.2124
11793W        W27262  10.728   1.944  10.617 -0.2866  0.0585 -0.0920
11794W        W27263   4.861   7.163  14.827  0.1154 -0.2235 -0.2765
11795W        W27264  15.140   7.490   2.515 -0.1688  0.0579  0.2880
11796W        W27265  13.081  11.516   4.722  0.1022  0.0799 -0.1122
11797W        W27266   1.829   2.440  14.853  0.0083  0.1765  0.1792
11798W        W27267   4.792  17.458   4.143  0.2420  0.2959  0.0617
11799W        W27268  14.869  15.872   9.688 -0.2929  0.0432 -0.0693
11800W        W27269  13.086   4.197  11.639  0.3925 -0.0117 -0.1081
11801W        W27270   1.606   6.302  14.688 -0.0877 -0.2677 -0.2715
11802W        W27271   0.388  15.542  13.055  0.2318 -0.1105 -0.0172
11803W        W27272  10.111   9.273   1.403  0.0499  0.1918 -0.2050
11804W        W27273   5.791  12.346   2.030 -0.1172  0.0090  0.1773
11805W        W27274  11.634  17.900   1.461 -0.3049 -0.3003 -0.1348
11806W        W27275  10.619   7.081  11.340 -0.1695  0.2520  0.0384
11807W        W27276   9.896   8.372   1.579 -0.3126 -0.0251  0.1072
11808W        W27277  13.780  10.769   5.274  0.1159  0.1281 -0.1005
11809W        W27278   1.644   0.308   9.963  0.0869  0.0357  0.1359
11810W        W27279   8.177   3.842   2.128  0.0412  0.1632  0.1499
11811W        W27280   1.038   6.908   9.644  0.0253  0.0331 -0.0359
11812W        W27281   2.534  18.023  11.214 -0.1056  0.0836  0.3579
11813W        W27282   7.147   3.721   1.114  0.2031 -0.1260 -0.1718
11814W        W27283   9.710  15.649  12.666  0.0526  0.0723  0.2374
11815W        W27284   5.028  13.556   2.091  0.1919 -0.0203  0.2696
11816W        W27285   3.627  15.993  11.215  0.3115  0.0753  0.0497
11817W        W27286   6.788  18.273   2.850  0.1048 -0.6269 -0.0769
11818W        W27287   1.939  13.605  11.502 -0.2490 -0.0645 -0.1180
11819W        W27288   7.529  16.650  15.666 -0.0440 -0.3219  0.0553
11820W        W27289   7.585  14.168  12.596  0.0993 -0.2149  0.0164
11821W        W27290  13.342   8.512  12.489  0.0169 -0.1080 -0.3331
11822W        W27291  14.872  16.879  10.861 -0.1621 -0.1022 -0.1469
11823W        W27292   1.142  13.309  11.744  0.2458  0.0409  0.0914
11824W        W27293  18.504   6.794   4.705  0.1388  0.1368  0.0737
11825W        W27294  11.703  14.904  11.177 -0.1258  0.0974 -0.2443
11826W        W27295  10.844  16.009  15.557  0.0041  0.1068 -0.2694
11827W        W27296   4.117   8.533  15.389  0.0095  0.1984 -0.2146
11828W        W27297  12.914  10.343   1.279  0.0073  0.0249 -0.3528
11829W        W27298   4.103  14.566  14.751 -0.1462  0.0502  0.3032
11830W        W27299   9.117  14.175  12.311  0.0754 -0.1369 -0.1420
11831W        W27300   5.049  17.584   0.615  0.0267  0.1040 -0.1084
11832W        W27301   0.122   0.105  15.110  0.1878  0.1581  0.1681
11833W        W27302   2.018  15.110   2.280  0.1737  0.0050 -0.2735
11834W        W27303   6.097   6.640   4.548  0.0400  0.3251  0.1976
11835W        W27304   3.605  13.601  10.736 -0.2725 -0.2974  0.0045
11836W        W27305  15.578   3.393   5.088  0.1434  0.4351  0.2950
11837W        W27306   9.626   9.487  13.657  0.1221 -0.2357  0.0283
11838W        W27307  10.882   6.421   3.677 -0.0111 -0.0395  0.0897
11839W        W27308   2.968   9.461   5.659 -0.2505  0.1750  0.1952
11840W        W27309  10.621   4.846   2.790  0.3706  0.0687 -0.2668
11841W        W27310   4.894  17.902  14.709 -0.0367  0.2565  0.1614
11842W        W27311  18.570   8.262   1.609 -0.1090 -0.3157 -0.1623
11843W        W27312   8.014  11.055   5.805  0.0056  0.0134 -0.1072
11844W        W27313  15.628  14.692  12.279  0.3019  0.3360 -0.0893
11845W        W27314   1.836   0.843  11.290 -0.0022 -0.2335 -0.0224
11846W        W27315   1.636   1.197   2.585  0.0306  0.1478  0.4593
11847W        W27316  10.539   0.469  13.010 -0.1711  0.0676  0.4129
11848W        W27317  18.134  14.994   1.673  0.2238  0.0949 -0.1864
11849W        W27318  15.740  15.466   0.119  0.0213  0.1314 -0.0067
11850W        W27319   2.385  15.458  15.085 -0.2521  0.1236  0.0345
11851W        W27320  12.839   0.690  15.400  0.2502  0.1358  0.1500
11852W        W27321   5.575  12.529  11.975 -0.0051 -0.2774 -0.2684
11853W        W27322   9.102   1.471   0.135 -0.0594 -0.0822 -0.2553
11854W        W27323  18.383   6.661  10.676 -0.1570  0.0657 -0.2601
11855W        W27324  18.401   2.664   1.663  0.5120  0.4200  0.2281
11856W        W27325  16.749   5.981   1.974  0.2386  0.1606  0.0634
11857W        W27326  15.351   5.955   0.620  0.1797 -0.0538 -0.0293
11858W        W27327   8.329   1.495   4.989  0.1364 -0.0976 -0.0031
11859W        W27328  14.484  13.178  14.483 -0.1972 -0.2344  0.0997
11860W        W27329  10.716   7.937   0.504  0.0634 -0.1831 -0.1389
11861W        W27330  10.602   9.169  15.577  0.0669 -0.2954 -0.0589
11862W        W27331  15.402   0.122  12.475  0.0411 -0.2241 -0.1174
11863W        W27332  10.742   0.428   0.056 -0.3470 -0.1097 -0.1452
11864W        W27333   1.335  16.180  10.834  0.3277 -0.1287 -0.0101
11865W        W27334  15.979  17.785  13.924  0.2064  0.1587 -0.2182
11866W        W27335  17.226   7.038   9.988 -0.1308 -0.2614  0.3263
11867W        W27336  13.316   9.405   4.835 -0.2755  0.0199 -0.0010
11868W        W27337   8.957   7.026  14.830  0.3829 -0.0416 -0.0828
11869W        W27338  18.356   6.963  15.744 -0.4580  0.2313 -0.1042
11870W        W27339  13.239   4.795   2.722 -0.2803  0.0670  0.1813
11871W        W27340   8.336   0.600  14.556  0.0164  0.2732  0.4266
11872W        W27341  17.818   9.976   5.159 -0.0292 -0.2831 -0.2706
11873W        W27342  16.264  13.999  11.463 -0.2169  0.5816  0.0015
11874W        W27343   4.150  18.400   2.784 -0.0439 -0.3349 -0.0666
11875W        W27344   8.081  12.557  12.269 -0.0186  0.0232 -0.2556
11876W        W27345   9.873   2.584   3.872 -0.0762 -0.1298 -0.0826
11877W        W27346   3.980   5.243   1.619  0.0292  0.2573 -0.6149
11878W        W27347  18.450   2.874  12.523 -0.1750  0.0271  0.2154
11879W        W27348  10.658   0.610   2.831  0.1927  0.0202  0.3016
11880W        W27349  16.227   1.192   3.348 -0.0392 -0.0054 -0.0851
11881W        W27350   2.575   6.264   5.650 -0.1683 -0.0632 -0.1019
11882W        W27351   0.004  17.361  10.801 -0.0178 -0.1076  0.2395
11883W        W27352   4.085  11.920  15.296 -0.1637 -0.3608 -0.1037
11884W        W27353  14.512  18.581   0.608  0.2790 -0.0015 -0.0095
11885W        W27354   3.587   6.902   3.838 -0.1388 -0.2245  0.0913
11886W        W27355   0.447  11.249   0.704 -0.1927 -0.2412 -0.2650
11887W        W27356   6.969  18.566  14.686 -0.0732 -0.0523  0.1904
11888W        W27357   8.885  16.043   2.880  0.0860 -0.0268 -0.0364
11889W        W27358  12.057  15.438   2.669 -0.2218 -0.0477 -0.0640
11890W        W27359   1.852  15.219  15.414 -0.0018 -0.0755  0.1857
11891W        W27360   8.905   2.154   1.644  0.4350 -0.0895 -0.3779
11892W        W27361  12.458   7.194   3.978 -0.5861 -0.0599 -0.2405
11893W        W27362  15.616   9.935   2.828 -0.1382  0.0157 -0.1221
11894W        W27363   5.003   6.692  15.062  0.0195 -0.1193  0.0036
11895W        W27364  12.566  11.837  15.188  0.1359 -0.0549 -0.0968
11896W        W27365   2.609  14.356   0.248 -0.0987 -0.0989  0.1465
11897W        W27366   3.146   0.708  15.418 -0.2034 -0.0572  0.0146
11898W        W27367  18.649   5.972  14.862  0.0085  0.1167  0.0548
11899W        W27368  16.605  13.160  13.723 -0.0399  0.1180  0.0466
11900W        W27369   4.138  17.205   1.373  0.0620 -0.0231 -0.1049
11901W        W27370  10.512   9.885   3.106  0.0333  0.3219 -0.2210
11902W        W27371   7.411   7.403  11.676 -0.4076 -0.0334 -0.0207
11903W        W27372   6.881  12.311   2.247 -0.2164  0.0452 -0.0455
11904W        W27373  15.487   9.811   0.631  0.0483  0.0688  0.1060
11905W        W27374   5.437   0.006  12.478  0.0613 -0.1923  0.2264
11906W        W27375  17.368  12.882   3.645  0.2810 -0.0386  0.1627
11907W        W27376   6.542   3.873  10.756  0.0718  0.0958  0.0449
11908W        W27377   7.870   4.133   3.359  0.0025  0.1399 -0.0490
11909W        W27378   2.282  15.747   1.731  0.0600 -0.0355  0.0453
11910W        W27379   2.228   7.732  13.832  0.2938 -0.1228  0.1299
11911W        W27380   6.221   8.038   2.520 -0.1594 -0.2363 -0.2004
11912W        W27381  16.887  15.955   5.166  0.0393  0.1281  0.1520
11913W        W27382  10.888   1.084  11.507  0.0838 -0.0960  0.1751
11914W        W27383   1.107   2.884   3.928  0.2015  0.1243 -0.0051
11915W        W27384   3.717  10.811  12.832 -0.1878  0.1476  0.2106
11916W        W27385  18.196  16.056  10.720 -0.0519 -0.0312  0.0347
11917W        W27386   3.288  17.389  14.101  0.3580  0.0491  0.1872
11918W        W27387  15.839   3.169   0.294  0.2268  0.2873 -0.2194
11919W        W27388   8.026   3.058  13.983 -0.0913 -0.1001 -0.0371
11920W        W27389   3.593   4.631   2.645 -0.1063  0.1603 -0.0845
11921W        W27390  10.370   9.422   3.172 -0.2291 -0.0375 -0.2738
11922W        W27391   4.018  11.049   2.768 -0.0720  0.1217  0.0669
11923W        W27392   4.060   7.635  10.893 -0.0078 -0.0481 -0.3284
11924W        W27393   0.663   1.368   2.497  0.0076 -0.2916 -0.1409
11925W        W27394  18.442  16.551  15.132  0.3885  0.1169  0.2161
11926W        W27395  15.413  13.295  13.996 -0.1751 -0.0854 -0.3647
11927W        W27396   5.117   5.904   3.164  0.0746  0.1239 -0.1059
11928W        W27397  10.897   2.843  13.151  0.1064 -0.1232  0.0501
11929W        W27398   9.374   2.350   5.763  0.0707  0.0907 -0.1367
11930W        W27399  12.899   2.183  12.779  0.0769  0.0154  0.3920
11931W        W27400  16.310   0.876   0.133 -0.0154  0.0484  0.0645
11932W        W27401   0.325   2.291   4.376  0.2900 -0.2231 -0.0982
11933W        W27402   0.161  18.527  12.460  0.0412  0.2360  0.0301
11934W        W27403  11.215  12.890  15.677  0.0191  0.0942  0.3600
11935W        W27404   0.492   9.158  10.482 -0.0081 -0.1329 -0.3986
11936W        W27405  18.606   1.575  13.387  0.0810  0.0333  0.1092
11937W        W27406   0.883   5.356  11.622 -0.0456  0.1188  0.2153
11938W        W27407  15.583   3.282  10.441 -0.1376  0.1239  0.3431
11939W        W27408  16.702   1.002   4.612  0.0203 -0.1156  0.1508
11940W        W27409  10.126   3.058  15.279 -0.0859  0.0375  0.1283
11941W        W27410  10.455   3.399  15.356 -0.0786  0.1696  0.2408
11942W        W27411   6.045  15.546   4.582 -0.0079 -0.0220  0.0866
11943W        W27412   8.974   8.394  12.704  0.1064 -0.1843  0.1639
11944W        W27413   8.095  15.099  11.743 -0.1740 -0.0196 -0.0391
11945W        W27414   5.407   1.159   3.753 -0.0823  0.1132  0.1315
11946W        W27415  11.226   2.293  11.324  0.1993  0.0818 -0.0989
11947W        W27416   8.470   4.716   4.880  0.1703 -0.4801 -0.0577
11948W        W27417   1.768  11.454   9.898 -0.0807 -0.0676  0.0356
11949W        W27418   1.955  12.426   1.695  0.3055  0.0707  0.0256
11950W        W27419   7.701   4.063  14.335  0.3404 -0.0820 -0.0454
11951W        W27420  16.612  18.681   3.520  0.1696 -0.4009  0.1271
11952W        W27421  15.642   5.955   2.030  0.1752  0.0373  0.0056
11953W        W27422  16.457  10.607  15.578  0.1070  0.1293  0.3504
11954W        W27423   1.750   4.375  13.240 -0.1841 -0.0938 -0.3595
11955W        W27424   0.107  11.769   3.273  0.0500 -0.1180 -0.0669
11956W        W27425  12.362  17.856   1.047  0.3328  0.2548  0.1660
11957W        W27426   2.800   1.795   1.212  0.1172 -0.1986  0.0829
11958W        W27427   7.514  16.266  14.783  0.1071  0.0280 -0.0398
11959W        W27428  17.592  11.344  13.106  0.4166 -0.0204  0.0540
11960W        W27429  17.637   0.874  10.925  0.0020  0.0279  0.0978
11961W        W27430   7.434  17.336   2.675 -0.1383 -0.1048  0.1235
11962W        W27431  12.010  15.414   1.321  0.0751  0.1931 -0.0302
11963W        W27432   3.945  16.148   5.120  0.0691  0.0422 -0.1835
11964W        W27433  14.516   7.319   0.252  0.1568  0.2389 -0.0171
11965W        W27434  16.103   7.488  13.931  0.2649  0.0539  0.2607
11966W        W27435  14.968  18.009  12.626 -0.3989  0.2266  0.0686
11967W        W27436  16.476  14.730  11.274 -0.0715 -0.0328  0.1636
11968W        W27437  10.065  10.456  12.096 -0.2771 -0.5908 -0.2305
11969W        W27438   7.083  14.800   5.644  0.0989  0.1048 -0.0203
11970W        W27439   9.091  10.310   4.542 -0.0071  0.0128  0.0016
11971W        W27440   5.878   3.745  10.915  0.3738  0.4953  0.3371
11972W        W27441   7.031   6.593  10.443  0.0553 -0.1824 -0.1411
11973W        W27442  10.787  15.755  13.975  0.4191  0.1027 -0.2436
11974W        W27443   1.254  18.202   2.289  0.0325  0.1116  0.2352
11975W        W27444   3.894  16.342  15.016 -0.0770 -0.0067  0.1425
11976W        W27445  12.980  11.476  11.572 -0.0308 -0.2217  0.0940
11977W        W27446   3.830   0.685  13.195  0.0109 -0.2939 -0.1330
11978W        W27447  11.975  11.020   2.643  0.0151  0.0480  0.1059
11979W        W27448   6.801   8.344   2.622 -0.1147  0.0701 -0.0521
11980W        W27449  17.271   2.201  13.655  0.2115 -0.0540  0.0145
11981W        W27450   5.494  17.703   1.630  0.1887  0.1645  0.1173
11982W        W27451  13.020  17.331   0.970 -0.0982 -0.0085  0.3761
11983W        W27452  18.159   6.287   2.626 -0.0469  0.0236  0.3753
11984W        W27453  18.162  14.455  12.471 -0.0614  0.1181  0.2399
11985W        W27454   6.551   0.041   0.596  0.0347 -0.1061 -0.0018
11986W        W27455   6.281   1.728   0.992 -0.3226  0.0851  0.0229
11987W        W27456  13.989  16.895  13.676  0.1990 -0.1547  0.1475
11988W        W27457  15.149   9.906   2.805  0.1301  0.1916 -0.1015
11989W        W27458  17.137   3.225   1.711  0.2726 -0.3683 -0.1589
11990W        W27459  10.909   2.498  11.049 -0.1490  0.0697  0.1135
11991W        W27460  13.171   9.915  13.985 -0.0593 -0.0031 -0.0229
11992W        W27461   3.292   2.999   1.462 -0.2636  0.1563 -0.2345
11993W        W27462   9.908   4.515  10.962  0.0992 -0.0519 -0.1722
11994W        W27463   1.446  12.653  13.070  0.3941  0.0654  0.0754
11995W        W27464   9.676   8.970   4.660 -0.0742 -0.0263 -0.2466
11996W        W27465   1.319  14.470  10.852  0.0634 -0.0726 -0.0944
11997W        W27466  18.384  15.486  12.855 -0.1390  0.1731 -0.2313
11998W        W27467  18.459   3.284  13.141 -0.3155 -0.6213 -0.1869
11999W        W27468   6.917   5.851   3.697 -0.4377  0.2617  0.2218
12000W        W27469  10.698   7.044  15.648  0.0275  0.0405 -0.1995
12001W        W27470  15.574   9.514   3.663 -0.2903  0.0916 -0.0443
12002W        W27471   1.439  15.656   3.292  0.3301  0.0152  0.0544
12003W        W27472   3.704   3.196  13.353  0.1185  0.0712  0.3273
12004W        W27473   5.291   3.272  11.370  0.0196  0.0400  0.3215
12005W        W27474   1.174   1.174   0.974  0.2346 -0.0895 -0.0342
12006W        W27475  18.177   8.029   2.446  0.0520 -0.1552  0.1742
12007W        W27476  14.264  13.995   4.030  0.0712  0.0254 -0.2587
12008W        W27477   9.889   9.684   5.434  0.0677  0.2258  0.2987
12009W        W27478  14.093  16.526  14.728 -0.3496 -0.4108  0.0770
12010W        W27479  16.937   5.709  11.217  0.1340  0.2661 -0.1948
12011W        W27480   1.875   3.219   1.291 -0.1701  0.2607  0.2069
12012W        W27481   2.320  14.193  15.638 -0.1068  0.1022 -0.0721
12013W        W27482   7.474   6.584  15.466 -0.0845 -0.0561  0.4369
12014W        W27483  18.636  13.035  13.153 -0.0475  0.0724  0.0483
12015W        W27484  15.739  17.117  14.597 -0.1583 -0.0763 -0.0050
12016W        W27485  13.583   6.533  10.679 -0.1232  0.0482 -0.2886
12017W        W27486   1.908  17.567  13.915 -0.0157 -0.1385  0.1025
12018W        W27487  18.423  10.003  12.656  0.1197  0.2696  0.0530
12019W        W27488  11.435   2.515  14.033 -0.0252 -0.0165  0.1902
12020W        W27489   0.989  14.834  11.578 -0.2672  0.0592 -0.1022
12021W        W27490   6.641   2.104   4.555 -0.2183  0.1417  0.1248
12022W        W27491  15.607  12.714  12.834 -0.1445  0.0439 -0.4159
12023W        W27492  10.866  15.973  14.404 -0.0889 -0.1449  0.1362
12024W        W27493  14.937   7.295   2.096  0.2499 -0.3481 -0.0021
12025W        W27494   5.283   5.012  14.285 -0.1697 -0.3204 -0.0595
12026W        W27495   0.130  11.382  14.336 -0.3117  0.0396 -0.4004
12027W        W27496   9.569   0.702  10.905  0.3945  0.3192  0.1910
12028W        W27497   5.383  14.214   2.952  0.0926 -0.0663 -0.0065
12029W        W27498   2.222   5.403   0.591 -0.2304  0.1905  0.3101
12030W        W27499   5.010   9.741  15.197 -0.0324 -0.3315  0.0749
12031W        W27500  14.710   6.270  14.771  0.2765  0.1054  0.1934
12032W        W27501  11.453   9.420   1.023 -0.0286  0.1823 -0.2739
12033W        W27502  14.722  11.502  10.693  0.1456 -0.0922 -0.1749
12034W        W27503   0.946  11.150   0.778  0.0780  0.0474  0.5074
12035W        W27504   8.243   1.289  13.353 -0.2949  0.0388 -0.0218
12036W        W27505   9.933   0.925   1.758 -0.0758 -0.0091  0.4552
12037W        W27506   1.937   0.764  12.476 -0.0070 -0.2064 -0.0680
12038W        W27507   0.719   6.867  15.524 -0.0001 -0.1202 -0.1170
12039W        W27508   9.587  15.657   1.544 -0.1596 -0.0106  0.3366
12040W        W27509   9.467  13.201   4.976  0.1528  0.1119 -0.4221
12041W        W27510   0.542   3.925  10.945 -0.1296 -0.1124  0.0796
12042W        W27511   4.384   0.848   5.170 -0.3484 -0.0028  0.3771
12043W        W27512   6.288  11.838   1.716 -0.2730  0.0463 -0.1470
12044W        W27513  15.565   4.182  14.505 -0.0972 -0.0300  0.3928
12045W        W27514   3.615  12.251  12.655 -0.2076 -0.2582  0.2074
12046W        W27515  17.279   2.367  12.903  0.1714 -0.0539  0.0554
12047W        W27516  18.052   0.259  10.213 -0.1207  0.0280  0.0244
12048W        W27517   7.878  13.309   2.489 -0.1019 -0.3945 -0.0606
12049W        W27518  16.505  14.539   2.095  0.3319 -0.0702 -0.2031
12050W        W27519  11.188   8.259  12.312  0.0554 -0.1119  0.0382
12051W        W27520  13.863  16.866   5.219 -0.2272 -0.2014 -0.2678
12052W        W27521   2.093  14.290  15.167  0.4931 -0.0508  0.0876
12053W        W27522   0.088   0.635   2.326 -0.1232 -0.3559 -0.2917
12054W        W27523   2.319   1.350  14.332  0.0558  0.3794  0.1275
12055W        W27524   2.213  17.216   2.096 -0.0937  0.2173  0.1572
12056W        W27525   8.749   8.108   2.486  0.3386  0.0045 -0.1119
12057W        W27526   1.313  13.848   1.527  0.2577  0.3645  0.1494
12058W        W27527   3.092  16.954  13.630  0.0264  0.1441 -0.0424
12059W        W27528  18.656   6.979  14.926  0.0921 -0.1655  0.2112
12060W        W27529   1.754  11.424   1.264  0.3039  0.0322 -0.1145
12061W        W27530  10.551  18.568  12.190 -0.0943  0.0991  0.0737
12062W        W27531   0.830   6.329   2.739 -0.1114 -0.2888 -0.0114
12063W        W27532  10.918   9.025   2.620 -0.2158 -0.0055  0.0751
12064W        W27533   9.989   5.649   0.370 -0.3823 -0.0268 -0.0465
12065W        W27534   6.035   1.125  15.421  0.3340  0.3346  0.2430
12066W        W27535  17.668  17.250   1.827 -0.2247 -0.3773 -0.0378
12067W        W27536  14.260   5.006  14.180  0.0701 -0.1631  0.0466
12068W        W27537  14.727  18.202   0.328 -0.1071 -0.0211  0.0222
12069W        W27538   0.669   0.055   2.209 -0.0383 -0.2400 -0.1938
12070W        W27539   2.836   4.187   3.091 -0.3643 -0.0854  0.1876
12071W        W27540  15.105   9.618  15.659 -0.2994 -0.1632 -0.1063
12072W        W27541  12.443  18.540  13.884  0.1490 -0.1339 -0.1345
12073W        W27542   4.374   7.377   1.399 -0.1876 -0.0901  0.1063
12074W        W27543  18.570   2.332  12.358 -0.2039  0.1353 -0.1756
12075W        W27544   1.653  17.063  14.788 -0.1640 -0.0149  0.6441
12076W        W27545  13.493  15.388  12.680 -0.0411 -0.1279 -0.0078
12077W        W27546  16.820   1.878   1.384 -0.1119 -0.0090  0.0233
12078W        W27547   7.650   5.251  12.528 -0.0656 -0.0699  0.0496
12079W        W27548   3.597   5.975  13.554 -0.2120 -0.0166 -0.1917
12080W        W27549   1.270  12.386  12.563  0.1711 -0.1477  0.0889
12081W        W27550  14.630  10.263  10.818 -0.0959 -0.3286 -0.1993
12082W        W27551  12.507   7.501  14.045  0.0440  0.2032  0.0160
12083W        W27552  11.185   1.147  10.970  0.2310 -0.1664  0.1366
12084W        W27553   8.837  18.469   1.038  0.1700  0.4657 -0.1560
12085W        W27554   7.969  11.866   4.629  0.1788 -0.2186 -0.0071
12086W        W27555   2.962   7.650   2.445 -0.1854 -0.0727 -0.0078
12087W        W27556   0.981   3.070  14.191  0.0434 -0.0905 -0.2117
12088W        W27557   9.998  11.442   5.812  0.1936 -0.0792 -0.1036
12089W        W27558   6.925  14.701   0.435  0.0048 -0.2161 -0.2043
12090W        W27559   4.652   2.127  11.102 -0.2048  0.1118  0.3246
12091W        W27560   6.636  14.188  12.824 -0.0984  0.1229  0.0736
12092W        W27561   0.271  15.600  12.242  0.4478 -0.1076 -0.0100
12093W        W27562  14.311  18.541  10.412  0.0095 -0.0324 -0.1277
12094W        W27563   8.891   7.896  15.218 -0.0393  0.0972 -0.1512
12095W        W27564   8.975  16.966   2.526 -0.3612  0.2381  0.0801
12096W        W27565  15.298   1.094   0.373 -0.3314  0.4597 -0.1202
12097W        W27566  17.760  13.260   5.160  0.3200 -0.1962 -0.0656
12098W        W27567   6.100   1.631  12.337 -0.0355  0.0297 -0.0763
12099W        W27568  16.074   1.652  10.445 -0.4402  0.3239  0.1931
12100W        W27569  10.112  16.069  13.706 -0.0895  0.1632 -0.2101
12101W        W27570  14.010   4.133   2.714 -0.1504 -0.2239 -0.1357
12102W        W27571  17.746  14.752   4.569 -0.1221 -0.0523  0.1402
12103W        W27572   5.140   2.585  12.393  0.0862 -0.0065  0.0388
12104W        W27573  17.169  11.388   5.249  0.0346 -0.2460  0.0674
12105W        W27574   3.136   2.684  15.152 -0.3013  0.2798 -0.0109
12106W        W27575  18.318  17.441   2.418  0.0186  0.1461  0.3823
12107W        W27576   8.790   8.781   4.072 -0.1828 -0.1111  0.0194
12108W        W27577   6.766   4.222   0.831 -0.1865 -0.1483  0.0114
12109W        W27578  15.292   4.602   3.934  0.4447  0.0133 -0.3151
12110W        W27579  15.257   3.965  13.893  0.0188 -0.2618  0.0614
12111W        W27580   0.965  15.205  15.456 -0.3987  0.0316  0.0359
12112W        W27581  16.417   8.132  10.943 -0.2398  0.1212  0.1455
12113W        W27582  10.021   2.852  12.600  0.0733  0.0912  0.1096
12114W        W27583   5.192  16.060   2.966  0.2107 -0.3385  0.4334
12115W        W27584  12.072  13.420   3.197  0.0458 -0.1868  0.1236
12116W        W27585   3.048   5.705   5.017 -0.0791  0.1030 -0.2043
12117W        W27586   6.052  18.497   0.822  0.0186 -0.0922  0.1329
12118W        W27587  11.116   2.730   1.037 -0.3179 -0.1281 -0.0174
12119W        W27588   6.315   5.975  14.241  0.1345  0.0490  0.1439
12120W        W27589   6.905   0.281  11.591  0.0802  0.2209 -0.0766
12121W        W27590  13.628   1.874  10.239  0.0533 -0.1456 -0.2227
12122W        W27591   0.138  10.892  12.361  0.0392  0.0415 -0.2141
12123W        W27592   3.863   5.627   2.415 -0.0231  0.0536  0.2693
12124W        W27593   1.410   6.373  15.701 -0.0316  0.0202 -0.1700
12125W        W27594  17.946  16.675  11.143  0.0525 -0.0601 -0.1488
12126W        W27595  11.648  11.122  14.223 -0.1917  0.0227  0.2070
12127W        W27596   9.571  17.745  11.601  0.3574  0.0031 -0.0175
12128W        W27597  14.392  17.085  13.960 -0.0234 -0.0194  0.0428
12129W        W27598  10.107   0.099  13.850  0.0866 -0.1322 -0.3226
12130W        W27599  10.374  12.364  12.388 -0.0467  0.2938 -0.0861
12131W        W27600  15.668  17.289   4.970 -0.2821  0.2206 -0.1818
12132W        W27601   3.985   7.601  12.181 -0.3181 -0.2072  0.2158
12133W        W27602   9.850  17.353   0.429  0.1447 -0.2122  0.1030
12134W        W27603  14.053   9.450  13.895  0.0684  0.0064 -0.2554
12135W        W27604  16.938   6.077  12.027  0.0833 -0.0697 -0.1882
12136W        W27605   5.106  17.029  11.957  0.1214  0.0572  0.0549
12137W        W27606   7.730   6.084  15.047  0.1479  0.0513  0.0394
12138W        W27607  18.152   9.410   0.912  0.1784  0.2373  0.1147
12139W        W27608   2.568  11.463  12.514  0.0551 -0.1175  0.1921
12140W        W27609   9.166  17.832   1.040  0.0087  0.1274 -0.0236
12141W        W27610  16.304  16.966  10.814 -0.0891  0.0699 -0.1910
12142W        W27611  16.805  14.843   2.776 -0.2328 -0.0636 -0.0025
12143W        W27612   5.361   3.277  10.424 -0.0515  0.1709 -0.2859
12144W        W27613  15.923  10.737   3.516 -0.0624 -0.0018 -0.1279
12145W        W27614  16.699  15.852   2.274  0.3700 -0.2238 -0.0524
12146W        W27615   2.296  18.070   0.351  0.1544  0.0218  0.1744
12147W        W27616  11.344  15.934  12.187  0.2606 -0.0659 -0.1642
12148W        W27617   0.142  13.281   5.072  0.0532  0.0218 -0.1438
12149W        W27618   6.780  14.539   1.820 -0.1333  0.0963 -0.1996
12150W        W27619   6.689   3.009   0.025 -0.0767 -0.0402  0.2421
12151W        W27620   3.389   8.438   3.279 -0.1924 -0.1691 -0.1059
12152W        W27621   5.223  17.697  11.365 -0.0885 -0.2841  0.2554
12153W        W27622  13.665  14.475   2.490  0.3339  0.1199  0.3340
12154W        W27623  16.962   3.904   1.302  0.0142  0.3812 -0.0359
12155W        W27624   8.387   4.247   5.106 -0.0611  0.0588 -0.2217
12156W        W27625   4.729   7.995   2.086 -0.1566 -0.2056  0.2452
12157W        W27626  14.141  17.015  13.061  0.1584  0.2597  0.0397
12158W        W27627  12.363   2.020  11.853  0.0410 -0.0101  0.1051
12159W        W27628   9.518   5.497  12.681 -0.1498 -0.0471  0.0378
12160W        W27629  13.654  14.601   5.010 -0.2400  0.1657  0.2857
12161W        W27630   8.627   1.387  10.324  0.2069 -0.0215  0.3790
12162W        W27631   1.336   4.330   3.619 -0.1870  0.1061 -0.1018
12163W        W27632   6.091  11.507   0.449 -0.0278 -0.1645 -0.0448
12164W        W27633   0.076  12.162   1.927 -0.3054 -0.3067 -0.2932
12165W        W27634   0.722   2.922   1.454  0.2427 -0.5506 -0.2389
12166W        W27635  15.981   1.184  15.488 -0.0697  0.2481 -0.2079
12167W        W27636  17.886   5.570  11.298  0.1990  0.1997  0.1976
12168W        W27637   5.509   5.352  13.996  0.2959 -0.1356 -0.0616
12169W        W27638   0.557   2.802  11.284  0.2754 -0.2953  0.0156
12170W        W27639  12.401   2.835   2.799  0.0902  0.1748 -0.3154
12171W        W27640   4.365   2.080  15.696 -0.0657 -0.3238  0.2666
12172W        W27641   1.166   7.623   0.859  0.1607  0.1090 -0.0839
12173W        W27642   1.563   7.753   4.729  0.0347  0.0852  0.2177
12174W        W27643  12.639  16.835  14.032 -0.0713  0.2435 -0.0308
12175W        W27644  15.254  16.348  15.489  0.0904 -0.2195 -0.3607
12176W        W27645   6.265  16.369   3.965  0.1128 -0.1618 -0.1182
12177W        W27646   7.230   0.773   3.810 -0.0433 -0.4121 -0.0770
12178W        W27647   4.725  18.628   5.011  0.1062 -0.0136  0.2308
12179W        W27648   9.212   9.587  13.308  0.0032 -0.0310  0.1962
12180W        W27649   8.850   3.188   5.350  0.0777  0.3268 -0.0685
12181W        W27650  14.722  13.922   4.254  0.2512  0.1533  0.0035
12182W        W27651   5.483  15.347  14.469  0.0195  0.2030  0.0324
12183W        W27652   4.982  17.893  13.062 -0.3264  0.1575  0.1248
12184W        W27653  12.090  10.906   1.068 -0.2419 -0.0752 -0.0261
12185W        W27654  11.085   9.132   3.937  0.1591  0.0647  0.1354
12186W        W27655   2.849  18.520  15.028 -0.1492  0.1694 -0.1124
12187W        W27656   8.738  17.022  10.955 -0.2443 -0.4117 -0.1277
12188W        W27657  13.284  13.347   9.884 -0.1065 -0.2541 -0.1971
12189W        W27658   2.410   4.033   3.946  0.2475  0.3271 -0.2301
12190W        W27659  10.246  12.587  11.061  0.2642  0.0129  0.1582
12191W        W27660  15.150   6.228   3.150 -0.0586  0.2351  0.2426
12192W        W27661  18.430   6.423   0.026 -0.0582  0.2806 -0.2103
12193W        W27662  18.176   3.296   0.795  0.1665 -0.1035 -0.2922
12194W        W27663   5.581  15.560  12.506  0.1912 -0.3426  0.1319
12195W        W27664   5.737   8.624  12.006  0.0183  0.1013  0.3355
12196W        W27665   2.893   0.364  12.736  0.0388 -0.1047 -0.1950
12197W        W27666  16.184   7.044  14.824  0.1928 -0.2699  0.1980
12198W        W27667   0.679   4.214  13.401 -0.0851 -0.0746 -0.1293
12199W        W27668   2.228  17.744  15.099  0.0753 -0.1136 -0.4075
12200W        W27669   3.069   9.410  15.687 -0.3552  0.0475 -0.0532
12201W        W27670   1.381   7.952  14.017 -0.1207 -0.0671 -0.0537
12202W        W27671  17.740   3.144   3.726 -0.1523  0.3636 -0.0823
12203W        W27672  16.950   8.308  13.790  0.0627  0.0345  0.0529
12204W        W27673  18.349  16.682  15.585  0.0852 -0.0537 -0.2423
12205W        W27674   7.762   9.991   1.953 -0.1361 -0.0541  0.2216
12206W        W27675  10.357  16.511   2.030 -0.1386 -0.0733 -0.2095
12207W        W27676   7.453  18.195   2.339  0.3853 -0.0114  0.2605
12208W        W27677   6.367  12.247   5.764  0.3089  0.1421  0.0563
12209W        W27678  13.490  11.464  15.049 -0.2625 -0.0259  0.1310
12210W        W27679  13.088  11.915   2.894  0.0432 -0.1043 -0.0064
12211W        W27680  16.454   3.834   2.794  0.3109  0.0155  0.0606
12212W        W27681   1.128   8.058   3.699 -0.3272  0.3158  0.1244
12213W        W27682   8.776  18.478   2.995  0.0600 -0.2380  0.0985
12214W        W27683   5.757  14.729  15.556  0.0687 -0.0886 -0.0797
12215W        W27684   4.534   7.440  10.763  0.3058  0.0106  0.2774
12216W        W27685   3.641  15.554   4.550  0.1281  0.1326  0.0457
12217W        W27686  13.123   2.117   1.325 -0.0718  0.4482 -0.1610
12218W        W27687  10.681  14.329   2.002  0.1003  0.4509 -0.2625
12219W        W27688   2.388   0.327   5.050 -0.1169 -0.0035  0.1246
12220W        W27689   0.948   2.044  13.671 -0.1155  0.4007 -0.1093
12221W        W27690   2.773  12.007   4.076 -0.0039  0.3668  0.1909
12222W        W27691   3.408  13.122   4.670 -0.0818 -0.0878 -0.1243
12223W        W27692   1.227   2.164   1.192 -0.0956  0.1124  0.1152
12224W        W27693  13.705   1.834  15.243  0.1101 -0.0076  0.4457
12225W        W27694   4.250   0.980   4.348 -0.0464 -0.2045 -0.1266
12226W        W27695   7.539  14.187   4.266 -0.0827 -0.0541 -0.1940
12227W        W27696   1.286   6.405   4.220 -0.0189 -0.1987 -0.2824
12228W        W27697  15.357   8.918   9.882  0.0893  0.0352  0.2474
12229W        W27698   0.232   0.895  14.276  0.1661 -0.1475 -0.0319
12230W        W27699  17.187  16.127   1.898  0.0134 -0.0091 -0.0762
12231W        W27700  15.233   5.583  11.297 -0.2809 -0.1473 -0.1768
12232W        W27701  12.922   6.690   2.892  0.3201  0.0072  0.2518
12233W        W27702   8.760  17.015   1.614 -0.3594  0.0470  0.0870
12234W        W27703   7.229  16.954  14.258  0.0159  0.0511 -0.0143
12235W        W27704  17.372  15.756  15.398  0.1501  0.0984 -0.4551
12236W        W27705   7.313   6.820  13.442 -0.2870  0.1561 -0.0858
12237W        W27706   1.624   9.951   4.001 -0.0833  0.0950  0.1421
12238W        W27707  16.198   4.655   2.309 -0.1501 -0.1134  0.0928
12239W        W27708   1.649  17.630   1.133  0.1144 -0.3773 -0.1578
12240W        W27709   4.893  16.261   0.706 -0.2794  0.1089 -0.0480
12241W        W27710   2.107  14.660  15.478  0.0660  0.1173  0.2019
12242W        W27711  10.601  13.253  11.662  0.0537  0.4784 -0.0158
12243W        W27712   0.703  10.023  15.509 -0.0132  0.0076  0.0473
12244W        W27713   8.764   3.151   4.096 -0.1529 -0.1312 -0.1564
12245W        W27714  10.294  11.806  10.567 -0.1245  0.1827 -0.1698
12246W        W27715  10.610   5.155   3.588  0.0101  0.1977 -0.1100
12247W        W27716  16.258  16.938  12.109  0.0740  0.2214  0.1115
12248W        W27717  17.926  12.723  12.496 -0.0036  0.0856 -0.6998
12249W        W27718   4.230   8.784   3.084  0.0760  0.3276  0.3060
12250W        W27719   0.544  14.253   0.691 -0.1656  0.3642  0.3758
12251W        W27720   0.195  11.522   4.777 -0.0741 -0.0030  0.2149
12252W        W27721   9.847   5.461   4.712  0.0020  0.1176 -0.2196
12253W        W27722   7.336   1.738   0.705  0.0490 -0.0459  0.2611
12254W        W27723   9.427   1.493   1.563 -0.0709  0.4783  0.3009
12255W        W27724  15.626   3.282  14.170 -0.2423  0.1650 -0.3136
12256W        W27725   5.059   0.121  13.383 -0.0083  0.1915  0.1791
12257W        W27726   9.197  14.543  13.684  0.0953 -0.0599  0.1127
12258W        W27727   8.597  14.835  14.201 -0.1149  0.0763  0.0059
12259W        W27728   7.055   8.578   1.925 -0.2219  0.1777 -0.2035
12260W        W27729  17.198  14.966   1.442  0.1012 -0.1247 -0.4465
12261W        W27730   7.092  17.888   3.152  0.0998  0.1227  0.1740
12262W        W27731  13.842   0.563   0.160  0.1096 -0.0708  0.2459
12263W        W27732  13.883   0.895  14.761 -0.0354 -0.2544  0.0700
12264W        W27733  14.357   0.960   1.844  0.1799  0.1496 -0.2382
12265W        W27734   7.428   3.031  11.750  0.2331 -0.4257  0.2936
12266W        W27735   2.270  17.407   4.410 -0.0099 -0.0310 -0.1176
12267W        W27736   5.716   8.994  13.846  0.2743 -0.0743  0.2151
12268W        W27737   1.132  14.417   3.834  0.0374  0.1456 -0.0186
12269W        W27738   3.288   4.510  12.387 -0.1549 -0.2205  0.1949
12270W        W27739  16.969  12.192  11.847  0.0838  0.0107  0.0479
12271W        W27740   4.818  12.239  12.320 -0.0941 -0.1828  0.1515
12272W        W27741   3.335   1.318   3.274  0.1023 -0.0470  0.4019
12273W        W27742   8.451  10.329  14.294  0.1792 -0.0958  0.1854
12274W        W27743  12.848  12.531   0.342 -0.1495 -0.1308 -0.0404
12275W        W27744   3.275  15.742  15.008  0.0649 -0.0382  0.0115
12276W        W27745   7.490  16.172   1.118 -0.0402  0.0832 -0.1949
12277W        W27746   6.698  17.969  11.643 -0.0686 -0.0149  0.3231
12278W        W27747   7.835  14.947   3.496 -0.2462 -0.0244 -0.1816
12279W        W27748   7.624   7.222  12.442 -0.1105 -0.2752  0.0168
12280W        W27749   4.369  14.580   2.093  0.2919 -0.4524  0.0901
12281W        W27750   9.732  16.648   4.825 -0.1899  0.1408 -0.4731
12282W        W27751   3.057   5.705  14.566 -0.0812  0.3468 -0.0276
12283W        W27752  10.602  13.507   2.589  0.0169 -0.3308  0.1781
12284W        W27753  15.936  18.012  15.370  0.2065  0.1741  0.0332
12285W        W27754  16.825  11.459   2.416  0.0529 -0.1955  0.1012
12286W        W27755  11.870  11.490   0.169 -0.1215  0.2582  0.1256
12287W        W27756  13.583   1.127   3.759 -0.4137  0.1090 -0.0044
12288W        W27757   5.887   6.526  12.477  0.2230 -0.3970  0.0928
12289W        W27758   5.351  17.300   4.112 -0.0400 -0.1675 -0.1635
12290W        W27759   1.684  16.867  15.319 -0.1267 -0.3478 -0.3386
12291W        W27760  11.006   7.828  11.154 -0.0434 -0.2376 -0.1838
12292W        W27761   1.785   9.117  14.696 -0.3984 -0.1523 -0.2459
12293W        W27762   1.657   7.413   0.594  0.5127  0.1003 -0.1815
12294W        W27763  11.298  12.157  14.419  0.1518 -0.1489  0.0775
12295W        W27764  13.633   5.049  14.848 -0.2887 -0.1018 -0.2251
12296W        W27765   6.624   6.454  13.501 -0.0848  0.0383 -0.0698
12297W        W27766   7.565   4.226   3.993  0.0929 -0.0238  0.3511
12298W        W27767   4.585   0.783  10.593  0.2534  0.1014  0.1647
12299W        W27768  11.636  13.706   3.175  0.2203 -0.0654 -0.1076
12300W        W27769  13.521  15.974  14.530 -0.0095 -0.2195 -0.1369
12301W        W27770   7.161  17.699  13.766  0.0780 -0.2105  0.1312
12302W        W27771   8.942  11.066  12.787  0.1401  0.1576  0.0084
12303W        W27772  18.637   0.713  13.267  0.2954 -0.0409  0.1193
12304W        W27773   0.912   9.337   2.303 -0.1925 -0.3105 -0.1283
12305W        W27774   2.622   7.099   5.007  0.0120 -0.1695 -0.1654
12306W        W27775   2.458   4.620   4.716 -0.0848 -0.0396 -0.1096
12307W        W27776  13.426  18.420  14.238  0.1716  0.3206  0.2770
12308W        W27777  18.180  18.500  14.242  0.1196  0.2468 -0.3052
12309W        W27778   6.665   4.854   1.767 -0.0884 -0.0101 -0.2148
12310W        W27779   7.744   9.096  11.217  0.2394 -0.0783 -0.1428
12311W        W27780  11.085   2.200   1.652  0.2853 -0.0441 -0.1895
12312W        W27781   6.551   7.342   2.631 -0.1358  0.0458  0.0862
12313W        W27782   6.044   4.990   1.077 -0.0035 -0.0598  0.1808
12314W        W27783   4.557   2.093  13.081  0.1347  0.1213  0.3780
12315W        W27784   4.893   9.479   2.611  0.1003  0.1840 -0.2670
12316W        W27785   4.826  13.658  15.703  0.0674  0.2898  0.2137
12317W        W27786  15.270   6.779  14.788 -0.0728 -0.1965 -0.3033
12318W        W27787  15.250   1.931   1.824  0.0681 -0.2404  0.2130
12319W        W27788  11.653  10.813   1.892 -0.1311  0.0673  0.0137
12320W        W27789   2.675  16.054   0.030 -0.0488 -0.3498 -0.0119
12321W        W27790  15.337   2.347  10.337 -0.3837 -0.0445 -0.3035
12322W        W27791  15.699   9.200  11.933 -0.0487 -0.1644  0.2151
12323W        W27792  17.592  13.652  11.349 -0.2297 -0.2542 -0.0885
12324W        W27793   3.360   6.808   2.114  0.4895 -0.0115 -0.1190
12325W        W27794  15.440   8.054  12.549  0.0327  0.0189  0.0435
12326W        W27795  11.304   5.936  15.641 -0.0305  0.0938  0.3877
12327W        W27796  18.365   5.633   2.033  0.0785 -0.0967 -0.3145
12328W        W27797  13.630   7.779  13.644  0.2431  0.0442 -0.3725
12329W        W27798   2.493  12.387  15.117 -0.4437  0.0009  0.0222
12330W        W27799   9.816  16.953   5.216 -0.1118  0.0872 -0.1752
12331W        W27800   8.598   1.668  12.756 -0.1764  0.0809  0.4566
12332W        W27801   1.855  17.989   2.432 -0.0331 -0.0512  0.3838
12333W        W27802  10.288   5.075   3.097 -0.2339 -0.1773 -0.1904
12334W        W27803  10.355   2.335   2.292 -0.0796  0.0052  0.3040
12335W        W27804   0.181   7.213   3.569  0.0474 -0.2146 -0.1583
12336W        W27805  17.897   0.155   3.071 -0.0823 -0.0600  0.1642
12337W        W27806   4.838   3.014  10.563  0.1334  0.3206 -0.0090
12338W        W27807  11.546   4.253  14.799 -0.0721  0.3075 -0.2897
12339W        W27808   9.478  15.299   5.968 -0.1859  0.2748 -0.0954
12340W        W27809   3.726   2.310  11.840  0.0867 -0.2714 -0.0171
12341W        W27810  11.836   6.341  10.404  0.2248  0.0116  0.3913
12342W        W27811   6.666  11.225   0.769 -0.3285  0.0485 -0.0602
12343W        W27812   2.440  13.339   1.450 -0.1283 -0.0051  0.3023
12344W        W27813   5.695   1.470  10.440 -0.1520 -0.4502 -0.4387
12345W        W27814   0.589   2.422  12.649  0.1928 -0.1429  0.5144
12346W        W27815  12.316  14.964   1.182  0.0792 -0.4716  0.1826
12347W        W27816  11.566  10.585   3.942  0.3419 -0.1126 -0.4455
12348W        W27817   2.265  12.302   0.407  0.0004  0.0246  0.1858
12349W        W27818   9.711   2.719  11.287 -0.0633  0.2663 -0.2086
12350W        W27819   7.610   3.751   1.082 -0.3460  0.1410 -0.0724
12351W        W27820   7.094   2.620   4.541 -0.0811 -0.2496  0.0630
12352W        W27821  18.026  11.313  11.310 -0.0261  0.0678 -0.0062
12353W        W27822   8.042   2.259   4.451  0.0159 -0.0492 -0.5138
12354W        W27823   4.969   5.607   0.763  0.0626  0.1403 -0.1112
12355W        W27824  15.142  17.227   4.806  0.0501  0.1689  0.0665
12356W        W27825   9.249  13.342  15.455  0.3059  0.0968  0.1940
12357W        W27826   9.097   9.629   1.515 -0.0576 -0.1502  0.1213
12358W        W27827   8.207  11.594   1.350  0.0622 -0.1020  0.1011
12359W        W27828  16.118   1.679   4.934  0.2246  0.2465  0.1841
12360W        W27829  14.595   0.956  10.511 -0.1820  0.0357 -0.2161
12361W        W27830  16.366   0.485  15.110 -0.2055  0.2948  0.1785
12362W        W27831   5.687   1.268   0.259 -0.2061 -0.0387 -0.2247
12363W        W27832  15.773   5.343   0.142 -0.3194 -0.2073 -0.2198
12364W        W27833   1.828   0.308   3.071 -0.1684 -0.2077  0.0771
12365W        W27834   9.307  18.083  13.397  0.0377 -0.0715 -0.0348
12366W        W27835   6.976  12.537  15.337 -0.0137  0.1379 -0.2053
12367W        W27836   9.384  11.671   3.123 -0.0565  0.3267  0.0666
12368W        W27837  17.039   7.693  12.472 -0.0030 -0.2601 -0.5361
12369W        W27838   0.478  16.053  11.010  0.0867  0.1690 -0.0047
12370W        W27839  11.520   0.746   1.858  0.3085 -0.0172 -0.4297
12371W        W27840   1.879   0.301  11.042  0.5937  0.1241 -0.3890
12372W        W27841   5.030  17.760  12.214 -0.2172 -0.0297 -0.2467
12373W        W27842   8.567  14.893  12.004  0.1417 -0.0684  0.0458
12374W        W27843  14.175   8.038  11.607  0.2660 -0.1164  0.0569
12375W        W27844   9.197  11.833   3.737  0.0217 -0.2162  0.0157
12376W        W27845   6.539   0.349   1.692 -0.0115  0.1692  0.0757
12377W        W27846  10.754  12.828  12.048 -0.3005 -0.0996 -0.0813
12378W        W27847  17.472  15.602  14.426 -0.1752  0.0739  0.3081
12379W        W27848   7.965  12.449  11.691 -0.0760  0.0938 -0.3236
12380W        W27849  16.184   7.983   4.777  0.3553 -0.1737 -0.2228
12381W        W27850   1.111   4.230   2.407 -0.2717 -0.1836  0.2744
12382W        W27851   8.460   1.475  10.783  0.3109 -0.0433  0.2359
12383W        W27852  18.022  15.785  15.466 -0.0429  0.1281 -0.1480
12384W        W27853   8.675   6.568  13.204 -0.1168  0.3733  0.1361
12385W        W27854   7.067   9.031  10.046  0.0457 -0.1034  0.1279
12386W        W27855   1.258   2.165   4.956  0.1673  0.1990  0.3324
12387W        W27856  16.550   1.726  10.790 -0.2615  0.2161 -0.0263
12388W        W27857  11.863  13.835   0.639  0.1519  0.1990  0.2162
12389W        W27858   1.263  10.636   0.357  0.1474  0.0599  0.1244
12390W        W27859   6.535  13.279  15.684  0.0457 -0.1980 -0.0282
12391W        W27860  16.166   0.612  13.353  0.2880 -0.3009  0.0979
12392W        W27861  10.643   8.027   3.324  0.1098  0.0658  0.1585
12393W        W27862  11.505  15.397  12.913 -0.1815 -0.0382  0.3347
12394W        W27863  14.422   2.809  10.484 -0.0752  0.1684  0.1255
12395W        W27864   7.508  10.625   3.293 -0.1204 -0.0003  0.0542
12396W        W27865   0.758   7.300   4.838  0.0700  0.1106 -0.0125
12397W        W27866   0.028  10.967   5.888 -0.0443  0.2165 -0.3357
12398W        W27867   4.165   5.450   3.856  0.0384 -0.1300  0.5182
12399W        W27868   0.604  13.856   1.999 -0.0515  0.1373  0.1296
12400W        W27869  16.205  15.309   2.769  0.1742 -0.1408  0.2136
12401W        W27870  18.028   6.748  12.464 -0.0150 -0.3881  0.1202
12402W        W27871  14.435   0.762   0.078 -0.3355 -0.1333 -0.2881
12403W        W27872   3.766  15.345   0.105  0.0064  0.0355 -0.1580
12404W        W27873  11.031   9.551   4.107  0.1068 -0.0357 -0.1832
12405W        W27874   0.130  17.016  15.730  0.0338 -0.0195 -0.1016
12406W        W27875  17.418  10.846  14.560 -0.3755 -0.0531 -0.0424
12407W        W27876   5.992   4.565   9.500 -0.0764 -0.0593  0.2607
12408W        W27877   5.340  12.036  13.992  0.1540  0.0120  0.1840
12409W        W27878   0.721  16.935  11.961 -0.1417 -0.0750 -0.1578
12410W        W27879  13.056   0.502   3.679  0.0801  0.0153  0.1657
12411W        W27880   0.486   5.161   2.495  0.0334 -0.1784  0.1074
12412W        W27881  12.298   8.936   3.096 -0.1056 -0.1435 -0.0036
12413W        W27882   1.529   6.278  12.491  0.0924  0.1903  0.3437
12414W        W27883  17.027   8.764   2.977  0.1776  0.3448  0.1238
12415W        W27884   2.894  11.956  13.943 -0.6041  0.0418  0.0340
12416W        W27885  13.022  18.652   1.190  0.1201 -0.1635  0.0686
12417W        W27886  13.292   5.402   1.380  0.1472 -0.0800 -0.1802
12418W        W27887   8.595   1.279  11.776  0.0275 -0.2073 -0.0892
12419W        W27888  16.549   8.263   1.177  0.0168 -0.0494 -0.0372
12420W        W27889   4.406  10.408   1.954 -0.2181  0.0315  0.1928
12421W        W27890   4.807   4.177   2.878 -0.3725 -0.2931  0.2262
12422W        W27891   4.061  10.930  12.005  0.1113  0.1436  0.2425
12423W        W27892   8.323  16.858   2.722 -0.3071  0.0162  0.0063
12424W        W27893   1.463   0.316  11.318 -0.1003 -0.3612  0.0468
12425W        W27894  13.545  15.688  14.966 -0.0372 -0.2133  0.1385
12426W        W27895   1.488  10.409   6.070 -0.0757  0.0946 -0.0673
12427W        W27896   6.763  16.855   4.753 -0.2978  0.2250  0.5102
12428W        W27897  12.643   8.484  12.857 -0.0276  0.2409  0.0180
12429W        W27898  13.678  10.893   4.263 -0.1637 -0.1713 -0.0549
12430W        W27899  13.645  15.247  11.671 -0.0593  0.0208  0.0763
12431W        W27900   5.236  17.390   2.101  0.1676 -0.0134 -0.1400
12432W        W27901  13.693   7.070  14.046 -0.1251 -0.1313  0.0975
12433W        W27902   4.658  16.434  15.552  0.2290  0.3511  0.0980
12434W        W27903  15.641  16.798   4.089  0.0023  0.0906  0.1494
12435W        W27904   6.728   1.009   6.137 -0.1305  0.0462 -0.0195
12436W        W27905  13.319  15.648  14.115 -0.3165 -0.1229 -0.0714
12437W        W27906   4.632   3.118   1.204  0.0347  0.1661 -0.1174
12438W        W27907   0.735   3.874   2.256  0.2427  0.1594  0.0817
12439W        W27908  12.563  10.612   3.965  0.2146  0.3773 -0.1539
12440W        W27909   0.260   2.078   0.568 -0.1475 -0.0616  0.0851
12441W        W27910   7.622   0.395   5.118  0.0218  0.1429  0.0585
12442W        W27911   0.463   3.032   1.007  0.1742 -0.1372  0.0437
12443W        W27912   4.659   0.215  14.314 -0.0149 -0.2095 -0.4065
12444W        W27913   4.729  17.802  12.613 -0.1785 -0.0213  0.3659
12445W        W27914   8.837  11.462   4.512  0.0592 -0.2922  0.0817
12446W        W27915   1.844  12.551   3.201 -0.2193  0.1351 -0.0998
12447W        W27916   1.321   0.673   0.881 -0.0296 -0.6210 -0.0474
12448W        W27917   2.781  18.091  12.048 -0.0189 -0.0776 -0.1162
12449W        W27918  16.003  18.578  14.452 -0.5712  0.3674  0.0550
12450W        W27919  13.890   9.988   5.706  0.0952  0.3593 -0.0691
12451W        W27920   8.270  12.937  11.937 -0.0384 -0.0882  0.1236
12452W        W27921   5.479   6.124   4.800  0.2296  0.2213  0.2754
12453W        W27922  13.191  11.244  10.526 -0.0079 -0.1622 -0.1496
12454W        W27923  15.638   2.387   0.825  0.3148  0.3927 -0.0571
12455W        W27924   2.462   2.404   2.679  0.1263  0.1552  0.0169
12456W        W27925  17.476  12.016  12.600  0.0412 -0.0262 -0.2190
12457W        W27926   2.707  17.572   2.249  0.0319  0.4627 -0.1278
12458W        W27927   9.151  12.556   0.953 -0.2917 -0.1366  0.1903
12459W        W27928   4.907   5.351   1.398 -0.2007 -0.0736 -0.0241
12460W        W27929  13.429   9.938  11.165 -0.2106 -0.0695  0.0753
12461W        W27930   9.142  12.870   0.100  0.1049  0.2371  0.2100
12462W        W27931  14.534   7.997  11.914 -0.2203 -0.3042 -0.2854
12463W        W27932  17.799  12.552  12.948  0.0416 -0.1191  0.1136
12464W        W27933   5.909  12.809   3.809 -0.1493  0.0723  0.0739
12465W        W27934  13.318  11.052  13.123 -0.1386  0.0334 -0.1400
12466W        W27935  15.480  10.773   1.639 -0.0348 -0.1412  0.0365
12467W        W27936  18.503  17.982  13.132 -0.2903  0.2177 -0.3422
12468W        W27937  18.371   8.646   1.379  0.1416 -0.3452 -0.2447
12469W        W27938  11.654   6.943  12.439 -0.0566  0.0242 -0.0509
12470W        W27939  11.782   8.579   0.318  0.0501 -0.0829 -0.1566
12471W        W27940   3.459   4.123   2.448 -0.0284 -0.1110  0.2162
12472W        W27941   7.613  18.495   9.810 -0.2773 -0.1074 -0.0934
12473W        W27942  18.234  13.889   3.493  0.0522 -0.1976 -0.0026
12474W        W27943   9.321   1.547  11.365 -0.0593  0.0184 -0.1983
12475W        W27944   4.355  13.381   0.096  0.1022 -0.0986 -0.0493
12476W        W27945  17.200   7.009   1.327 -0.0234 -0.0148 -0.1660
12477W        W27946  18.145  10.604   4.151 -0.0025 -0.1636 -0.1698
12478W        W27947   5.830  18.074   0.183  0.2051 -0.2256  0.0412
12479W        W27948   3.714  15.263  12.993  0.1032 -0.1381  0.1517
12480W        W27949  13.612   0.407  13.342 -0.1453 -0.1584  0.0302
12481W        W27950  12.760   3.853   4.742 -0.2418 -0.0381 -0.2725
12482W        W27951   3.367  14.534   5.400  0.2996  0.1967 -0.0103
12483W        W27952  10.281   9.507   0.394  0.0877  0.1575  0.5751
12484W        W27953   3.393  12.136   0.612 -0.0755  0.1668  0.1732
12485W        W27954   7.702  10.304   1.561 -0.0203  0.4431  0.1139
12486W        W27955   6.635  16.604   9.769 -0.0155 -0.2370  0.0107
12487W        W27956   6.652   9.469  15.305 -0.0425 -0.1408 -0.1206
12488W        W27957  11.767  11.373  14.866 -0.0772 -0.0318  0.1967
12489W        W27958   7.878   6.876   0.868  0.0230  0.4618 -0.0284
12490W        W27959  11.557   5.549  11.947  0.3333  0.1959 -0.0133
12491W        W27960   8.952  14.381  10.425  0.1365  0.1510 -0.1528
12492W        W27961   3.676   4.212  10.525  0.0244  0.2938 -0.0580
12493W        W27962  10.279   1.442   4.263  0.1274 -0.2148 -0.1900
12494W        W27963  16.963   1.790   5.778 -0.0333 -0.2251  0.1657
12495W        W27964   5.120   0.165  15.231 -0.2943  0.1425  0.0593
12496W        W27965  18.010   9.770   0.057 -0.0235 -0.0723  0.0162
12497W        W27966  11.370  14.616  11.682  0.2578  0.0283  0.2317
12498W        W27967  16.924  11.757  13.974 -0.0618 -0.0914  0.0104
12499W        W27968   4.770   1.382  14.287 -0.1438 -0.1241 -0.0770
12500W        W27969  13.495  13.037   0.134  0.2102  0.3903  0.1667
12501W        W27970  10.476   8.880   4.204 -0.3754  0.1020 -0.0076
12502W        W27971   2.716   5.356   3.778 -0.1378 -0.1685  0.1897
12503W        W27972   9.376  10.645   4.228 -0.2955 -0.2695 -0.1306
12504W        W27973  11.754   7.555  10.139 -0.0765  0.0775  0.0794
12505W        W27974  17.829  17.145  14.590 -0.1611 -0.0294 -0.1606
12506W        W27975   9.876   1.372   0.045  0.2098 -0.2604  0.2094
12507W        W27976   9.356   3.018  13.170  0.0062 -0.0843 -0.0368
12508W        W27977  13.376  17.414  12.846 -0.0907  0.0604  0.1459
12509W        W27978  17.210   3.493  12.100  0.2219 -0.3264  0.2347
12510W        W27979   5.238   5.075   4.847 -0.0198  0.2283  0.2930
12511W        W27980  11.721  11.148  15.601 -0.1406  0.0347  0.1965
12512W        W27981  14.945  16.163  13.956 -0.0924 -0.1331 -0.0396
12513W        W27982   7.128   7.890  11.095 -0.2511  0.2200  0.0563
12514W        W27983   3.705  10.084   2.515 -0.2061 -0.0463 -0.1281
12515W        W27984  11.534   8.134   2.789  0.1176 -0.0341  0.0124
12516W        W27985   0.486  17.948   2.005 -0.0694  0.2371 -0.0285
12517W        W27986   7.838  15.516   5.740 -0.1090 -0.1410  0.0944
12518W        W27987  11.528  17.912  12.267  0.2882  0.2642  0.0309
12519W        W27988   9.920   6.451  13.231  0.4016  0.0912 -0.3439
12520W        W27989   6.782   1.211  10.370  0.3775 -0.0188 -0.0095
12521W        W27990   5.559  11.951   2.774  0.0368  0.1369  0.0878
12522W        W27991   2.783  15.000   4.691 -0.1172  0.1455 -0.0587
12523W        W27992   0.641   1.139  11.925 -0.3040  0.0724 -0.0954
12524W        W27993  18.583  15.114   1.061  0.0326  0.3168  0.0962
12525W        W27994   0.552   9.698   5.249 -0.0491 -0.1190 -0.1512
12526W        W27995   0.057   2.765  10.475 -0.0836 -0.1163 -0.2392
12527W        W27996  13.170   0.861  11.313  0.4083 -0.2600 -0.0802
12528W        W27997   6.275  14.339   1.090 -0.3433  0.2339  0.1524
12529W        W27998  15.515   7.034   2.629 -0.0721 -0.3031 -0.0377
12530W        W27999  16.932   8.900   0.221  0.2108 -0.2659  0.0767
12531W        W28000  18.246  12.131  13.281  0.1996  0.4299 -0.1003
12532W        W28001   1.184  15.846  12.108  0.1332  0.1275  0.0405
12533W        W28002  15.364   6.095  12.936  0.1676  0.0098 -0.2497
12534W        W28003   5.408  10.419  14.760  0.2755  0.1275 -0.1348
12535W        W28004   5.223  11.879   3.253 -0.0603  0.2266  0.0504
12536W        W28005   5.150  14.760   4.167  0.1549 -0.2298  0.3227
12537W        W28006   5.182   0.627   1.163  0.3560  0.2283  0.2661
12538W        W28007   4.551   3.896  15.743  0.2117  0.0965 -0.2068
12539W        W28008   5.784   3.046   0.130  0.2756 -0.0989 -0.0678
12540W        W28009  16.912   8.128  10.072  0.0880  0.2485  0.0187
12541W        W28010  13.203  10.838  10.894  0.2536  0.2971  0.1115
12542W        W28011  15.279  12.794   2.700  0.3712  0.2558  0.0411
12543W        W28012  17.772  18.474  14.624 -0.0322 -0.1283  0.6668
12544W        W28013   0.414   8.193   2.063 -0.3267 -0.0509  0.2531
12545W        W28014   8.299  15.767  13.465  0.0674 -0.6336  0.1883
12546W        W28015  16.566  11.628   1.091 -0.2810 -0.2770  0.1093
12547W        W28016  13.509   8.066   0.459  0.0172 -0.1470 -0.0550
12548W        W28017   1.745  13.204   4.717 -0.0185  0.2119 -0.0763
12549W        W28018  16.865   5.781   1.055  0.1852  0.0308  0.0331
12550W        W28019  16.114   7.535   4.949  0.0408  0.0861 -0.0312
12551W        W28020  14.658  10.749  14.695 -0.1754 -0.0998 -0.2306
12552W        W28021  10.338  15.991   4.776 -0.2814 -0.3445  0.0822
12553W        W28022   5.796   1.381  12.673  0.2230 -0.4211  0.0891
12554W        W28023   7.991  14.809   1.172  0.1556 -0.2136  0.2963
12555W        W28024   2.390  11.023   2.480 -0.0095 -0.2188 -0.1143
12556W        W28025  17.250   3.422   0.653 -0.1516  0.1801  0.1394
12557W        W28026  15.354   8.939  14.378 -0.2217 -0.0136 -0.1359
12558W        W28027   8.275  17.640  12.829 -0.5231 -0.4339 -0.2150
12559W        W28028  10.913   4.524  11.125 -0.0771 -0.0413 -0.1221
12560W        W28029   6.061   8.908  14.737 -0.0626 -0.0855  0.0424
12561W        W28030   9.090  17.425   4.638 -0.2704 -0.1159  0.1908
12562W        W28031   4.509  14.140  13.195  0.0461  0.1153  0.1725
12563W        W28032   9.297   0.786   2.936  0.0707  0.0573 -0.3215
12564W        W28033   4.400   0.353   5.400  0.2428  0.0127  0.3009
12565W        W28034   2.302  14.537  10.918 -0.1673  0.3896 -0.1499
12566W        W28035   9.022   1.901  12.558  0.0173  0.2947  0.2209
12567W        W28036  16.431   2.162   1.196  0.1249  0.0053 -0.0593
12568W        W28037  14.595  17.705  12.651  0.0416 -0.1590  0.1023
12569W        W28038  16.760  12.314  13.367 -0.0771  0.4078  0.0199
12570W        W28039  13.532   9.209   2.268  0.2674 -0.0875  0.0153
12571W        W28040   3.842   1.254   3.510 -0.0926 -0.3963  0.1939
12572W        W28041  11.961  17.185   5.384  0.3252  0.1259  0.1764
12573W        W28042  15.406   0.534  13.555 -0.1468  0.2192  0.2796
12574W        W28043  11.215  18.126   1.617 -0.4555 -0.1057 -0.0940
12575W        W28044   8.287   3.575   3.836  0.3618  0.0099 -0.0231
12576W        W28045  13.777   5.088   6.088 -0.4213  0.2271  0.2632
12577W        W28046   5.024  17.431  13.889 -0.2922 -0.0002  0.0078
12578W        W28047  14.792  11.259  15.629  0.1281  0.4918  0.1250
12579W        W28048  15.841   7.418  13.024  0.0106 -0.0460 -0.2114
12580W        W28049   0.554  10.745   3.408 -0.2145  0.1512 -0.1962
12581W        W28050   2.544  12.320  12.121 -0.1520 -0.2193  0.2544
12582W        W28051   0.255  17.249   3.240  0.0691 -0.1984  0.0238
12583W        W28052  11.852   2.897  11.285 -0.1970 -0.3014  0.0897
12584W        W28053   5.643   6.088  13.801 -0.0651 -0.2024 -0.0538
12585W        W28054   8.973   0.373  14.461 -0.0746  0.4077  0.1705
12586W        W28055  14.125   2.096  12.139  0.3076 -0.0722 -0.0026
12587W        W28056  14.263   0.111   2.018 -0.0425 -0.0630  0.0255
12588W        W28057  11.206   2.258  12.258 -0.0575 -0.1013  0.2408
12589W        W28058   0.515   4.695   2.690  0.2423 -0.0222 -0.2146
12590W        W28059   7.132   3.530  10.406 -0.1136  0.0699  0.1318
12591W        W28060  18.327  15.523   4.697 -0.1786 -0.1044  0.1238
12592W        W28061  14.783  15.825   6.017  0.2142  0.1778 -0.0615
12593W        W28062  12.776  14.080   4.948 -0.1410  0.1878 -0.1558
12594W        W28063   8.513   5.370   2.975 -0.1914 -0.0191  0.0390
12595W        W28064  13.896  10.894  14.261  0.2977 -0.0178 -0.1164
12596W        W28065  17.207   6.669   2.336 -0.0370 -0.1185 -0.0010
12597W        W28066  12.592  17.973  10.945 -0.0723 -0.1916 -0.0067
12598W        W28067   4.242  13.255  14.162 -0.1733  0.0608 -0.0444
12599W        W28068   8.054  14.523  10.690  0.2752  0.0556 -0.1314
12600W        W28069  12.836   9.286   4.419  0.0858 -0.1643  0.0504
12601W        W28070   4.706   4.031  10.716 -0.0284  0.0763 -0.2559
12602W        W28071   2.501  15.802  10.733 -0.1023 -0.2241 -0.1571
12603W        W28072   6.635   1.585  11.107  0.1794 -0.0534 -0.2345
12604W        W28073  14.537   0.497  10.931 -0.0353  0.0698  0.3347
12605W        W28074  12.410  18.294  13.376 -0.0731 -0.2198 -0.0247
12606W        W28075  17.238  16.725  15.502  0.1399 -0.2696 -0.0817
12607W        W28076   2.546  13.657   1.087  0.2017  0.1177 -0.0575
12608W        W28077   2.427  10.733   4.581 -0.0331 -0.1336 -0.2860
12609W        W28078   9.858   0.993   2.790 -0.0379  0.1043  0.1766
12610W        W28079   3.486   0.833  14.070 -0.0964 -0.0012 -0.3299
12611W        W28080  15.427   9.718  15.149  0.0462  0.2964 -0.1098
12612W        W28081   6.309   4.045  14.746  0.0584 -0.0044 -0.2001
12613W        W28082   4.745  10.127   1.236 -0.1319 -0.0195  0.1112
12614W        W28083  13.037  15.059  13.235 -0.2571 -0.2319  0.0787
12615W        W28084  12.560   0.514   1.575  0.0251  0.1844 -0.2711
12616W        W28085   9.361   9.557   0.516  0.0885  0.0979 -0.0102
12617W        W28086  18.207  12.964   4.419  0.0618  0.0232  0.0574
12618W        W28087   8.854  11.765   4.100  0.4475 -0.1187  0.0959
12619W        W28088   4.678   2.979  11.760  0.0329  0.0763 -0.0431
12620W        W28089  12.820   3.427   5.116 -0.1804  0.0085  0.0869
12621W        W28090   4.240   3.442  13.518  0.0151 -0.0171 -0.0895
12622W        W28091   7.959   9.462  11.983 -0.0416  0.1428  0.3079
12623W        W28092  15.500  13.175   3.398 -0.0075 -0.2164 -0.0597
12624W        W28093   1.140  16.247   2.388  0.2051  0.1142  0.0075
12625W        W28094  18.110   6.662   2.169 -0.0824 -0.1579  0.1404
12626W        W28095  17.095  11.764   2.805  0.0789 -0.2472 -0.1797
12627W        W28096   4.518   6.848  11.431  0.0924 -0.0846 -0.1262
12628W        W28097  17.689   9.002  10.019  0.1245  0.1841  0.2707
12629W        W28098  10.096  13.089  12.414  0.2721  0.0595  0.3524
12630W        W28099  18.230  12.227   1.383 -0.0275  0.1048 -0.0511
12631W        W28100  12.456   6.106  13.980  0.0041 -0.5173 -0.1077
12632W        W28101   7.195  16.813  12.602  0.0747  0.1164 -0.1753
12633W        W28102   0.188   8.481  13.417 -0.2141  0.1807  0.0808
12634W        W28103  12.659  15.058  11.340 -0.2200 -0.0556 -0.3120
12635W        W28104  17.581  13.022  12.749  0.3639  0.5603  0.0045
12636W        W28105   1.905  10.771  15.321  0.1930 -0.1518 -0.2255
12637W        W28106  14.047  18.326  11.477 -0.1280  0.2150  0.0237
12638W        W28107  17.666  12.617   1.374 -0.2504  0.2288  0.1103
12639W        W28108  15.986  15.838   4.418  0.0571 -0.4896  0.0335
12640W        W28109   3.369  17.193   3.419  0.0286 -0.1768  0.1445
12641W        W28110   0.962   4.765   5.285 -0.1497  0.1130 -0.0403
12642W        W28111  16.692   8.834   3.726 -0.0124  0.0184  0.2415
12643W        W28112   0.200   6.005   5.048  0.0750  0.2060  0.0391
12644W        W28113   2.275  15.174  14.590  0.0132  0.1245  0.0429
12645W        W28114  14.574  16.498   0.767  0.0859 -0.2218  0.1792
12646W        W28115  13.104  12.389   3.462 -0.0115 -0.0326  0.1638
12647W        W28116   2.761  15.344  12.156 -0.1647 -0.0627  0.1016
12648W        W28117   2.276   1.658  13.880 -0.0310  0.0093 -0.0077
12649W        W28118   2.378   9.519   1.408 -0.1643 -0.1773  0.0454
12650W        W28119   9.930   9.847   4.460  0.0367  0.2574 -0.0670
12651W        W28120  11.763   1.336  12.713  0.1942 -0.0507  0.1292
12652W        W28121   7.549  18.442  15.280 -0.3014  0.0740  0.3352
12653W        W28122  14.399   9.065  14.271  0.0472  0.1598 -0.1505
12654W        W28123   4.636  15.491  11.925  0.1286 -0.3445 -0.0111
12655W        W28124   6.118  12.117  10.516 -0.0621  0.1303 -0.1568
12656W        W28125  17.619   5.078  14.157 -0.0804 -0.2137 -0.1343
12657W        W28126   8.873  13.768  13.347 -0.1640 -0.1033 -0.1324
12658W        W28127   1.183  14.640   0.903  0.1894  0.0833 -0.2196
12659W        W28128  18.190   9.399  15.444  0.0380  0.0279 -0.0532
12660W        W28129   8.463   3.341  12.297  0.0073 -0.2041 -0.2011
12661W        W28130   8.260   1.040  14.248 -0.2438  0.4591 -0.1360
12662W        W28131   2.491  16.443   2.506  0.0076  0.0115 -0.1654
12663W        W28132  15.251  10.716  11.130  0.2795 -0.0316  0.0102
12664W        W28133   9.030  16.000   2.209  0.1331  0.0071 -0.1322
12665W        W28134   7.207  10.115  15.444  0.1716  0.0188 -0.2440
12666W        W28135  15.366  17.831   3.921 -0.4274 -0.0845 -0.0925
12667W        W28136  13.594   6.489  12.764 -0.1612 -0.1677 -0.2596
12668W        W28137  12.759   3.404  12.474  0.0852 -0.0727 -0.3620
12669W        W28138  13.990  18.453   2.164  0.0902 -0.1569  0.2148
12670W        W28139  15.557  15.869  12.527  0.1915 -0.2131 -0.4047
12671W        W28140   8.419  14.786  12.590 -0.0424  0.2046  0.0228
12672W        W28141   1.528   8.689   2.657 -0.3794 -0.0623 -0.3826
12673W        W28142   3.914  10.976  15.182  0.1140  0.1612 -0.2913
12674W        W28143  18.647  12.010   5.252 -0.0298 -0.1667 -0.1036
12675W        W28144  15.734   7.072  14.627 -0.1560 -0.0394  0.1257
12676W        W28145  17.089   9.298   5.396 -0.1404  0.0470  0.2260
12677W        W28146   0.650   1.025   1.013 -0.1614  0.1665  0.0706
12678W        W28147  16.641   2.550   1.881  0.0501 -0.3485  0.3385
12679W        W28148  12.032   9.083   9.927 -0.1528 -0.0531 -0.1058
12680W        W28149   1.041  10.370   4.512  0.1593 -0.2155  0.1505
12681W        W28150  16.075   6.763  13.741  0.1775 -0.1662  0.0894
12682W        W28151   1.875   2.923  14.908 -0.0938  0.3424 -0.1166
12683W        W28152   9.190  13.745  14.034  0.1058 -0.0086 -0.1389
12684W        W28153  12.181  18.068   0.611  0.0700  0.2652 -0.1469
12685W        W28154   3.148  14.017   1.805 -0.0889  0.0561  0.3158
12686W        W28155   6.096   0.050  13.260 -0.3460 -0.0082 -0.0883
12687W        W28156  18.631  14.559   4.911  0.0772  0.0006  0.0438
12688W        W28157  15.623   1.371   4.085  0.0212 -0.1737  0.1483
12689W        W28158  13.800   6.457  11.809 -0.2679 -0.2175  0.0016
12690W        W28159  17.744  14.930   3.486  0.4068 -0.2936 -0.1281
12691W        W28160   2.947  17.172  11.772 -0.1596  0.2418 -0.1931
12692W        W28161   8.584  15.131  11.512  0.2159  0.0356 -0.1471
12693W        W28162   4.790  12.090   0.220  0.6285 -0.0982 -0.0352
12694W        W28163   4.997  13.710  11.897 -0.0871  0.2104  0.4719
12695W        W28164  11.658   1.271  14.317  0.1488  0.0992  0.4103
12696W        W28165  14.935  11.958   3.720  0.1018 -0.0066 -0.0818
12697W        W28166   5.943   0.353   2.598 -0.3197 -0.1217 -0.0907
12698W        W28167  17.269  16.250  11.614 -0.0937 -0.0389 -0.2864
12699W        W28168   8.675   3.327  12.756  0.1391 -0.0618 -0.2412
12700W        W28169   8.206   8.545  12.096 -0.2767  0.2004 -0.0468
12701W        W28170   3.380   6.542   0.941  0.3197 -0.0480  0.0600
12702W        W28171  15.210  11.612  10.830 -0.3636 -0.0571  0.0127
12703W        W28172  18.251  11.207   0.415  0.0936 -0.0662 -0.2863
12704W        W28173   9.103   5.927   3.059 -0.1979  0.0864  0.0667
12705W        W28174   5.860  13.014   3.325 -0.3534  0.0772  0.0518
12706W        W28175   4.515  17.042  14.494 -0.0667  0.2824  0.0186
12707W        W28176   6.887   9.816  11.318  0.2762  0.0879 -0.1276
12708W        W28177  11.988  16.800   3.351  0.0438  0.0019 -0.1452
12709W        W28178   2.632   5.996   1.070  0.0136 -0.0518 -0.3049
12710W        W28179   2.382  10.705   1.491  0.1018 -0.1237  0.3466
12711W        W28180   4.692  13.172  13.868  0.0798  0.0628 -0.0427
12712W        W28181  18.048   0.978  14.012  0.4854  0.0220  0.0682
12713W        W28182   2.101   9.866   1.167 -0.1716  0.2064 -0.0086
12714W        W28183  13.280  10.187  10.746 -0.2058 -0.1149 -0.0447
12715W        W28184   9.111  17.389  13.830 -0.1405  0.0442 -0.1312
12716W        W28185  12.545   0.690   2.379 -0.2484  0.1160 -0.3211
12717W        W28186   0.388  13.163  11.160 -0.3837  0.3154  0.3639
12718W        W28187  10.434   5.207   1.203 -0.2646  0.1391  0.1425
12719W        W28188   3.059   3.275   2.738 -0.0285 -0.1288 -0.0687
12720W        W28189   7.475   0.064  14.661  0.0863  0.2867 -0.0846
12721W        W28190   3.921  16.461  11.845 -0.2513 -0.2410  0.2646
12722W        W28191  15.103   9.448   4.052  0.2968  0.2009 -0.1472
12723W        W28192   7.499   6.865  14.612 -0.3572 -0.1994 -0.0146
12724W        W28193  13.727  17.244   2.475 -0.1823 -0.4057 -0.2153
12725W        W28194   2.919   2.399  11.282  0.2553 -0.2253  0.1294
12726W        W28195   3.973  11.338  14.265  0.2542  0.0042  0.2128
12727W        W28196   9.850  13.563   0.393  0.1084  0.2274  0.0887
12728W        W28197  17.928   2.187  14.450 -0.0390 -0.1791 -0.0343
12729W        W28198  17.993   0.447   5.018  0.1320 -0.0416  0.0941
12730W        W28199   3.190  14.255   5.874  0.1430 -0.3670 -0.0555
12731W        W28200  17.209   8.186   1.564  0.2017 -0.1469 -0.0019
12732W        W28201   4.715   4.481  13.652  0.0960  0.1788 -0.2951
12733W        W28202   6.301  15.882  14.450  0.1757  0.0037  0.1055
12734W        W28203  10.881   7.482  14.741  0.1445  0.0675  0.0814
12735W        W28204  13.864   6.945   3.987  0.1133  0.2310  0.2595
12736W        W28205   8.899   8.258  11.379  0.0912  0.1367 -0.0618
12737W        W28206  17.564   9.461  13.005  0.0175 -0.1176  0.2298
12738W        W28207  14.557   0.697   4.933  0.0108  0.0613 -0.2755
12739W        W28208  18.449  11.435   4.488 -0.3130  0.3245 -0.0216
12740W        W28209   4.869  17.018   0.563 -0.0621 -0.2461  0.0808
12741W        W28210   1.190   5.893  11.833 -0.0704 -0.2706  0.0619
12742W        W28211   4.788   9.068   4.735 -0.0549 -0.1271 -0.0266
12743W        W28212   4.053  14.623   3.427 -0.1177 -0.1932 -0.0405
12744W        W28213   2.820   5.007   3.478 -0.1425 -0.1997 -0.2016
12745W        W28214   1.184   5.024   2.529 -0.0757  0.1221  0.0314
12746W        W28215   4.977  10.465   3.366 -0.2328  0.0726 -0.3479
12747W        W28216   9.746  11.273  10.059 -0.2449  0.1904  0.0418
12748W        W28217  15.848   3.135  12.578 -0.0024  0.3170 -0.0418
12749W        W28218   8.201  13.536   4.556  0.0774  0.4982  0.1610
12750W        W28219  15.956   6.869   1.613  0.0172  0.0603 -0.2483
12751W        W28220  10.503   8.797   1.783  0.1010  0.1775  0.2167
12752W        W28221   1.538  16.519   0.946 -0.1705  0.1049 -0.3234
12753W        W28222  14.315   3.230   2.928  0.2381 -0.2770  0.2338
12754W        W28223  10.617   5.988   2.473 -0.0474  0.0418  0.0697
12755W        W28224   5.099  13.916   4.016 -0.1169 -0.0640 -0.0098
12756W        W28225  11.159   1.035  14.580 -0.0417  0.0148 -0.1154
12757W        W28226   1.553  16.939  10.665  0.4279  0.0551  0.2700
12758W        W28227   3.692   4.206  13.336 -0.3234 -0.2178  0.0823
12759W        W28228   2.708  14.175   5.839 -0.2321  0.2181 -0.2090
12760W        W28229  16.654   2.757  12.489 -0.0874  0.0547  0.1834
12761W        W28230  17.624  14.910  12.057 -0.0400 -0.0017  0.0809
12762W        W28231  10.073   9.963   5.827 -0.0143  0.2430 -0.1627
12763W        W28232   9.642  15.439  15.107 -0.2661 -0.4049 -0.1908
12764W        W28233  10.857   7.075   1.526  0.2257  0.1045 -0.1732
12765W        W28234   3.805   4.482  11.815 -0.1315  0.0924  0.4152
12766W        W28235  15.832  13.337   4.526 -0.1120 -0.0543  0.1975
12767W        W28236  14.170   5.357   1.322  0.1385 -0.1116  0.0164
12768W        W28237   0.650   9.753   0.708 -0.0622  0.1214 -0.2921
12769W        W28238   1.701   6.981   3.683  0.1927 -0.1563 -0.0064
12770W        W28239   3.193   1.314  15.578 -0.1448 -0.1568  0.1512
12771W        W28240  14.027  15.672   3.779  0.0346  0.0208  0.0408
12772W        W28241   0.583   8.968  12.645  0.0905  0.0227 -0.2732
12773W        W28242  13.533   9.355  13.231 -0.2489 -0.2239  0.0960
12774W        W28243  10.774  10.343  11.593  0.0226  0.2155 -0.2167
12775W        W28244   2.135   7.124   0.427  0.0358 -0.1608  0.0117
12776W        W28245  16.290  18.522   5.015 -0.2190 -0.2616  0.1699
12777W        W28246   5.264  10.128   5.240  0.3676 -0.3127  0.0499
12778W        W28247   7.030  13.632   2.176 -0.0951 -0.0456  0.0174
12779W        W28248  12.124  18.448   3.771  0.2023  0.3100 -0.1834
12780W        W28249   3.582   9.228   2.768  0.3189  0.0547  0.1074
12781W        W28250  11.719   3.443   1.480 -0.0140  0.0287  0.0036
12782W        W28251  11.793  11.138  12.261 -0.1345  0.0803  0.1228
12783W        W28252   6.068  12.504  11.879  0.0436  0.0300 -0.0283
12784W        W28253   0.753   2.520   3.014 -0.1624 -0.1225  0.0054
12785W        W28254  15.080  13.611  13.780 -0.0021  0.1505 -0.3467
12786W        W28255   2.588   7.678   2.744  0.2793  0.1854  0.3901
12787W        W28256   2.510   1.117  12.603 -0.2768  0.0020 -0.1078
12788W        W28257   2.381   8.530   0.587  0.2226  0.1376 -0.1895
12789W        W28258  13.891   7.670   0.453 -0.0146  0.0886 -0.0858
12790W        W28259   6.449   3.563   2.852 -0.0101 -0.1123  0.1499
12791W        W28260  12.689  10.237  13.918 -0.1681 -0.0770 -0.1351
12792W        W28261  10.020   4.589  15.577  0.0451 -0.0297  0.1345
12793W        W28262  16.768   1.268  10.686  0.3711 -0.2696 -0.0455
12794W        W28263  18.358  16.193   1.214 -0.0539 -0.1889  0.2095
12795W        W28264   1.353  16.057   1.182 -0.0034 -0.2599  0.2377
12796W        W28265   2.511  11.206  15.519 -0.2722 -0.0440  0.0875
12797W        W28266  10.106   2.788   6.169 -0.1146  0.0912 -0.2199
12798W        W28267   7.131  18.619  10.719 -0.0497  0.1795 -0.0556
12799W        W28268  16.718  17.635   3.297 -0.0218  0.0269 -0.2648
12800W        W28269  11.056   7.660   1.807  0.0736  0.0293  0.5383
12801W        W28270   4.982  17.155  11.330 -0.4644  0.3743 -0.1930
12802W        W28271   0.111   9.070  12.494 -0.1339  0.0085 -0.2594
12803W        W28272   0.430   1.802  12.577 -0.2086  0.2678  0.1330
12804W        W28273   7.309   8.862  13.148  0.1627 -0.0285 -0.1652
12805W        W28274  15.586  13.910  13.051  0.1864  0.0263  0.0780
12806W        W28275   4.429   4.472  10.836 -0.0903  0.0465 -0.0896
12807W        W28276  14.867   3.878   0.651  0.2294  0.0629  0.0986
12808W        W28277   9.144   6.684  12.147 -0.0342 -0.3205  0.2921
12809W        W28278   8.151   3.941  12.329  0.0388  0.2284  0.2009
12810W        W28279  16.226   1.273  10.764  0.0348 -0.0887 -0.1551
12811W        W28280  15.721   9.084   5.588 -0.0263 -0.0473  0.1677
12812W        W28281   3.200   5.864   3.425  0.0585  0.1976 -0.1590
12813W        W28282  10.702  17.580  14.506  0.1510  0.1895  0.1872
12814W        W28283   3.234  12.672  11.298  0.2275 -0.2089  0.2290
12815W        W28284   2.849  16.872   5.697 -0.1448 -0.0262  0.4224
12816W        W28285  17.212   4.330  15.031 -0.4793  0.1359 -0.0141
12817W        W28286   7.340   7.456  11.081  0.4571  0.0492  0.0886
12818W        W28287   1.994   3.140  13.159 -0.0011 -0.0587  0.0875
12819W        W28288   1.767  15.302   0.880 -0.1739 -0.2204 -0.0012
12820W        W28289   7.896   0.025  11.920 -0.0945 -0.2644 -0.1816
12821W        W28290  18.119   5.576  11.749 -0.1594  0.2822  0.0168
12822W        W28291   0.895  17.894  13.373  0.1927 -0.1748 -0.2418
12823W        W28292   9.045  11.550  12.731 -0.0516 -0.2076 -0.1545
12824W        W28293   5.254   3.488  15.371 -0.1130 -0.3004 -0.1764
12825W        W28294  11.398   5.686   4.781 -0.0691  0.0875 -0.1379
12826W        W28295   7.708  10.161  12.939 -0.2155 -0.0437  0.1218
12827W        W28296  16.587  17.756   5.147  0.2400  0.1740 -0.2371
12828W        W28297   6.718   2.003  11.492  0.1436  0.1171 -0.2748
12829W        W28298  13.967  11.022   3.902  0.1230  0.0222 -0.3722
12830W        W28299   2.373  10.231  10.709  0.3567  0.3141 -0.0326
12831W        W28300  15.610   8.743  11.323  0.0511  0.1182 -0.2214
12832W        W28301  10.844  17.189   2.699  0.2464  0.1034 -0.1214
12833W        W28302  18.622   1.787  11.300  0.2672 -0.3323 -0.5210
12834W        W28303   7.345   4.793  10.164 -0.2662 -0.2348  0.0998
12835W        W28304   3.413  14.926  12.166  0.1535 -0.0821 -0.3452
12836W        W28305   5.028  15.076   3.185 -0.2045  0.2352 -0.1732
12837W        W28306   0.996  17.026   0.361  0.1226 -0.1784  0.1473
12838W        W28307   2.677  11.054  13.703 -0.1097  0.0569 -0.0258
12839W        W28308  11.233   1.772   3.032 -0.0300 -0.2003 -0.3345
12840W        W28309   4.173   7.900   2.177 -0.2425  0.1919 -0.0209
12841W        W28310   5.816   0.503   3.566  0.2518  0.1373  0.1677
12842W        W28311  13.043  17.257   3.629 -0.0938 -0.2059 -0.3494
12843W        W28312  17.727   0.453   3.798  0.2355 -0.5817  0.1832
12844W        W28313   0.405  12.594   2.800  0.1810  0.2924 -0.1777
12845W        W28314   1.561  17.229   3.807 -0.0365  0.0157  0.1297
12846W        W28315  16.677  18.336  12.489 -0.4924 -0.3787  0.1444
12847W        W28316  12.356   2.424   0.605 -0.0461  0.1292 -0.0491
12848W        W28317   5.221  14.180  12.044  0.3698  0.2239 -0.0386
12849W        W28318   2.325  16.902   1.639 -0.5188 -0.0322  0.1779
12850W        W28319  12.394  11.416  12.798  0.1907  0.2276  0.5251
12851W        W28320  18.173  16.855  13.058 -0.1763 -0.0446 -0.1135
12852W        W28321   5.036  13.270   1.570 -0.0689  0.1855 -0.0598
12853W        W28322  16.021   6.876  11.470  0.0731 -0.1510 -0.1143
12854W        W28323  15.881  17.837   0.852  0.0342  0.1563  0.4694
12855W        W28324  10.970   2.829  11.467  0.2912 -0.1165  0.2115
12856W        W28325   9.346  13.853   1.750 -0.0352 -0.3247 -0.0286
12857W        W28326  13.553  13.032   5.449  0.0914 -0.2784  0.2645
12858W        W28327  13.920   1.900   2.443  0.2334  0.1093 -0.0738
12859W        W28328   1.279  18.171  13.231  0.5782  0.1594 -0.0040
12860W        W28329  18.522  12.868   4.947 -0.2916  0.0349 -0.0175
12861W        W28330  13.988   6.898  13.543 -0.1138 -0.2567  0.1413
12862W        W28331   8.202   8.317  13.646 -0.0312 -0.1000  0.0820
12863W        W28332  15.669   8.129  14.866  0.1572 -0.2879  0.0931
12864W        W28333   8.618   7.585  14.348 -0.2336  0.3057 -0.4179
12865W        W28334  11.905   4.398  12.675 -0.3500 -0.0613  0.1507
12866W        W28335  11.300  11.703   1.538 -0.1734  0.1041 -0.2754
12867W        W28336  14.000  12.223   2.966  0.2708 -0.0187  0.1646
12868W        W28337   2.807  16.602  13.469 -0.2245 -0.0618 -0.0817
12869W        W28338   4.504   8.244  14.163  0.2282 -0.3836  0.1496
12870W        W28339   1.913  15.424   0.208  0.4156 -0.0738  0.1082
12871W        W28340   8.538  14.362   2.375 -0.0927  0.0841  0.4957
12872W        W28341   1.742   7.016   1.762 -0.0910 -0.1141  0.0996
12873W        W28342   4.829  11.227   1.614  0.1834 -0.0821 -0.2437
12874W        W28343   5.607   9.128   4.703  0.1452 -0.0507 -0.1055
12875W        W28344  15.839   7.233   1.957  0.1682 -0.2129 -0.1480
12876W        W28345   6.529  18.498  11.714 -0.2599  0.0136 -0.0170
12877W        W28346   4.840  13.095   2.006 -0.2734 -0.0111  0.0360
12878W        W28347  16.827  11.010   4.553  0.0720  0.1887  0.2994
12879W        W28348  11.454   0.970  10.056 -0.1741 -0.0023  0.0114
12880W        W28349   3.581   1.653  14.338  0.0882  0.0137 -0.1616
12881W        W28350   2.359   6.030  12.160  0.1706  0.2709  0.0519
12882W        W28351  11.158   0.643   3.354  0.2109  0.3241  0.1508
12883W        W28352  18.368  15.543   1.162  0.1420 -0.1846  0.1344
12884W        W28353   3.893   7.454  11.385 -0.0992  0.0146  0.2332
12885W        W28354   8.740  17.603  10.956  0.1938  0.1906  0.3587
12886W        W28355   9.623   5.086  12.944 -0.3607  0.0265  0.1950
12887W        W28356   1.395  15.100  15.021 -0.2410 -0.0996 -0.0750
12888W        W28357   1.333   3.834   2.123  0.1017 -0.1143 -0.1426
12889W        W28358  15.527  12.338  13.205 -0.2401  0.3100  0.4099
12890W        W28359   5.300  16.260   1.978  0.4428  0.2443 -0.2116
12891W        W28360  16.218   5.090   5.676 -0.1352  0.2391 -0.3316
12892W        W28361  18.364   0.558  11.499  0.3223 -0.0825 -0.2023
12893W        W28362  16.861   9.342  12.034  0.0079  0.0465 -0.0144
12894W        W28363   7.367  18.220   0.599 -0.2399 -0.1125  0.3008
12895W        W28364  16.388  16.561  11.078  0.2379  0.0433  0.2741
12896W        W28365  18.557  15.109   4.889  0.0533 -0.0063 -0.0167
12897W        W28366  18.197  13.723  14.366  0.0592 -0.2855  0.1463
12898W        W28367   5.582   0.402   0.679 -0.2692 -0.2660 -0.1536
12899W        W28368   0.677   3.677  11.563  0.0402 -0.4327 -0.1594
12900W        W28369   7.177  10.743  12.034 -0.3243  0.0183  0.1285
12901W        W28370   4.001   6.563  11.809 -0.0065  0.0600 -0.3861
12902W        W28371  14.747   7.829  11.509 -0.3266 -0.0856 -0.0348
12903W        W28372  13.100   2.148   1.870 -0.1441 -0.0978 -0.2034
12904W        W28373  13.843  16.447   1.132 -0.2616  0.0376 -0.1214
12905W        W28374   0.005   0.637  11.140  0.2755 -0.0217 -0.1842
12906W        W28375   1.324  11.866  12.662 -0.3317  0.1763  0.2375
12907W        W28376  14.063  10.379  12.756 -0.0919 -0.3512 -0.2611
12908W        W28377  10.601   7.018  13.777 -0.4338  0.0420 -0.1416
12909W        W28378   4.262   4.038  12.405  0.2693  0.1129  0.0221
12910W        W28379   9.731  13.815   2.440 -0.1482  0.1040  0.2237
12911W        W28380  17.935   6.475   1.198  0.0056 -0.2806 -0.0250
12912W        W28381   2.523   9.365  13.564 -0.3052 -0.1261  0.0777
12913W        W28382   3.603   6.284  11.548 -0.0913 -0.0740  0.2128
12914W        W28383   6.745  17.185   1.733 -0.0734 -0.2759  0.1213
12915W        W28384   3.577  16.880  12.525 -0.0355  0.0122  0.3172
12916W        W28385   5.409  17.419  11.702  0.4560  0.3438 -0.3736
12917W        W28386  13.538   0.310   9.491  0.0557 -0.1686 -0.0923
12918W        W28387  18.629  10.572   3.880  0.3157  0.3516  0.2238
12919W        W28388  15.276   2.080  11.320  0.0608  0.1885 -0.0132
12920W        W28389   9.976   9.553  10.794  0.3428 -0.1901  0.2683
12921W        W28390   5.021   9.235  15.369 -0.0459  0.0572 -0.4191
12922W        W28391   7.565   0.292   1.574 -0.0469 -0.1077  0.2085
12923W        W28392   5.102   6.154  11.837  0.0960  0.0763 -0.3939
12924W        W28393  15.176  13.940   2.310  0.0841 -0.0904 -0.2891
12925W        W28394   4.533  17.144  11.102  0.2380 -0.5098  0.0176
12926W        W28395   1.856  12.882   5.300  0.3261 -0.0554  0.0263
12927W        W28396  16.623  13.452   1.134  0.0671  0.0140 -0.0130
12928W        W28397  10.999   9.642  11.908 -0.2835  0.2358  0.0505
12929W        W28398   6.827  13.201  10.743  0.1397  0.0106  0.1546
12930W        W28399   0.034   7.502  11.528 -0.2565  0.0166  0.1780
12931W        W28400  16.233   2.784   0.829  0.3190 -0.2190  0.1345
12932W        W28401   5.124  11.606   4.930  0.2310  0.1126 -0.1574
12933W        W28402   3.763  15.384  13.802 -0.3383  0.0245  0.1941
12934W        W28403   6.774  18.005  13.477  0.1442  0.2144  0.0244
12935W        W28404  13.961   7.932  14.124 -0.0737 -0.2693  0.3201
12936W        W28405   3.101   1.282   0.333 -0.1308  0.0086  0.1990
12937W        W28406  18.077   6.237  15.491 -0.1777  0.2268  0.3221
12938W        W28407   9.603   5.886   3.922  0.1418 -0.0231 -0.3564
12939W        W28408  18.051   4.708  11.785  0.2974 -0.1140  0.2684
12940W        W28409   5.651   1.844   2.142 -0.3487  0.0428 -0.2910
12941W        W28410   0.835   6.843   2.973 -0.2214 -0.0151 -0.1705
12942W        W28411  18.510   0.930  13.865 -0.1274 -0.1084 -0.0636
12943W        W28412  13.261  18.584  11.599  0.0255  0.3741 -0.0854
12944W        W28413  14.889  15.239   3.233  0.0293  0.3257  0.1001
12945W        W28414  14.040   9.094   0.269 -0.0776 -0.0628  0.0151
12946W        W28415  10.067   3.474   5.164 -0.2663 -0.2636 -0.5065
12947W        W28416  10.096   2.709   0.909  0.2302 -0.1721 -0.2467
12948W        W28417   3.125   7.697   4.779 -0.2888 -0.0698  0.0787
12949W        W28418   6.766   9.869  10.295  0.3010  0.2782 -0.0767
12950W        W28419  13.053   1.629   1.546  0.0991  0.1199  0.1194
12951W        W28420   3.867  13.601  12.738 -0.0340  0.2324 -0.0524
12952W        W28421  10.228   9.530  12.486  0.1356 -0.0186  0.2059
12953W        W28422   6.249   0.563  12.126 -0.0490  0.1546  0.2048
12954W        W28423   8.887   1.891   3.822  0.1254  0.2003  0.0415
12955W        W28424   3.965  10.340   5.832 -0.0148  0.0311  0.0244
12956W        W28425   2.901  10.661   5.004  0.0656  0.2419  0.1438
12957W        W28426  18.065  10.037  14.473  0.3657 -0.3101 -0.1286
12958W        W28427  11.359  15.124  10.829 -0.0885 -0.1271 -0.1125
12959W        W28428   0.422  10.777  11.078 -0.1853 -0.1000  0.1385
12960W        W28429   0.337  14.788  12.554  0.2655  0.1865 -0.0290
12961W        W28430  13.436  10.953  14.064  0.1988 -0.0228 -0.1018
12962W        W28431  10.154  10.663   3.930  0.0433  0.1212 -0.0853
12963W        W28432   9.543   1.628   0.359 -0.0995 -0.0387  0.3662
12964W        W28433  17.419  12.291  11.025  0.1524  0.1025  0.0192
12965W        W28434   1.243   7.623   1.373 -0.2086 -0.0735  0.2761
12966W        W28435   9.441   3.392  12.375 -0.0142  0.3005 -0.1406
12967W        W28436  10.022  10.779  13.408  0.1548  0.2014  0.1218
12968W        W28437   1.143   3.038   1.720  0.0633 -0.1514  0.0350
12969W        W28438  13.445   7.530  11.733 -0.2207  0.0459 -0.1603
12970W        W28439   4.683   5.852  10.938 -0.0094  0.0524  0.1108
12971W        W28440   3.922   0.934   3.123  0.3139  0.0950  0.2300
12972W        W28441  10.697   3.554  13.520 -0.0334 -0.0393 -0.0438
12973W        W28442  10.205   2.558  15.117  0.3663 -0.2824 -0.2071
12974W        W28443   6.120   0.453   2.133 -0.0773 -0.0756 -0.1822
12975W        W28444  10.709   6.599   1.636  0.0235 -0.0969 -0.0911
12976W        W28445   3.508  12.847   3.480 -0.1196  0.0153  0.1662
12977W        W28446  13.550  13.941  15.641 -0.0823 -0.3219 -0.3962
12978W        W28447  14.808  15.439   2.299  0.0864 -0.1982 -0.1579
12979W        W28448   6.886   6.348   3.435 -0.2362 -0.0316 -0.0427
12980W        W28449   3.242   8.916   1.851  0.2355 -0.1194 -0.1912
12981W        W28450   4.953   2.586   1.017  0.0853 -0.0172  0.1909
12982W        W28451  12.757  16.172  12.291 -0.0490 -0.3808  0.1130
12983W        W28452   2.751   0.422   3.079 -0.1769 -0.0046  0.2354
12984W        W28453  10.482  18.669  13.546 -0.0984  0.2337  0.0659
12985W        W28454  11.718   7.690  12.402 -0.1806  0.2397  0.0001
12986W        W28455  18.608  15.824   2.908 -0.2437 -0.4985 -0.1844
12987W        W28456   1.912   1.818   1.668 -0.0476 -0.2215  0.1464
12988W        W28457  15.348   8.810   2.139  0.1886 -0.2320  0.0453
12989W        W28458   3.872  15.866   1.463  0.1843  0.1896 -0.0218
12990W        W28459  18.634   6.437  13.252  0.0006  0.1217 -0.0657
12991W        W28460   2.201   3.295   0.611 -0.1223 -0.3207  0.2045
12992W        W28461  17.829  16.166  11.472 -0.1016  0.0711  0.0922
12993W        W28462  16.172  17.018   2.019 -0.0286  0.1398 -0.0907
12994W        W28463   6.566  15.129   1.750  0.0755  0.4822 -0.0525
12995W        W28464  14.145   6.964   1.379  0.1647  0.0012  0.2824
12996W        W28465   1.492  10.032   2.753 -0.2266 -0.3944 -0.1755
12997W        W28466   2.107   5.046   9.292 -0.2094  0.1724 -0.1672
12998W        W28467   3.079  13.124   3.608  0.3767 -0.0339 -0.1911
12999W        W28468   8.192   9.274  11.385 -0.0864  0.0442 -0.2515
13000W        W28469  14.335  17.110   2.382 -0.1074 -0.1201 -0.1135
13001W        W28470  18.482   5.435   5.090  0.0709  0.1658  0.0684
13002W        W28471   1.596   1.475  13.130  0.0772 -0.1119  0.0964
13003W        W28472   0.280   4.827   1.690  0.1656  0.1707 -0.3136
13004W        W28473   8.898   9.067   0.060  0.1280  0.1505 -0.0828
13005W        W28474   8.743  18.183  13.405 -0.1088 -0.2238 -0.2230
13006W        W28475   0.244   9.494  10.710 -0.3181  0.0677  0.0268
13007W        W28476  17.839   2.702   1.095  0.1495 -0.0015 -0.0473
13008W        W28477   2.754   3.303  12.947  0.0609 -0.1905  0.4366
13009W        W28478  11.281   0.748  15.071 -0.1526  0.0096 -0.2149
13010W        W28479  17.199  14.957  13.430 -0.0857  0.3604 -0.1069
13011W        W28480   6.919  17.610   1.897 -0.0138  0.0168 -0.0986
13012W        W28481  15.907   8.345   1.366 -0.0935  0.1698 -0.0131
13013W        W28482   0.357   4.593  11.619  0.0653  0.1491 -0.3249
13014W        W28483  15.762   6.778  13.303  0.1210  0.2691  0.0156
13015W        W28484  13.660   2.775   1.507  0.0900 -0.2949 -0.3611
13016W        W28485   1.378   7.144  14.511  0.0261 -0.1768  0.3365
13017W        W28486   8.102  14.158   3.070  0.0454 -0.1479  0.4730
13018W        W28487  15.776   3.706   4.748  0.1559  0.0361  0.0790
13019W        W28488   5.106  12.461  15.771  0.1621 -0.3784  0.2748
13020W        W28489  14.906  13.655  12.818  0.0099 -0.1401 -0.5416
13021W        W28490   9.840  14.574  12.383 -0.0149  0.0541 -0.0426
13022W        W28491  17.397   4.555  12.435  0.0369 -0.1429  0.0250
13023W        W28492  16.288   0.368  10.504  0.1232 -0.1659 -0.1353
13024W        W28493   1.976   4.442  15.758  0.1256 -0.0906  0.1559
13025W        W28494   5.889  17.305   4.995 -0.1766  0.0347 -0.0685
13026W        W28495  13.532   2.677  12.792  0.1311  0.1984 -0.1689
13027W        W28496  10.494  14.199   3.657  0.3138  0.0313  0.2599
13028W        W28497   6.751   7.399   4.195  0.0181  0.1461  0.0890
13029W        W28498  18.424  10.276  13.163 -0.1039  0.1626  0.0210
13030W        W28499   9.860  16.995   1.346  0.1651 -0.1913 -0.0507
13031W        W28500   6.574   3.847   3.799 -0.0225 -0.1585 -0.0230
13032W        W28501  10.278   6.666   3.150  0.0175 -0.0412 -0.0394
13033W        W28502   1.424   0.167   1.771 -0.1027 -0.0718 -0.1632
13034W        W28503  17.676   2.880   3.163 -0.1078 -0.0913  0.0805
13035W        W28504  16.152   8.841   3.315  0.2425 -0.0131  0.0246
13036W        W28505   4.613  16.582  11.160 -0.1812 -0.4324 -0.0762
13037W        W28506   5.790   2.722  11.744 -0.1690 -0.1791 -0.1663
13038W        W28507  16.103   0.309   1.669 -0.1346  0.3087 -0.2072
13039W        W28508  15.881  16.530   0.291  0.2805 -0.0106 -0.0049
13040W        W28509  11.016   0.816   5.868  0.2971 -0.2153  0.1306
13041W        W28510  13.372   6.845  13.509  0.0088  0.1711  0.1237
13042W        W28511  12.369   7.744   2.245 -0.0137  0.0821  0.0901
13043W        W28512   8.335   5.233  10.944 -0.0392 -0.0735  0.3121
13044W        W28513  13.516  15.547  11.167  0.1103 -0.0062  0.0134
13045W        W28514  15.265  16.475   4.079  0.1101  0.0501 -0.2033
13046W        W28515   6.723  16.329  12.300  0.4285 -0.0684 -0.1321
13047W        W28516  11.503   1.632  13.945  0.1383 -0.0847 -0.0562
13048W        W28517   0.212   0.292  10.753 -0.1104 -0.2688  0.3154
13049W        W28518   0.894  16.530  13.386 -0.2794 -0.3084 -0.1706
13050W        W28519   3.333  11.666  11.822  0.0135 -0.1324  0.0181
13051W        W28520  13.949   5.332   0.369  0.1500 -0.1532 -0.4473
13052W        W28521  10.740  16.571  14.036  0.2257  0.1168 -0.3244
13053W        W28522   5.489   2.240   2.426  0.1383 -0.1018 -0.4059
13054W        W28523   9.229   0.345   0.530  0.0775 -0.1882 -0.1859
13055W        W28524   6.912   9.405   4.021  0.0596  0.4909  0.0185
13056W        W28525  17.470  10.148   4.817 -0.0895  0.1973 -0.2108
13057W        W28526  16.868  13.430   3.002 -0.3541  0.0412 -0.1424
13058W        W28527   1.922  12.487  10.939 -0.2030  0.1993 -0.0488
13059W        W28528  11.505  16.580   2.552 -0.2122  0.0640  0.2903
13060W        W28529  15.585   0.756   1.178  0.4474  0.0759  0.0900
13061W        W28530   7.218   6.714   1.519  0.0466  0.2010 -0.5697
13062W        W28531  18.110   8.371  14.576  0.4247 -0.0448  0.1138
13063W        W28532   0.182  14.618   1.964  0.0826 -0.1362  0.2192
13064W        W28533  11.281   8.014  14.282  0.6654 -0.1244 -0.4620
13065W        W28534  15.416   0.123  13.830  0.1441 -0.2361 -0.1525
13066W        W28535   5.747  14.625   1.097 -0.1997  0.0676 -0.0305
13067W        W28536  14.582  16.806   0.403  0.2783 -0.1445  0.0675
13068W        W28537   5.694  16.966   3.415 -0.0522 -0.2976 -0.1594
13069W        W28538  17.498   3.635   1.557  0.1176 -0.1279 -0.3592
13070W        W28539  14.866   6.701   2.765 -0.0507  0.1579  0.1233
13071W        W28540   3.239   6.307   0.470  0.1626  0.0152  0.1785
13072W        W28541   5.047   6.903  11.423  0.1465 -0.0972 -0.1938
13073W        W28542   4.971  15.640  10.891  0.1343  0.2220  0.0404
13074W        W28543   1.498  16.095   4.647  0.0586 -0.0066  0.1459
13075W        W28544  17.438   8.795   4.564  0.0797  0.0318 -0.1587
13076W        W28545   6.715   3.130   2.089 -0.0422 -0.0421 -0.1356
13077W        W28546  12.321   0.381   2.725 -0.0808 -0.1899 -0.0200
13078W        W28547   3.343  15.324   1.052  0.2230 -0.1890 -0.1350
13079W        W28548   8.335  11.816   1.919 -0.2120  0.0736  0.0094
13080W        W28549  18.553  13.119  15.582  0.1017 -0.2523  0.1355
13081W        W28550  14.215   0.710   4.473 -0.1933  0.3782 -0.4163
13082W        W28551   2.966   5.915   3.013 -0.1412 -0.0431 -0.3316
13083W        W28552  14.073   4.274  10.726  0.2310 -0.0263  0.1673
13084W        W28553   1.151  11.563   0.484  0.1582  0.1366 -0.4071
13085W        W28554   2.939   1.834  12.373 -0.1633 -0.0382 -0.0775
13086W        W28555  10.909   5.843   0.469 -0.0633  0.0442  0.2173
13087W        W28556  10.499  16.524  15.509 -0.0146 -0.0621  0.0651
13088W        W28557  17.920   8.288   5.231  0.0137 -0.0946  0.2687
13089W        W28558   3.751  12.277  14.856  0.0388 -0.0226 -0.1889
13090W        W28559  17.220   6.985  12.910 -0.1682 -0.0035  0.2928
13091W        W28560  14.630   0.490   3.549 -0.1700  0.0874 -0.0564
13092W        W28561  12.650   6.033  11.641  0.0149  0.0465 -0.0724
13093W        W28562   9.582   5.759  12.170 -0.1601  0.0079 -0.2025
13094W        W28563  11.958  11.283   1.401  0.2920 -0.0457  0.0214
13095W        W28564   2.045  17.223   3.976  0.1179  0.0104  0.2287
13096W        W28565  15.842   9.161   2.791 -0.1925  0.0697 -0.3055
13097W        W28566   9.666   1.667   2.218 -0.0244  0.2618  0.0623
13098W        W28567   1.152  11.213  15.242 -0.3989  0.1187 -0.3774
13099W        W28568   8.490  12.450  11.728  0.0740 -0.1371 -0.1103
13100W        W28569  13.299  11.578   2.521  0.0789  0.1417  0.1032
13101W        W28570   1.376   9.041  13.836  0.0955  0.2936 -0.0041
13102W        W28571   3.398   7.815  11.495 -0.1540  0.0419  0.0783
13103W        W28572   4.822   9.543   6.830  0.0037  0.0796 -0.0442
13104W        W28573   2.545   8.696  14.805 -0.1872  0.1075 -0.1080
13105W        W28574   2.466  11.792  12.072 -0.1509  0.2375 -0.0659
13106W        W28575   6.985   0.202  14.313  0.3028 -0.3233 -0.3914
13107W        W28576   1.238  18.591  14.156  0.3046 -0.2260 -0.0553
13108W        W28577  12.913   9.420   3.955 -0.1179  0.3526  0.1250
13109W        W28578  11.926  15.324   5.258  0.2746  0.0290  0.2527
13110W        W28579  11.098   0.380   2.857  0.0162 -0.0669 -0.0782
13111W        W28580   5.446  10.770  15.164  0.0349 -0.0834 -0.0172
13112W        W28581   9.181   8.962   3.385  0.1433 -0.1254 -0.0636
13113W        W28582  14.216  18.420   1.616  0.0247  0.1450 -0.4241
13114W        W28583  18.188  18.339   3.816  0.0286 -0.2095  0.0341
13115W        W28584  12.320   9.197  14.450  0.0325  0.2748 -0.0280
13116W        W28585   6.265   1.689  13.196  0.1257  0.0785 -0.2865
13117W        W28586   8.282  10.875   3.562 -0.1413 -0.0673  0.0441
13118W        W28587   8.871   4.855   0.064  0.1733 -0.1197 -0.1325
13119W        W28588   6.024   5.539  11.881 -0.2896 -0.4823 -0.2049
13120W        W28589   1.801  12.400   2.398  0.1487  0.1227  0.3626
13121W        W28590   6.721  17.272   4.971 -0.1249 -0.0198  0.1168
13122W        W28591  15.943  15.983  11.786 -0.1511 -0.2136  0.4473
13123W        W28592   0.211  14.758  11.841 -0.1302 -0.0822 -0.0823
13124W        W28593   7.789  13.194   5.207 -0.3099 -0.3857 -0.1164
13125W        W28594  17.381  17.610  13.898 -0.2031  0.2548  0.0914
13126W        W28595  10.383   5.940   0.630  0.1303  0.1941  0.2063
13127W        W28596  11.421   6.375   3.573 -0.0796 -0.1106  0.3044
13128W        W28597   0.813   0.237   3.168 -0.1042 -0.2080 -0.2587
13129W        W28598   0.707  16.985   3.511  0.0901 -0.0254  0.2411
13130W        W28599   1.202   7.627  15.377 -0.0827  0.3659 -0.1213
13131W        W28600   6.710   2.401   0.560 -0.1082  0.0249 -0.4086
13132W        W28601   9.538   5.530  13.195  0.0874 -0.0476  0.1202
13133W        W28602   2.300  11.627  14.464 -0.3934  0.0674  0.2332
13134W        W28603   7.121  16.619   3.145 -0.4454 -0.0673 -0.0898
13135W        W28604   5.682   2.002  11.133  0.1477 -0.0126  0.2074
13136W        W28605   5.748  18.134   0.681  0.0052 -0.1790  0.0234
13137W        W28606  10.530  16.932   5.831 -0.4525 -0.3761 -0.3686
13138W        W28607   2.376   1.370  10.446  0.0749  0.0232 -0.0773
13139W        W28608   2.009  17.224   3.428  0.0092 -0.0001 -0.0185
13140W        W28609   4.163   3.047   4.368  0.1825 -0.0020  0.0894
13141W        W28610  14.310   0.951  10.982 -0.1888  0.0121 -0.0513
13142W        W28611   9.705   5.669  14.815  0.0552  0.0084 -0.0728
13143W        W28612   0.759   4.891  11.719 -0.0923 -0.3080  0.0429
13144W        W28613   6.106   0.673  10.303  0.1403  0.1641  0.2517
13145W        W28614   3.009   9.555   0.802 -0.1657  0.0603 -0.0432
13146W        W28615   5.691  18.254   3.634 -0.4389 -0.2523 -0.0287
13147W        W28616   1.225   1.223   3.792 -0.0213 -0.1704  0.2573
13148W        W28617  14.502  16.965  11.155 -0.0860 -0.0348 -0.3123
13149W        W28618   8.891   0.701  13.642 -0.0074  0.0195  0.0342
13150W        W28619  15.626   7.725  10.440  0.1604 -0.2117 -0.0880
13151W        W28620  17.565   2.262  13.266  0.1658  0.0932  0.0728
13152W        W28621   5.239  13.723   1.629 -0.0376 -0.0337  0.0891
13153W        W28622   2.755  10.210   4.506 -0.3946 -0.1098  0.0175
13154W        W28623   5.163  18.051   5.182 -0.0066  0.2521 -0.0830
13155W        W28624   7.340   2.826  13.072 -0.1887 -0.0563 -0.0600
13156W        W28625   3.951  13.132  13.239  0.2106 -0.0182 -0.0573
13157W        W28626  12.056  12.864   3.269 -0.0913  0.1806 -0.2609
13158W        W28627   3.886  13.342  11.824  0.0721 -0.1915 -0.0962
13159W        W28628   7.528   9.285  10.783 -0.0406  0.0951 -0.0421
13160W        W28629  10.629  16.147   4.337 -0.1575 -0.1258  0.1125
13161W        W28630  11.916   8.059  11.007  0.0473  0.2005 -0.0679
13162W        W28631   2.807   1.102  14.040 -0.0453 -0.2689  0.0501
13163W        W28632  16.556   4.443  13.604  0.0506  0.4966 -0.2597
13164W        W28633  13.439  13.944  14.623  0.1311 -0.0787 -0.0071
13165W        W28634  14.749  14.491   0.343  0.1936  0.1655  0.0832
13166W        W28635   8.057   4.954   0.754 -0.2988 -0.4448 -0.0185
13167W        W28636  13.764   2.590   0.599 -0.0508  0.2360  0.3572
13168W        W28637  12.023  10.553  11.803 -0.0861  0.0986  0.1389
13169W        W28638  10.135  13.396   4.316  0.2421  0.1046 -0.4084
13170W        W28639  14.499  12.951   3.703  0.1212  0.0002 -0.0925
13171W        W28640   8.035   8.272   1.778  0.0736  0.1182 -0.1172
13172W        W28641   9.184   2.405  11.776 -0.2049 -0.0337 -0.0262
13173W        W28642  14.079  12.010  11.190  0.2258  0.0163  0.0429
13174W        W28643   9.337  11.256   3.502  0.3080  0.2324  0.0936
13175W        W28644   7.393  10.883  10.016 -0.1464 -0.3002 -0.0231
13176W        W28645  13.829  13.765  10.904  0.1171  0.4252 -0.1827
13177W        W28646   8.492   2.873   1.964  0.0709  0.0177  0.1570
13178W        W28647   7.709  10.726  13.138 -0.1302 -0.0476  0.1570
13179W        W28648   9.620   3.889   0.899 -0.1551  0.0409 -0.0124
13180W        W28649   4.509  16.825   1.545 -0.1036  0.0793 -0.1246
13181W        W28650  18.536  11.480   1.310  0.0131 -0.1745 -0.0435
13182W        W28651   9.188   5.215  15.110 -0.1959 -0.3076  0.1007
13183W        W28652   2.781   0.666   1.511  0.1383  0.0693 -0.1168
13184W        W28653  18.132  18.109  14.545  0.0889 -0.3811 -0.1117
13185W        W28654   2.599   4.297   2.153 -0.0562  0.0674  0.1119
13186W        W28655  11.244  18.518  14.754  0.0990 -0.0732 -0.0148
13187W        W28656   5.890  11.474  13.965 -0.3781  0.0370  0.2666
13188W        W28657  10.412   6.159   3.441  0.0553  0.0924  0.1951
13189W        W28658   2.182   7.852   4.598 -0.1498  0.1757 -0.1073
13190W        W28659   1.217   6.096  12.773  0.0056  0.1731  0.1142
13191W        W28660  17.616   4.918   1.750 -0.1036  0.0409  0.2159
13192W        W28661  14.275   4.931   0.275 -0.1198 -0.1626 -0.1142
13193W        W28662   7.333  18.278  13.661 -0.0543  0.1148 -0.2825
13194W        W28663  10.325  10.815   0.078  0.0075 -0.2217  0.1068
13195W        W28664  16.714  15.069  14.346  0.0814 -0.1737  0.0730
13196W        W28665  11.274   1.424   1.566 -0.1747  0.0551  0.1724
13197W        W28666   6.377  15.745  10.837 -0.0792  0.1835 -0.1883
13198W        W28667  13.380  10.877   3.830 -0.1040  0.0326  0.1218
13199W        W28668  12.335  17.223   4.376 -0.4247 -0.0764  0.1058
13200W        W28669  17.049  16.895   2.200  0.0041 -0.4104 -0.0613
13201W        W28670  13.983   3.536  13.784 -0.0258  0.0362 -0.0112
13202W        W28671   7.925  16.475   1.304 -0.0073 -0.0141  0.0693
13203W        W28672  12.516  15.450  11.588  0.0180 -0.1064 -0.3651
13204W        W28673   0.337   1.706   2.804  0.2116  0.4475  0.1213
13205W        W28674   0.578   8.441   9.630 -0.1934  0.0301  0.1919
13206W        W28675   4.368  12.358   3.536 -0.2499 -0.4355 -0.2926
13207W        W28676   8.758   1.763   4.948 -0.0566  0.2050 -0.2671
13208W        W28677   0.186   4.446   4.283 -0.0601 -0.1499  0.4906
13209W        W28678   0.462   0.286   0.652  0.0872  0.0356 -0.1679
13210W        W28679  12.293   1.931   5.231 -0.2486  0.1138 -0.1241
13211W        W28680  10.612  12.054  10.836  0.0033 -0.0875  0.2335
13212W        W28681   6.471  16.379   4.940  0.0984 -0.1067 -0.6395
13213W        W28682   9.771   1.032  11.291  0.1179  0.3698  0.0201
13214W        W28683   3.202   1.369   1.417  0.2996 -0.2810  0.0877
13215W        W28684  18.030   7.726   4.190 -0.1530 -0.2852  0.1267
13216W        W28685   4.272   3.407   1.490  0.2782 -0.0144 -0.0344
13217W        W28686   7.167  14.494  12.498 -0.3385  0.5975 -0.0013
13218W        W28687   0.142   9.786  13.738 -0.1035  0.1580  0.2407
13219W        W28688   6.824   3.921   4.230 -0.1636 -0.3294 -0.1536
13220W        W28689  18.356  15.461   1.934 -0.3016 -0.4923 -0.0332
13221W        W28690  18.595  14.383   3.587  0.0703  0.3916 -0.1225
13222W        W28691   6.589   0.085  15.087  0.1583 -0.1821  0.0437
13223W        W28692   1.677  17.276  13.557  0.0295  0.0765 -0.0610
13224W        W28693   1.657  14.771   3.733 -0.2512 -0.1698 -0.0015
13225W        W28694   6.571  18.005   2.003  0.2615  0.1926 -0.0855
13226W        W28695   0.087   0.037   2.875  0.2872  0.0042  0.0892
13227W        W28696  11.013   6.845   4.833  0.0419  0.0849  0.2208
13228W        W28697  18.532  18.148  15.732  0.0670 -0.0795  0.2049
13229W        W28698  10.483   3.467  13.948  0.0064 -0.3698 -0.2220
13230W        W28699  16.940  15.154   4.566 -0.0366  0.0073 -0.2625
13231W        W28700   1.273   7.920  12.239  0.1849 -0.0133  0.0026
13232W        W28701   5.955   1.612  15.744 -0.1228 -0.2178  0.1792
13233W        W28702   7.297   0.402  12.607  0.0330  0.0914 -0.4520
13234W        W28703   2.420   1.855   9.536 -0.1906 -0.0021  0.1422
13235W        W28704   3.480   6.420   6.002 -0.0826 -0.2987  0.2612
13236W        W28705  12.414   7.592   3.247 -0.1373 -0.0525 -0.4063
13237W        W28706   0.231   6.979  11.849 -0.1395  0.1781  0.0818
13238W        W28707  10.001   6.154  11.121 -0.1051  0.1496  0.1351
13239W        W28708  15.819   3.621  14.717 -0.1583  0.1245 -0.1579
13240W        W28709   9.794   8.575   4.998  0.0476  0.4009  0.1128
13241W        W28710  18.157   7.761   1.176 -0.0906 -0.3045  0.3439
13242W        W28711  11.858   8.122   5.153  0.2339  0.1416 -0.2728
13243W        W28712   8.046   5.453  12.787  0.3397  0.1123  0.0647
13244W        W28713   1.058  10.855   3.184 -0.3610  0.1021 -0.1068
13245W        W28714  15.284  12.492  11.670  0.0665 -0.0984 -0.1447
13246W        W28715  15.059  14.263   2.812 -0.0381 -0.1199  0.0485
13247W        W28716  13.752  18.308  13.829  0.0769  0.1810  0.3184
13248W        W28717  18.616   9.490   0.830 -0.1385 -0.0485 -0.0096
13249W        W28718   1.204   7.617   3.409  0.4815 -0.0894  0.2310
13250W        W28719   0.479   8.098  13.674  0.1575  0.0093 -0.0147
13251W        W28720   0.315   1.347   0.516  0.2365  0.1114 -0.0202
13252W        W28721   1.730  13.929  11.139 -0.0297  0.0673 -0.0677
13253W        W28722   3.877   7.158   4.525  0.3713 -0.1545  0.0758
13254W        W28723  10.368  17.443   2.143 -0.1755  0.0560 -0.0097
13255W        W28724   1.837   3.664   2.129 -0.0637 -0.1502 -0.0924
13256W        W28725   2.883   3.659   3.209  0.0790  0.1644  0.0488
13257W        W28726   6.572   8.033  13.187  0.0153 -0.4497 -0.0951
13258W        W28727  14.702   0.568   1.079 -0.1133 -0.1843  0.0390
13259W        W28728   5.036  15.454   4.827  0.0192  0.1071  0.1212
13260W        W28729  14.625   8.402  12.335 -0.0473  0.2546  0.1659
13261W        W28730   4.150  17.673  13.618  0.0263  0.0420 -0.3503
13262W        W28731   2.956  13.422  11.469 -0.0276 -0.3698  0.1680
13263W        W28732   3.599  17.468   4.693 -0.1962  0.1487 -0.1419
13264W        W28733   8.628   4.625  10.400  0.1283 -0.0579 -0.3060
13265W        W28734   5.482  10.601  14.272 -0.0997 -0.1819  0.0203
13266W        W28735  11.160  14.326  13.685  0.0878 -0.1099  0.0583
13267W        W28736   3.590   6.094   0.868 -0.0462 -0.1110 -0.1719
13268W        W28737  16.667   9.789  12.153 -0.3134 -0.2685  0.1593
13269W        W28738  17.972  18.560  11.989  0.3079 -0.3109  0.4824
13270W        W28739   2.109   3.877  10.788 -0.1052  0.0224  0.3772
13271W        W28740   6.167   1.123  14.552  0.1361 -0.0075  0.1029
13272W        W28741  17.996  11.180  13.317  0.2325  0.1368  0.0828
13273W        W28742   8.508  11.967  11.622  0.0544  0.1516  0.6248
13274W        W28743   8.940  10.945  15.139  0.2370 -0.2242 -0.0749
13275W        W28744  11.853   2.365   4.659 -0.1463  0.1199  0.0497
13276W        W28745  11.778   1.502  15.205 -0.1733  0.1131 -0.0533
13277W        W28746  15.382  15.428   4.123  0.0650 -0.1406  0.0055
13278W        W28747  10.327   6.469  14.042 -0.3037 -0.1026 -0.2340
13279W        W28748  11.802   2.388   1.710  0.0942  0.2798  0.2451
13280W        W28749  17.346  12.851   2.297 -0.0215  0.0236 -0.1034
13281W        W28750  15.476   1.781   1.419  0.2286  0.0702 -0.0214
13282W        W28751  11.589   8.493  13.081  0.1439  0.0580 -0.0938
13283W        W28752   5.820   2.657   0.491 -0.4859 -0.0464  0.0635
13284W        W28753   0.006   6.185   3.433  0.0349 -0.2752 -0.0081
13285W        W28754   4.741  11.790   5.930 -0.1554  0.0188 -0.1804
13286W        W28755   9.725   3.828   9.856 -0.3302 -0.1034  0.2343
13287W        W28756   5.567  11.490   1.012  0.0523  0.1110  0.3134
13288W        W28757   5.857   6.404   4.938  0.0460 -0.4638 -0.0916
13289W        W28758   5.603  10.512  11.533  0.0234  0.0561 -0.4007
13290W        W28759   7.258  14.397   1.414 -0.2285  0.1306 -0.1373
13291W        W28760   9.250   2.876  15.390  0.0293  0.0434 -0.0194
13292W        W28761  12.078  15.101  14.351 -0.0794 -0.4278 -0.0702
13293W        W28762   9.299  13.952  14.559  0.2865  0.3672  0.0018
13294W        W28763  14.416   0.117   3.822  0.4929  0.0271 -0.0324
13295W        W28764  11.275  10.953  15.734 -0.1369 -0.0249  0.1925
13296W        W28765   0.981   6.099   3.781 -0.0105 -0.1986  0.2223
13297W        W28766   3.145  16.227  14.243  0.1504  0.2678  0.1405
13298W        W28767  15.471   3.496   3.567  0.2962 -0.2888 -0.1599
13299W        W28768   8.094  17.739  10.521  0.0254  0.0031 -0.2370
13300W        W28769  11.280  17.922  11.535  0.0300  0.0447  0.0779
13301W        W28770   4.247  16.432   1.922  0.0166  0.0093 -0.0538
13302W        W28771   8.916  12.467   4.402 -0.2016 -0.2756  0.0755
13303W        W28772  11.311  12.328  15.651 -0.0240  0.2613 -0.1323
13304W        W28773  14.441  10.079  15.417  0.2075 -0.0612 -0.2943
13305W        W28774  16.738   5.010   0.356 -0.1031 -0.4038  0.2230
13306W        W28775   2.364   1.063   1.733 -0.3123 -0.3639  0.1076
13307W        W28776   7.179   3.737  12.125  0.1756 -0.1761  0.1867
13308W        W28777   3.414  18.019   4.822 -0.1734 -0.0374  0.2453
13309W        W28778  14.721  17.260   2.073  0.1771  0.0006  0.0337
13310W        W28779   7.212   0.519  13.927  0.0491 -0.2036 -0.3065
13311W        W28780  15.317  14.096   3.513 -0.3023 -0.0955  0.1593
13312W        W28781   5.454  17.062  14.551 -0.2904 -0.0849 -0.1558
13313W        W28782   0.162   8.080   9.677  0.0511  0.1754  0.1145
13314W        W28783   3.641   9.955   4.606  0.0801  0.0859  0.1641
13315W        W28784  14.075   1.350  10.874  0.3137  0.3657 -0.2084
13316W        W28785   0.114   9.204  11.239  0.1058 -0.2231  0.4632
13317W        W28786  15.320   9.266  13.982  0.0836 -0.0578 -0.0113
13318W        W28787  16.333   6.880   0.994  0.2389  0.4726 -0.3090
13319W        W28788  13.560  14.773   4.050  0.1348  0.0051  0.2818
13320W        W28789   7.935   8.543   3.485 -0.0764  0.1119 -0.0860
13321W        W28790  18.471  16.024  13.625 -0.2312  0.4016 -0.0261
13322W        W28791   7.434  18.298  12.063  0.0598  0.0809 -0.1699
13323W        W28792   7.630  16.091   0.001  0.1766 -0.1809 -0.1032
13324W        W28793  10.360  10.842  11.293  0.2519 -0.0464 -0.2477
13325W        W28794  18.158  18.443   0.118  0.0693 -0.1833  0.2317
13326W        W28795  16.516  12.621  11.180 -0.3841 -0.0279  0.0796
13327W        W28796  15.371   7.855  12.104 -0.0814 -0.0477  0.0186
13328W        W28797   0.003  10.042  15.174 -0.0188 -0.1325 -0.0209
13329W        W28798  12.096  13.229   1.482 -0.3145  0.0966  0.4266
13330W        W28799  17.705   8.599   4.133  0.0840 -0.0499 -0.0003
13331W        W28800  13.385   6.627   0.731 -0.0980 -0.2152  0.1170
13332W        W28801  16.601   1.468   2.753 -0.0650  0.2962  0.1776
13333W        W28802   7.237  15.651   0.080  0.1588  0.1230 -0.1376
13334W        W28803   9.915   3.343   4.142  0.0962 -0.0390 -0.2362
13335W        W28804   5.423   2.029   3.530 -0.0412 -0.1258  0.2217
13336W        W28805  14.952   1.895   4.015 -0.0713  0.3284 -0.0810
13337W        W28806   1.465  10.564  15.520 -0.0064  0.0349 -0.0119
13338W        W28807   0.511   5.061   5.087 -0.2321 -0.0937  0.0029
13339W        W28808  11.760   6.736   4.639  0.2321 -0.0551 -0.1382
13340W        W28809   9.960   4.267   1.862 -0.2330 -0.0611  0.0064
13341W        W28810  14.418   7.117   4.033 -0.0905  0.0133  0.2368
13342W        W28811   3.506  15.540   4.059 -0.0202  0.1234  0.4485
13343W        W28812   7.301   9.062   4.123  0.2202 -0.2166 -0.0613
13344W        W28813  14.292   6.281   5.145 -0.1407  0.1841  0.1856
13345W        W28814  17.203  17.919   4.290  0.0454 -0.2993 -0.1302
13346W        W28815  17.723   7.456  14.259 -0.1130  0.2816 -0.0202
13347W        W28816  12.738   3.882  11.321 -0.0209  0.0746 -0.0182
13348W        W28817   5.308  12.098  12.286 -0.0067  0.0145 -0.1187
13349W        W28818  11.427   2.510  14.584  0.2542 -0.2744  0.0826
13350W        W28819   7.803   4.928   1.297 -0.1369  0.0103  0.0089
13351W        W28820   7.436   0.122   0.499  0.1886 -0.0300 -0.0984
13352W        W28821  10.671   0.030  14.045 -0.1041 -0.0579 -0.1202
13353W        W28822  16.390  10.585   3.364 -0.2105 -0.0716 -0.1647
13354W        W28823   5.927  17.701   0.577 -0.0027 -0.0577  0.0669
13355W        W28824  14.395   3.943  14.794  0.3081 -0.0536  0.0115
13356W        W28825  15.066   3.985   2.607  0.1492 -0.2621  0.1944
13357W        W28826  12.854  17.232  14.262  0.0332  0.1703  0.1683
13358W        W28827   9.848   0.711   5.059 -0.2482 -0.2481 -0.2216
13359W        W28828  16.685   2.768   3.148 -0.0937  0.0985 -0.0718
13360W        W28829  13.043  11.422  13.322 -0.2076  0.0830 -0.3222
13361W        W28830   3.844  10.308  13.470 -0.2676  0.2090 -0.3551
13362W        W28831   3.673  16.991  11.123 -0.1532  0.1251 -0.1544
13363W        W28832   5.602   7.182  12.126 -0.3894 -0.3554 -0.2197
13364W        W28833   1.469   6.606  13.733  0.0955 -0.1260 -0.0403
13365W        W28834  16.558   0.950  11.078  0.3258 -0.0649  0.0307
13366W        W28835  17.788   2.353  12.837  0.1424  0.4496 -0.2751
13367W        W28836  12.786   9.925   3.880 -0.4309  0.1393  0.1400
13368W        W28837   1.253  13.148  12.206 -0.0729 -0.2545 -0.2645
13369W        W28838   2.401  16.265   3.676  0.0061  0.4417  0.3587
13370W        W28839  17.085   6.215   0.351 -0.3579  0.1934 -0.1040
13371W        W28840   3.041  17.947   3.870 -0.0425 -0.0226  0.1919
13372W        W28841  11.428   7.852   3.359 -0.4712 -0.1423 -0.1238
13373W        W28842   0.571   6.024   2.397  0.0908 -0.1228 -0.0119
13374W        W28843   6.002  10.438   1.426 -0.4009  0.1566 -0.0916
13375W        W28844  14.065  14.157   2.344  0.1836 -0.1426 -0.0904
13376W        W28845  13.873   1.510  15.705  0.0811 -0.0950  0.0187
13377W        W28846   3.002  17.979  13.463  0.2112  0.2064 -0.1512
13378W        W28847   9.727  15.899  11.159  0.0400  0.0039 -0.0019
13379W        W28848   4.845  18.274   1.162  0.1536 -0.1130  0.1458
13380W        W28849  15.297   4.776  11.951  0.0015 -0.3102  0.2490
13381W        W28850  17.817   3.312  14.302 -0.1055  0.1911 -0.1883
13382W        W28851  17.077  13.773   5.105 -0.1989 -0.0602 -0.0824
13383W        W28852   4.355   3.961   3.013 -0.0253  0.1075  0.0707
13384W        W28853  18.175  18.020   0.313 -0.0594 -0.4908 -0.0538
13385W        W28854   3.472   4.139  11.020 -0.2111  0.2797  0.3284
13386W        W28855  13.870  10.132  11.010  0.0894  0.4739  0.4634
13387W        W28856  14.789  15.506   0.024  0.0012 -0.4935  0.0975
13388W        W28857   7.276  11.522   5.294  0.0491 -0.1832  0.1795
13389W        W28858  12.037   1.737  11.508  0.1812 -0.0389  0.2177
13390W        W28859  11.810   9.620   1.510 -0.0328  0.0040  0.0224
13391W        W28860   8.239  16.151  12.932 -0.2670  0.1137 -0.4492
13392W        W28861   6.781   4.155  11.163  0.1321 -0.2506  0.0736
13393W        W28862  17.435  10.503  12.111 -0.0692 -0.0656 -0.1084
13394W        W28863  14.009   5.352   5.369 -0.0792 -0.1505 -0.3414
13395W        W28864   4.947  16.534   1.498 -0.2888  0.0227  0.0627
13396W        W28865   6.927  17.268  12.536  0.0157  0.3148 -0.5650
13397W        W28866  18.397  17.100  14.691  0.0536 -0.2258  0.1507
13398W        W28867   5.665   7.983   1.166  0.1127 -0.0102  0.0192
13399W        W28868  16.936  10.107  14.944 -0.0977 -0.4311 -0.0677
13400W        W28869   8.609   8.160   4.756  0.0841  0.2306  0.1509
13401W        W28870  12.355   4.561   1.023  0.1046  0.0755 -0.0017
13402W        W28871  16.485   1.966  15.050 -0.0629  0.2995  0.2430
13403W        W28872  17.349   5.914   0.880 -0.0406 -0.2824  0.1432
13404W        W28873  17.876   5.113   3.897 -0.3854  0.0677  0.0726
13405W        W28874  12.588  10.923   2.033  0.2173 -0.0764 -0.2770
13406W        W28875   4.456  12.775   0.728  0.0694 -0.0647 -0.0626
13407W        W28876   2.766  11.814   1.388 -0.0253  0.3156 -0.0360
13408W        W28877   9.440  11.321  11.055  0.1073  0.0053  0.1000
13409W        W28878  11.054  12.939   2.235  0.0565 -0.1932 -0.1564
13410W        W28879  11.192   4.839   1.756 -0.5517  0.2522  0.1394
13411W        W28880  17.936  11.666   0.286  0.1118  0.1634 -0.0330
13412W        W28881   5.498  16.697  12.922 -0.0924 -0.1960 -0.1337
13413W        W28882  12.956  18.210   2.053 -0.1845 -0.3061  0.1614
13414W        W28883  18.112   0.978   4.960 -0.0684  0.1640  0.1423
13415W        W28884  18.691   2.870  13.921  0.4514  0.2368 -0.0585
13416W        W28885   7.875  17.526   3.045  0.1032 -0.0038 -0.0067
13417W        W28886   6.345   3.041  10.469 -0.1118 -0.0424 -0.0552
13418W        W28887   8.872   5.256  12.767 -0.1900  0.0266 -0.1988
13419W        W28888   3.638   1.717   3.812  0.1271  0.1705  0.2640
13420W        W28889  11.591   9.043  14.376 -0.2688 -0.1688  0.0114
13421W        W28890   4.037  13.764  14.077 -0.0295  0.1498 -0.3513
13422W        W28891  11.295   8.857   0.439  0.1560  0.0544  0.1056
13423W        W28892  14.738  17.981  12.196  0.3787 -0.0135  0.2341
13424W        W28893   6.378  18.591   2.418  0.1042  0.0963 -0.2696
13425W        W28894  12.390  17.766   3.244 -0.2859  0.0916 -0.1704
13426W        W28895   5.404   2.295   0.706 -0.1548 -0.1129 -0.0695
13427W        W28896   0.249  14.160   4.969 -0.0408 -0.0088 -0.0458
13428W        W28897  14.176  14.780   1.457  0.1215  0.0506  0.1333
13429W        W28898   0.568   3.807  15.248  0.0922  0.3533  0.1607
13430W        W28899   2.922  14.859  13.828 -0.0011  0.0344 -0.2274
13431W        W28900   1.744  10.146  15.361  0.0923  0.1765  0.0574
13432W        W28901  13.808   0.812   3.285 -0.1121  0.1092 -0.1088
13433W        W28902  11.129  10.876  14.377 -0.0971 -0.1174 -0.2368
13434W        W28903  12.487   4.203   2.320 -0.2927  0.2350 -0.0836
13435W        W28904  14.310  17.511   4.869 -0.1551 -0.3014  0.1286
13436W        W28905   9.251   0.728  14.523  0.1296  0.0577  0.2126
13437W        W28906  11.645  15.670   6.257 -0.0997 -0.1115 -0.1082
13438W        W28907   6.094   9.432   2.287 -0.1299 -0.0396 -0.3717
13439W        W28908   4.398  11.348  15.740 -0.1798 -0.2168 -0.0260
13440W        W28909  18.536   3.019   1.969 -0.1153  0.0027  0.0846
13441W        W28910  11.689  10.531   2.847  0.3075  0.4267  0.3363
13442W        W28911  18.256   9.921   0.974  0.2262  0.1026  0.1595
13443W        W28912   8.475   0.903  12.152 -0.0735 -0.4698 -0.0071
13444W        W28913   7.256   8.923   3.246 -0.0046  0.1572  0.0606
13445W        W28914  12.618  10.228   3.560 -0.0120  0.0106  0.0227
13446W        W28915  16.146   8.074   0.922  0.1571  0.2426  0.1948
13447W        W28916   0.207   1.359  11.967  0.3306  0.1085 -0.3925
13448W        W28917   9.130   6.234  11.375 -0.0529 -0.1408 -0.1098
13449W        W28918  14.582  14.702  15.644  0.0104  0.0492 -0.1505
13450W        W28919   4.869   7.271  12.860  0.0409  0.3329 -0.0054
13451W        W28920  11.123   5.462  15.486  0.0762  0.0571 -0.1402
13452W        W28921   1.821   8.935   0.255 -0.1971 -0.2383 -0.3056
13453W        W28922  11.622   3.428  15.193  0.0252  0.0200 -0.1873
13454W        W28923   7.926  13.678  15.615 -0.1419  0.2053 -0.2610
13455W        W28924   3.190  15.241  11.816  0.3118 -0.1769  0.3644
13456W        W28925   1.983   8.893   3.714 -0.0816 -0.1333 -0.0517
13457W        W28926  18.274   2.451  13.682  0.1586  0.2125 -0.1776
13458W        W28927   6.518   5.219   5.022  0.3154 -0.0526  0.0847
13459W        W28928  13.603  18.481   3.451  0.0520  0.1620 -0.0618
13460W        W28929   8.775   4.661  13.989  0.0355  0.2063  0.0731
13461W        W28930  12.834   9.099  15.310 -0.2056  0.2043 -0.3114
13462W        W28931  11.838  11.981   4.514  0.0122  0.2991 -0.0258
13463W        W28932   9.437  13.438   5.455 -0.0172  0.0632 -0.1023
13464W        W28933  11.751   9.296  13.588  0.1107 -0.4935 -0.1789
13465W        W28934   6.131   7.683   4.836 -0.3724  0.3410  0.2073
13466W        W28935  14.583  17.797   0.752 -0.0401 -0.1276  0.3422
13467W        W28936   2.468   5.020   5.585  0.3216  0.1781 -0.3528
13468W        W28937   8.961   7.447   2.230 -0.1703  0.1304  0.2758
13469W        W28938   8.608   9.891  15.409 -0.3847 -0.0184 -0.0756
13470W        W28939  11.219  18.613  13.663  0.1178  0.0764  0.0030
13471W        W28940   7.274  13.417   4.999  0.1756 -0.0920 -0.1407
13472W        W28941  10.062   4.589   4.121 -0.0367 -0.2865  0.0042
13473W        W28942  10.132  13.358   3.827  0.2224  0.2696 -0.2869
13474W        W28943  17.328   1.354   4.619 -0.1797  0.4420  0.2488
13475W        W28944   2.882   6.162  15.382 -0.0595 -0.2200  0.0247
13476W        W28945   2.390  13.561   2.581 -0.0706 -0.0197  0.1224
13477W        W28946   6.492  13.916   1.454 -0.2495  0.2497  0.1029
13478W        W28947  12.291  15.898  13.012 -0.1733 -0.2202 -0.2718
13479W        W28948   2.292  14.167  14.701  0.3103  0.1464 -0.1074
13480W        W28949   3.222   3.662   2.418  0.0815  0.1827  0.0518
13481W        W28950  10.600  16.230   2.456 -0.3561  0.2093 -0.3923
13482W        W28951   5.142  14.626   3.222  0.2160 -0.2796 -0.0721
13483W        W28952   6.164   2.931  11.479 -0.4314  0.1575  0.0790
13484W        W28953  13.621   8.367   2.836 -0.1446 -0.2131  0.0292
13485W        W28954   5.789   5.624  12.990  0.0022  0.0158  0.1289
13486W        W28955  15.638   0.914   3.232 -0.0704 -0.1009 -0.1106
13487W        W28956   8.408  14.422   5.318  0.0455  0.4326  0.0093
13488W        W28957  14.963  12.367  12.114 -0.0912  0.1069 -0.1689
13489W        W28958   7.924   3.679  10.741  0.0461 -0.1492 -0.1988
13490W        W28959   4.236  12.185  13.809 -0.0412 -0.0707  0.0102
13491W        W28960   5.169  13.310  15.494  0.0122 -0.0418 -0.0982
13492W        W28961   1.987  15.214   5.473  0.2080 -0.1349 -0.0123
13493W        W28962  16.970   7.158   2.426 -0.1375  0.0047  0.9020
13494W        W28963   6.511   3.032   1.479  0.0636  0.1735 -0.0012
13495W        W28964   9.177  13.571  12.281  0.0469 -0.2680 -0.2492
13496W        W28965   0.771  11.275   3.638  0.0692  0.3425 -0.1474
13497W        W28966  18.384  14.251   5.193  0.2320 -0.1161 -0.0295
13498W        W28967  12.201   1.972   3.721 -0.1956  0.3001  0.0830
13499W        W28968   4.142  17.567   4.695  0.1061 -0.2906 -0.2922
13500W        W28969  11.405  16.968  13.309 -0.4369 -0.4427  0.1767
13501W        W28970  11.070  17.735  14.138 -0.0124  0.0036 -0.0177
13502W        W28971   2.018   0.020  11.734  0.0649 -0.3058  0.6283
13503W        W28972   6.606   5.535  13.711 -0.0468 -0.1279 -0.1363
13504W        W28973  12.550  14.855   0.020  0.1308 -0.0423 -0.0355
13505W        W28974   2.269  13.547  11.928 -0.0623 -0.2304 -0.0199
13506W        W28975  17.679   7.954   1.645 -0.0813 -0.0100  0.1105
13507W        W28976   8.597  13.045  12.855  0.2019  0.1170 -0.2458
13508W        W28977   7.024   0.645   1.364 -0.1189  0.0803 -0.2463
13509W        W28978   3.370   4.448   4.843  0.0609  0.0866  0.0474
13510W        W28979  12.361  11.572   1.455 -0.2408  0.1080 -0.0485
13511W        W28980   6.318  17.959  15.424 -0.0714  0.0701  0.0185
13512W        W28981   4.389   6.911   2.730  0.1286 -0.0035  0.2066
13513W        W28982  12.842   1.887  11.862 -0.1526  0.2593 -0.1721
13514W        W28983   5.305   4.845  15.203  0.1550 -0.1306  0.0061
13515W        W28984  16.013   1.329  13.192  0.1013  0.6242 -0.1756
13516W        W28985  17.071   5.664  11.760 -0.1709  0.0065  0.0132
13517W        W28986  10.724   8.612   2.683  0.1911  0.0795 -0.2274
13518W        W28987   4.777   3.496  12.051  0.2150  0.2049  0.2542
13519W        W28988   0.678  17.223   0.781  0.2088  0.0082 -0.3500
13520W        W28989   9.756   8.279   3.966  0.0627  0.2651 -0.0956
13521W        W28990  10.634  13.316  12.223  0.2504 -0.0816  0.1794
13522W        W28991   7.526  13.095  12.423  0.1576  0.1613  0.2204
13523W        W28992   1.664  16.919  14.006  0.1775  0.0191  0.0291
13524W        W28993  15.370   7.167   2.159  0.0216  0.0464  0.0217
13525W        W28994  10.257  10.778  14.854 -0.2102  0.0748 -0.0510
13526W        W28995   3.072  10.627   0.569  0.0192 -0.2520  0.1374
13527W        W28996  14.860   8.992  14.110 -0.0421 -0.1393 -0.0997
13528W        W28997   4.850   9.994  14.228  0.0552 -0.0705 -0.1254
13529W        W28998  12.539  11.660  12.384 -0.1859 -0.0527 -0.0136
13530W        W28999  14.649   5.605   2.095 -0.1361 -0.1293 -0.0772
13531W        W29000  14.768  16.999  12.947 -0.2156 -0.1183 -0.1785
13532W        W29001   1.516   6.193   0.379  0.1052  0.3668 -0.2094
13533W        W29002   1.482  11.523  13.947  0.0239  0.1967 -0.0139
13534W        W29003  11.955   0.584  14.986  0.1268 -0.0358  0.1246
13535W        W29004   1.777   6.708   3.147 -0.2751 -0.3142 -0.0528
13536W        W29005   0.538   5.980   4.683  0.1998  0.0210  0.2475
13537W        W29006  18.321   3.907  14.371 -0.0230 -0.1744  0.0747
13538W        W29007  18.455   6.140   0.856  0.0516  0.0376 -0.3061
13539W        W29008  13.262  15.486   4.528  0.1696  0.1313  0.1432
13540W        W29009  13.650   3.058   5.523 -0.5037 -0.1098 -0.0146
13541W        W29010   1.843   4.445  12.057  0.0317 -0.0229 -0.0290
13542W        W29011   3.362  15.854  13.892 -0.0699 -0.0407 -0.0995
13543W        W29012  13.145  12.947   2.239  0.3338  0.3510 -0.0562
13544W        W29013   5.703  16.245  11.798 -0.2170  0.0068 -0.2460
13545W        W29014   4.650   4.507  10.356 -0.3194  0.0995 -0.0423
13546W        W29015  17.101   2.284  11.364  0.1963  0.1098 -0.3569
13547W        W29016   7.436   1.885  10.458  0.1060 -0.0483  0.0554
13548W        W29017  12.654   4.924  11.313 -0.2749  0.2725 -0.1573
13549W        W29018   3.048  14.796   3.468 -0.0969  0.1434 -0.1124
13550W        W29019  11.232  11.437   2.910  0.1381  0.1759 -0.0698
13551W        W29020  13.124   0.377  15.062 -0.0463 -0.1453 -0.1573
13552W        W29021   5.859  16.787   2.640 -0.1004 -0.2690 -0.0352
13553W        W29022   9.138  15.768   1.716 -0.1678 -0.1013  0.2597
13554W        W29023  15.314   8.106   2.373 -0.3145  0.0295  0.3129
13555W        W29024  17.148  10.163   4.286 -0.0120 -0.0820 -0.0378
13556W        W29025   9.407   1.705  12.773 -0.1684 -0.3311  0.1318
13557W        W29026  17.406  18.219   1.607 -0.1510 -0.2969 -0.1413
13558W        W29027   0.952  18.614   4.121 -0.0702 -0.0817 -0.0219
13559W        W29028  10.460  16.988   1.335 -0.1798 -0.2109  0.1558
13560W        W29029  15.490  13.133   0.053 -0.0028 -0.4237 -0.2333
13561W        W29030   6.389   5.758  12.405 -0.2483  0.0278 -0.1193
13562W        W29031   8.142  15.163   3.802 -0.3485  0.4323  0.2419
13563W        W29032   1.286  11.328   4.522 -0.0311 -0.0632  0.1660
13564W        W29033   6.544   1.049   5.662 -0.2018 -0.1423  0.3426
13565W        W29034   3.422  15.498   0.545  0.0978  0.2642 -0.0726
13566W        W29035   7.512   8.539   9.867  0.2488 -0.2909  0.0848
13567W        W29036  14.624   1.829  13.865 -0.0181 -0.2222  0.2076
13568W        W29037  15.799  12.595   0.732 -0.0104 -0.1119  0.3522
13569W        W29038  13.395  13.108  15.383 -0.0982 -0.1478 -0.0448
13570W        W29039  13.964  16.294   4.541  0.0789 -0.0254  0.1651
13571W        W29040  10.643   5.418   4.053  0.1180 -0.1018 -0.2057
13572W        W29041  12.493   6.694   1.088  0.1923  0.0437  0.0708
13573W        W29042   5.545   1.602  14.022 -0.0296  0.0237 -0.1565
13574W        W29043   8.523  15.823   5.036 -0.5087  0.0215 -0.0997
13575W        W29044   3.452  14.282   4.994 -0.1459  0.1003 -0.1532
13576W        W29045   1.350   2.912  14.603  0.0233  0.1598  0.2191
13577W        W29046   9.659  15.693   2.958 -0.2377  0.1597 -0.4654
13578W        W29047   6.475  16.247  10.980 -0.2846 -0.4469 -0.1723
13579W        W29048  17.654  15.337  12.303 -0.1250 -0.0628 -0.2238
13580W        W29049   3.916   9.365   1.561  0.2328 -0.2470  0.0180
13581W        W29050   2.111   1.183   2.628  0.1117  0.2185 -0.0184
13582W        W29051  15.069   0.215   3.570 -0.2871  0.0477  0.1716
13583W        W29052   9.609   2.226  13.499  0.1091 -0.2575  0.2556
13584W        W29053   3.673   2.309   3.739  0.1203  0.1522 -0.0946
13585W        W29054  13.381  15.871  10.740 -0.2391  0.3338  0.2962
13586W        W29055   8.159  16.524  13.825 -0.2819  0.1985  0.0975
13587W        W29056   4.559   3.044   4.748 -0.0629  0.1504 -0.0353
13588W        W29057   4.150   6.343   4.131  0.1859 -0.0734  0.0831
13589W        W29058   0.123   9.267  11.929  0.0929 -0.1155  0.1757
13590W        W29059   1.680   9.941   1.409 -0.1837 -0.1037  0.0819
13591W        W29060   2.254  12.074  13.035 -0.0883 -0.0069  0.1229
13592W        W29061   5.534  10.488   3.343 -0.1226  0.0018 -0.2206
13593W        W29062   2.104   0.709  14.203  0.2411 -0.2458 -0.2001
13594W        W29063  10.885   4.563   0.048  0.1897 -0.1408  0.3027
13595W        W29064  18.695  16.663   3.263  0.2039  0.2114  0.2744
13596W        W29065   9.912   7.700   2.344  0.0244 -0.0373  0.1628
13597W        W29066   3.037  13.350   1.424  0.0724 -0.0769 -0.0116
13598W        W29067  10.772   7.718  14.301 -0.0182  0.1697  0.1029
13599W        W29068   9.551  10.786   4.760  0.1814 -0.0511 -0.0420
13600W        W29069   9.175  14.862  12.756 -0.0332 -0.3108  0.1144
13601W        W29070  12.919  11.027  11.767 -0.1095 -0.1585  0.0947
13602W        W29071  13.877  18.615   5.883 -0.2569 -0.1882 -0.2752
13603W        W29072  17.868  10.752  13.805 -0.1626  0.0640 -0.1191
13604W        W29073   7.285  18.068  12.824  0.0043 -0.1210  0.1912
13605W        W29074   6.303  13.667   4.589  0.2444 -0.3718 -0.0402
13606W        W29075   6.609   2.723  11.660  0.1422  0.3023 -0.1617
13607W        W29076  12.391   8.627   2.436  0.0279 -0.1474 -0.1496
13608W        W29077   5.724   2.007  12.816 -0.2872 -0.0005 -0.1357
13609W        W29078   4.841   4.835  12.085 -0.2341  0.1340 -0.1152
13610W        W29079   3.887   5.874  15.193 -0.0550 -0.2192 -0.2249
13611W        W29080   4.665  10.836   5.489  0.1722 -0.0306 -0.1276
13612W        W29081  14.399  15.759   2.868 -0.1488  0.3125  0.1039
13613W        W29082  13.468  13.401  11.088 -0.1830 -0.1065  0.0805
13614W        W29083   3.363   5.331   5.076  0.1931 -0.0437  0.0356
13615W        W29084  11.792   8.715   1.637  0.0297  0.0278  0.1355
13616W        W29085   1.158   4.569  15.198  0.0183  0.1480  0.1235
13617W        W29086   9.167  15.496  15.296  0.1910  0.0024  0.1565
13618W        W29087   6.500   8.014   1.672  0.0040 -0.0522  0.1082
13619W        W29088  14.190   1.792   0.944 -0.2532 -0.2970  0.0006
13620W        W29089  11.568  16.870  12.406  0.1188 -0.2004  0.1365
13621W        W29090   3.516   5.615  13.881  0.2697  0.1590  0.3045
13622W        W29091  14.752  17.649   0.240 -0.3726 -0.3214 -0.0769
13623W        W29092  14.121   3.149  15.041 -0.1474  0.2394 -0.2043
13624W        W29093  11.745   7.181  11.544 -0.1036  0.0017 -0.1339
13625W        W29094  17.193  11.283  12.387 -0.2690  0.3418  0.1852
13626W        W29095  15.240  13.747   9.762 -0.2178  0.2222 -0.2230
13627W        W29096   7.730  16.382   2.247  0.0911  0.0086 -0.3815
13628W        W29097  10.279   5.810   4.271  0.2800  0.0732 -0.2550
13629W        W29098  10.729   1.343   9.822  0.2784  0.2833 -0.1889
13630W        W29099   4.258  11.556  11.213  0.2787 -0.0239  0.0334
13631W        W29100  11.057  17.781  12.109  0.5982 -0.0178  0.1222
13632W        W29101  13.009  12.411  12.985  0.2792 -0.4694  0.0750
13633W        W29102  17.264   7.467   0.122 -0.1177  0.0446 -0.3551
13634W        W29103   1.394   7.047  10.940  0.1882 -0.2509 -0.2055
13635W        W29104  12.412   0.430  15.178  0.0012 -0.1268 -0.0143
13636W        W29105   0.874   1.816   1.730  0.0829 -0.0985  0.1940
13637W        W29106  10.791  10.851   3.547  0.2688 -0.0401  0.0984
13638W        W29107   7.468   4.859  10.795  0.3615  0.2815  0.0377
13639W        W29108  10.355  15.361  14.691  0.1487  0.0160 -0.0780
13640W        W29109   4.613   5.984   1.416 -0.1710 -0.1445 -0.1476
13641W        W29110  16.120  12.845   3.144 -0.0630 -0.0516  0.0456
13642W        W29111  16.611   2.699   0.414 -0.0896 -0.1584 -0.0661
13643W        W29112   6.582  15.929  13.314 -0.1450  0.2063  0.2026
13644W        W29113  13.790   8.141   5.366 -0.1347 -0.3035  0.1477
13645W        W29114   6.633   5.504  13.175 -0.0348  0.1395 -0.0339
13646W        W29115  14.201   5.653  13.312 -0.1531 -0.1728  0.1244
13647W        W29116  17.639  11.069  12.304 -0.3932 -0.0944 -0.3118
13648W        W29117  17.938  14.414  11.546 -0.0833  0.3091  0.1361
13649W        W29118   7.883   5.082  15.637 -0.0459 -0.0087 -0.0271
13650W        W29119   0.795   8.666  15.190 -0.1361 -0.0343  0.3007
13651W        W29120   6.133   4.551   2.249 -0.2577 -0.2003  0.1052
13652W        W29121  16.780  14.014  11.544  0.0635  0.0310  0.2379
13653W        W29122   2.844   6.035  11.651  0.3324  0.1080 -0.0383
13654W        W29123   1.095   0.439  10.777 -0.1771 -0.1438 -0.1123
13655W        W29124   3.762  11.468   0.624 -0.0772 -0.2297  0.2570
13656W        W29125  15.342   7.340   4.110 -0.0019  0.0011  0.1051
13657W        W29126   0.082   7.369   2.089  0.1584 -0.3646  0.4437
13658W        W29127  10.955  18.028  15.079 -0.0164  0.1147  0.1120
13659W        W29128   6.511   1.554  12.633  0.0417 -0.2082  0.3443
13660W        W29129   7.595  10.327  13.514 -0.0182  0.4685 -0.0030
13661W        W29130   7.806   6.424   2.844 -0.1933  0.3026 -0.0588
13662W        W29131  14.106  18.599  13.445 -0.1004  0.2162  0.0214
13663W        W29132  12.270   2.636  10.558  0.0147 -0.3271  0.3761
13664W        W29133   1.619   7.865  10.948 -0.0980 -0.2567  0.0304
13665W        W29134  10.421   0.289  15.201  0.1547  0.0302 -0.2239
13666W        W29135  14.381  11.994  10.815 -0.1712  0.2541 -0.1993
13667W        W29136   4.382   6.235  11.648 -0.1605 -0.1490  0.2177
13668W        W29137   5.800   0.254   4.748  0.0247  0.0019 -0.1648
13669W        W29138   4.538   9.225   2.857 -0.0464 -0.1207  0.0792
13670W        W29139  14.422   7.366   4.461 -0.1220  0.0134  0.4782
13671W        W29140  16.085   9.830  13.509  0.2595  0.2262  0.3941
13672W        W29141  11.377   6.553  12.795 -0.0118 -0.1019 -0.0500
13673W        W29142   4.547  11.230  11.807 -0.0900  0.2732 -0.2772
13674W        W29143   2.076   3.797  11.267  0.3470  0.1997  0.0018
13675W        W29144  18.162   6.119  13.170  0.0565 -0.0616  0.1060
13676W        W29145  10.816  14.559  14.845 -0.5195 -0.1348 -0.0793
13677W        W29146   3.607   4.550   2.129 -0.0557  0.1569  0.1094
13678W        W29147   9.623   7.045  13.285  0.1709  0.0435  0.0931
13679W        W29148  14.504  11.710  13.286 -0.0813  0.1772 -0.2856
13680W        W29149   0.230  15.974  13.234  0.1955  0.0110  0.2806
13681W        W29150  10.611  16.559  12.418 -0.0665 -0.0072 -0.3480
13682W        W29151   0.304   4.941   3.042  0.2187  0.0512 -0.1866
13683W        W29152  11.444   3.016  14.888  0.1236 -0.3458  0.2014
13684W        W29153   2.866  13.304  14.764 -0.0396 -0.0192  0.1247
13685W        W29154  16.425   4.970   4.238 -0.0106 -0.2713  0.0407
13686W        W29155   8.001   5.762  14.768  0.1720 -0.1027 -0.0702
13687W        W29156   0.654   2.909  13.273 -0.0248  0.4081 -0.2970
13688W        W29157   5.915  15.602   3.200 -0.1067 -0.1108  0.1050
13689W        W29158   9.718  10.940   1.263 -0.3137  0.0843 -0.2277
13690W        W29159   8.417   5.259   2.129  0.1493 -0.1024 -0.1271
13691W        W29160   8.191   9.967   1.666 -0.1692 -0.2221 -0.2542
13692W        W29161   0.429  11.565   3.883  0.2726  0.0532 -0.1972
13693W        W29162  18.048  18.263  15.420 -0.2455 -0.4356 -0.1254
13694W        W29163  10.303   8.955  13.119  0.1886  0.0408  0.0740
13695W        W29164  13.365  15.740   3.972  0.0631 -0.0679  0.1083
13696W        W29165  16.140   5.670   3.754  0.0605  0.2867 -0.1776
13697W        W29166   7.366   4.772   2.607 -0.0611  0.0513 -0.1959
13698W        W29167  16.217  10.149  14.704 -0.0324 -0.4067  0.0047
13699W        W29168   3.356   4.597  11.862  0.1310  0.2764  0.0857
13700W        W29169   5.854  11.481  11.683 -0.2556 -0.1393  0.0248
13701W        W29170   1.235  18.333  12.245  0.0637  0.1526 -0.1748
13702W        W29171  12.095   1.760   5.623 -0.0845  0.0513 -0.0190
13703W        W29172  13.128   7.738  13.796 -0.1543 -0.1206 -0.2253
13704W        W29173   7.098  17.230  14.695  0.2649 -0.2144  0.3019
13705W        W29174   9.517   9.348  10.830  0.0831 -0.2420 -0.0722
13706W        W29175   8.294   1.254  14.730 -0.0985  0.1577 -0.0168
13707W        W29176  15.080   0.704   3.397  0.0250 -0.2028 -0.4637
13708W        W29177   6.159   3.959   2.805  0.1560  0.2607 -0.0084
13709W        W29178   1.119  18.235   3.883  0.1159 -0.0067  0.0206
13710W        W29179   9.038   2.863  12.781 -0.3137 -0.1116 -0.0495
13711W        W29180   4.331   6.928   3.588 -0.1233  0.2238 -0.0481
13712W        W29181  14.960  10.725  12.821  0.3530 -0.0998 -0.1754
13713W        W29182  10.197   7.731   3.476 -0.4015 -0.1058  0.1269
13714W        W29183  17.892  10.274   2.378  0.1504  0.2519 -0.1282
13715W        W29184  16.280   0.259   0.816 -0.3419 -0.1654  0.2190
13716W        W29185   1.773   3.937  14.628  0.3367 -0.1775  0.0358
13717W        W29186   0.938  12.633   0.774  0.0832 -0.1365  0.0577
13718W        W29187   2.961  11.073   6.015 -0.1356  0.0456  0.1114
13719W        W29188  12.099   9.901  13.180  0.3081 -0.2675  0.2958
13720W        W29189   1.253  15.022   3.994 -0.1712 -0.1217 -0.0447
13721W        W29190  15.255  11.871  14.962  0.0081 -0.2218 -0.1245
13722W        W29191   5.244  10.815   3.632  0.0341 -0.2277 -0.0306
13723W        W29192   4.477   2.035  12.344 -0.4265  0.0036 -0.0206
13724W        W29193  12.980   0.573   1.948  0.2647  0.4039 -0.1832
13725W        W29194  16.011  15.125   4.924 -0.0022 -0.2206  0.0464
13726W        W29195   6.769  12.988  11.677 -0.0157  0.0943  0.1383
13727W        W29196  18.114   6.211  14.981  0.2151 -0.2341  0.0762
13728W        W29197   6.530  10.738  11.255 -0.3380  0.0766  0.4756
13729W        W29198  10.757  17.919  13.768  0.0322 -0.3140  0.0876
13730W        W29199   2.841  15.456   4.905 -0.0062 -0.0618  0.2410
13731W        W29200  13.969  17.275  11.171 -0.0079  0.0077  0.1532
13732W        W29201   2.083  13.210  10.777  0.1385 -0.1156  0.0240
13733W        W29202  18.685  17.377  13.952 -0.0781 -0.0161  0.2911
13734W        W29203  18.444  18.067   1.398 -0.0943  0.1710 -0.1100
13735W        W29204  17.613   6.033   1.321 -0.0062  0.0134  0.0333
13736W        W29205   3.793   8.356   2.990 -0.0195  0.1556  0.0681
13737W        W29206   1.817   0.436   3.766  0.0253 -0.0830 -0.0732
13738W        W29207   6.507   9.470   4.492 -0.0096 -0.0486 -0.0665
13739W        W29208   2.725   2.835  13.231  0.1225  0.0886 -0.0088
13740W        W29209  10.988   3.222  12.497 -0.3176 -0.2556  0.0253
13741W        W29210   4.484   1.252   0.699  0.0063 -0.1361 -0.3269
13742W        W29211   8.378  14.023  11.904  0.1136  0.0522  0.2766
13743W        W29212   4.441   4.802  11.739  0.0838  0.1679  0.3332
13744W        W29213  16.874  15.507  13.345 -0.1488  0.1831  0.1250
13745W        W29214   8.710   2.020  13.902  0.0833 -0.1294  0.0796
13746W        W29215   5.389  14.207  13.941  0.0015  0.0649  0.5171
13747W        W29216   4.367   3.522   0.288  0.1297 -0.2825  0.0856
13748W        W29217  15.101  17.839   4.301 -0.3285 -0.0022 -0.0170
13749W        W29218  14.311   4.417  12.158 -0.1291  0.0720  0.2256
13750W        W29219   9.320  14.916  13.292  0.0556  0.1025  0.0021
13751W        W29220   3.427   7.508  12.112 -0.0958  0.2610  0.1398
13752W        W29221  18.276   8.757   0.249 -0.3611 -0.0676  0.2333
13753W        W29222  17.620   4.699  11.440  0.0350  0.0117  0.1024
13754W        W29223   4.267  10.347   1.491 -0.1867  0.1254 -0.0288
13755W        W29224   3.123  11.163   4.862 -0.1783  0.1980 -0.3716
13756W        W29225  17.718   4.052  14.656 -0.0549  0.2026  0.0615
13757W        W29226   9.769   9.936   0.389 -0.2781 -0.5537  0.3291
13758W        W29227  13.361  14.924  13.589  0.0982 -0.0535  0.5228
13759W        W29228   3.650   7.040  14.670 -0.0085  0.0163 -0.2080
13760W        W29229  15.284   1.122   3.795  0.0745 -0.2639 -0.4703
13761W        W29230   3.752  16.234   1.882 -0.3069 -0.0819  0.2123
13762W        W29231   0.420   3.231  11.528  0.0489 -0.2447 -0.0265
13763W        W29232  15.157  16.033   1.959  0.0718  0.0715 -0.4459
13764W        W29233   5.788  15.497   1.377  0.2660  0.1847 -0.2875
13765W        W29234  11.639   9.473  11.149  0.1401  0.0580 -0.1334
13766W        W29235   6.499  11.787   0.654 -0.0963 -0.2344 -0.0648
13767W        W29236  18.459  17.667   0.179 -0.3191 -0.1207 -0.1372
13768W        W29237  12.082   2.034   0.392  0.0260 -0.2502 -0.1106
13769W        W29238  15.486  16.887  13.542 -0.1852  0.1439  0.0100
13770W        W29239  10.622   9.094   4.689 -0.0743  0.3425 -0.2496
13771W        W29240   7.265  17.366   3.638 -0.1864 -0.1467  0.0590
13772W        W29241   5.368  16.173   0.696  0.0477  0.0480  0.0875
13773W        W29242   2.457   8.762   4.128  0.4920 -0.1106 -0.2484
13774W        W29243   3.952   1.514   2.347  0.0948 -0.1381 -0.3158
13775W        W29244  10.016  13.081  11.186 -0.1899  0.1513 -0.0063
13776W        W29245   2.382   3.055   1.561  0.2287  0.0444 -0.1020
13777W        W29246  17.512   7.593  12.748 -0.5659 -0.4880 -0.0284
13778W        W29247  12.057   3.810  14.154  0.1470  0.1865  0.0560
13779W        W29248  13.304  10.155   4.118 -0.2112  0.0611  0.0382
13780W        W29249  11.636   1.775  12.903 -0.1040 -0.0023 -0.1139
13781W        W29250  18.459   0.519   4.971 -0.0617 -0.1639  0.2258
13782W        W29251  16.560  15.367   2.048  0.1767  0.1235  0.0542
13783W        W29252  16.949   0.086  11.827 -0.1717 -0.3260 -0.1817
13784W        W29253   9.384   0.710  13.646 -0.1969 -0.0606 -0.2889
13785W        W29254  17.637  14.193  14.268  0.1285 -0.1430  0.0147
13786W        W29255  13.363   4.480   5.221 -0.1295  0.0630 -0.1381
13787W        W29256  10.890   8.672   0.198  0.3198 -0.1561  0.2343
13788W        W29257  16.320   2.772  15.150 -0.2214  0.2324 -0.2444
13789W        W29258   4.457  11.126  14.112  0.0915  0.0648  0.0337
13790W        W29259   9.069  14.635   3.645  0.0942  0.0360  0.0402
13791W        W29260  11.760   6.547   1.689 -0.0942  0.0674 -0.0909
13792W        W29261   7.622   6.708   5.016 -0.1373  0.1342 -0.1082
13793W        W29262   8.612   7.044  14.352 -0.4241  0.0890  0.0625
13794W        W29263   4.210   0.443  10.706 -0.0063 -0.0953  0.0860
13795W        W29264  11.265   5.687   9.964  0.0177  0.0948 -0.2068
13796W        W29265   0.402   4.110  12.921 -0.1143 -0.2528  0.0118
13797W        W29266  16.743   2.616   0.984 -0.1519 -0.1724 -0.2907
13798W        W29267  15.396  11.230  11.583  0.0694 -0.1082 -0.1344
13799W        W29268   3.204  14.383   2.544 -0.0118 -0.0201  0.2836
13800W        W29269  16.475  12.623   4.052  0.0529  0.0611  0.0398
13801W        W29270  15.148  18.607   3.180  0.0185  0.0946 -0.0822
13802W        W29271   3.405  18.178  12.159  0.1149 -0.1743  0.0177
13803W        W29272  11.039  16.361   1.813  0.1452 -0.1169  0.1369
13804W        W29273   7.408  15.313   3.248 -0.2606 -0.0978  0.0799
13805W        W29274   0.378   2.114  11.082 -0.0001 -0.2445 -0.0635
13806W        W29275  18.112   4.559   4.462 -0.2877  0.0591 -0.1237
13807W        W29276   3.154  10.620   4.596 -0.0468 -0.0751 -0.3061
13808W        W29277  10.600  17.491  13.966 -0.2729 -0.1428  0.2061
13809W        W29278   6.578   8.489  12.245 -0.3042  0.0006  0.1043
13810W        W29279  15.569   2.441   0.016 -0.1929  0.5547  0.1404
13811W        W29280   5.414   9.369   2.404 -0.2086  0.0689 -0.3416
13812W        W29281  14.204  10.665   4.180  0.2604  0.0474 -0.0201
13813W        W29282   6.135   0.318  14.041 -0.2764 -0.2616 -0.1120
13814W        W29283  17.228   5.677  13.372  0.1812 -0.1526  0.0058
13815W        W29284   9.870   0.486   1.582 -0.1952 -0.2720  0.2993
13816W        W29285   5.848   9.728   3.968  0.0955 -0.0068  0.1049
13817W        W29286   7.347  12.513  11.940 -0.0083  0.0465 -0.1125
13818W        W29287  15.686  13.101  14.422  0.0602  0.1791  0.0847
13819W        W29288  12.781   4.054   3.778  0.1671  0.0052 -0.2140
13820W        W29289   6.386   9.481  13.362  0.1841 -0.1894  0.1563
13821W        W29290   1.191  12.654  11.083 -0.0140  0.0268 -0.1354
13822W        W29291   9.043   3.256   2.627 -0.2168  0.1805  0.1302
13823W        W29292  13.585   2.483   2.860 -0.0222  0.0569  0.0749
13824W        W29293   4.830   6.593  11.756 -0.2091 -0.1317  0.2106
13825W        W29294  17.410   9.041  12.671  0.2823 -0.0321 -0.2494
13826W        W29295  15.798  11.733   3.207 -0.0932 -0.0862  0.0169
13827W        W29296  18.696  14.188   2.167  0.0690  0.0198  0.3374
13828W        W29297   6.577   3.028  11.056  0.0499  0.2185 -0.1381
13829W        W29298   7.001  18.415  15.526 -0.1111 -0.2380 -0.0146
13830W        W29299  11.529   5.813  10.947  0.3037  0.1121 -0.0416
13831W        W29300  16.140   8.443   2.294  0.2404  0.0914  0.0897
13832W        W29301  16.055  13.045  11.244  0.2055  0.1455  0.4387
13833W        W29302   3.121  12.673   4.802 -0.2074 -0.2274 -0.0679
13834W        W29303  17.131   7.507  10.854 -0.0488  0.2170  0.0682
13835W        W29304   4.273   0.573   3.057  0.0048 -0.0482  0.2511
13836W        W29305  12.252   3.177  12.982 -0.3280 -0.1533  0.2279
13837W        W29306  14.438   7.124   1.707 -0.3574  0.2475  0.0345
13838W        W29307  13.449  15.005   2.621  0.1526 -0.2830 -0.0387
13839W        W29308   7.310   2.316   2.216  0.0634 -0.2987 -0.1820
13840W        W29309  17.690  18.277  11.692 -0.3960 -0.0833 -0.3314
13841W        W29310   9.939   4.258  12.333 -0.0481  0.0508 -0.1024
13842W        W29311  17.602   7.572  11.214 -0.1007 -0.1331  0.0037
13843W        W29312  10.716  13.357   3.117  0.1055 -0.1245  0.0681
13844W        W29313  11.546   1.854   1.766 -0.0876 -0.0330  0.3313
13845W        W29314  18.661   3.125   3.972  0.0087  0.1216 -0.0578
13846W        W29315   6.785   7.978   1.261  0.2277  0.0609  0.0604
13847W        W29316   7.326   6.700  14.076  0.2927  0.3384  0.0837
13848W        W29317  14.863  18.477  12.821 -0.0352 -0.1840 -0.0916
13849W        W29318   4.548   5.185  12.421  0.1695 -0.0147 -0.0445
13850W        W29319   7.908  12.350   0.760 -0.1756  0.1842  0.1675
13851W        W29320   5.296   5.071  12.238 -0.3199  0.0105  0.3175
13852W        W29321   2.383  15.247   0.535  0.0871 -0.0553 -0.4766
13853W        W29322  15.049  13.262  12.545 -0.0065 -0.2202  0.0939
13854W        W29323   4.566  12.158   0.756 -0.1831  0.0440  0.3784
13855W        W29324   8.272   1.867   4.291  0.0881  0.1234 -0.0940
13856W        W29325   1.718   1.632  13.661 -0.1142 -0.3185 -0.0373
13857W        W29326   8.544  17.725   3.554  0.1544  0.1663  0.0645
13858W        W29327  13.422   8.812   1.253  0.1312  0.0329 -0.4856
13859W        W29328   5.306  16.805  12.419  0.0220 -0.0783  0.1807
13860W        W29329   3.986   8.974  12.916 -0.1009 -0.0589  0.3248
13861W        W29330   0.915  10.875  11.810 -0.0003  0.0443 -0.0347
13862W        W29331  14.116   9.058  13.108 -0.0988 -0.1884  0.1157
13863W        W29332  14.445  11.185   4.064 -0.0669  0.0051  0.1320
13864W        W29333   5.404   2.086  13.272 -0.0562  0.2942  0.1320
13865W        W29334  13.762   3.760  12.367  0.2334  0.0699 -0.0831
13866W        W29335  10.117   1.396  13.881  0.3348 -0.1627  0.0906
13867W        W29336  16.443  18.555  13.004  0.1278  0.2855  0.1018
13868W        W29337  17.319   8.406   6.174 -0.1602  0.1036 -0.1480
13869W        W29338  11.424  11.265  13.177 -0.1454 -0.0011 -0.1055
13870W        W29339  13.481   5.737   3.708 -0.2503 -0.0321  0.2032
13871W        W29340   1.190  18.328   0.467 -0.0668  0.1162 -0.0317
13872W        W29341  11.660  17.936  11.149 -0.0900 -0.0572  0.0716
13873W        W29342  14.910   7.861   2.228 -0.0279  0.3015 -0.2347
13874W        W29343   2.631   1.139  14.880  0.2227  0.0974  0.1965
13875W        W29344  14.207   9.596   3.323  0.0625 -0.0233  0.1124
13876W        W29345  10.896  13.941   3.835  0.2714 -0.1269  0.1642
13877W        W29346  14.029  13.168  14.749 -0.1756 -0.1373 -0.0951
13878W        W29347   8.027  18.087   3.914  0.0099  0.0394 -0.1190
13879W        W29348   7.854  17.680   4.168 -0.3727  0.1973 -0.1549
13880W        W29349   1.337   8.209   2.750 -0.3506  0.1279  0.3493
13881W        W29350  13.428   7.858   3.975  0.0658 -0.1655 -0.0804
13882W        W29351  10.967  12.893  13.784 -0.0056  0.2922 -0.0513
13883W        W29352  13.730   9.357   1.266  0.1964  0.0721 -0.1049
13884W        W29353  18.379  18.438  14.881  0.0941 -0.0395 -0.1798
13885W        W29354   5.059   3.631   0.785  0.0620  0.2126  0.2519
13886W        W29355  17.810  10.870   9.783 -0.0204  0.2889  0.0543
13887W        W29356  18.379  18.415  10.285  0.1509 -0.1555  0.2480
13888W        W29357  15.244  12.230   0.149 -0.1502  0.0528 -0.1816
13889W        W29358  13.187   5.870   0.611  0.1068  0.1940 -0.3167
13890W        W29359   8.309  13.894   5.364  0.1132 -0.2089 -0.1879
13891W        W29360  14.428   5.403  13.725  0.3451 -0.0825 -0.0493
13892W        W29361  16.158   2.838   5.763  0.0165 -0.1639 -0.0978
13893W        W29362  18.649  14.454  12.670 -0.0385  0.2435 -0.2490
13894W        W29363  16.710  18.495   2.330  0.0652 -0.2728  0.2136
13895W        W29364   2.340  10.950   4.157 -0.0973  0.0849 -0.0973
13896W        W29365  14.974  17.668   2.195  0.1844  0.0530  0.0815
13897W        W29366   1.400  17.013  11.419 -0.1792 -0.1924 -0.0062
13898W        W29367  16.689   7.452  10.714 -0.4431  0.0628  0.0428
13899W        W29368   8.895  16.162  12.165 -0.0898  0.1406 -0.0228
13900W        W29369   2.632   7.459  13.649  0.0806 -0.5050 -0.1824
13901W        W29370   6.183   5.146   3.099 -0.1360  0.0886 -0.0330
13902W        W29371  14.084   8.562  11.585 -0.2520  0.1269 -0.3386
13903W        W29372  15.828   2.221  13.133  0.1933  0.1397 -0.1123
13904W        W29373   2.678  17.708  13.980 -0.0398  0.3239  0.0061
13905W        W29374   9.960   3.340   1.586 -0.1788 -0.2110 -0.2570
13906W        W29375  13.424   0.901   0.126 -0.0744  0.0946  0.2915
13907W        W29376   3.708   4.149   4.183  0.0188  0.1002 -0.0369
13908W        W29377  18.337  16.434  13.377  0.0377  0.0018 -0.1399
13909W        W29378   0.592  14.276   0.138 -0.1311 -0.1237 -0.0507
13910W        W29379  11.120   0.743   3.918 -0.0937  0.4525  0.1907
13911W        W29380  17.045  17.193   2.630  0.0917  0.1580 -0.1804
13912W        W29381   6.781   5.751  15.611  0.4194  0.0273 -0.0321
13913W        W29382   1.829  16.095   2.043 -0.2816 -0.0024 -0.2284
13914W        W29383  17.618  15.888  14.044 -0.0900 -0.4634  0.1342
13915W        W29384   0.962  14.770   5.245 -0.1515 -0.0207 -0.0833
13916W        W29385   0.200   5.719   1.709  0.2349  0.0228  0.0221
13917W        W29386  11.531   8.399  13.889  0.1069  0.0917 -0.0392
13918W        W29387  12.835   2.752   4.436  0.1586  0.0225  0.0038
13919W        W29388  16.331  11.543  13.941 -0.0271  0.3765 -0.1263
13920W        W29389   8.397  12.420   5.292  0.0141 -0.0276  0.1959
13921W        W29390  13.259  15.047   4.908 -0.3151  0.2952 -0.3795
13922W        W29391   2.102   3.723  11.822  0.0346 -0.1630 -0.0972
13923W        W29392   6.369   8.609   2.419 -0.1484 -0.0455  0.2515
13924W        W29393   4.990  11.185   2.133 -0.3084 -0.1936  0.0187
13925W        W29394   9.711   0.472   0.559  0.2360 -0.0613  0.1119
13926W        W29395   8.302  12.387  11.247 -0.1728 -0.2532 -0.2101
13927W        W29396  14.473  13.082  15.744  0.2738 -0.1666 -0.0135
13928W        W29397   5.154  15.560  14.814  0.5688  0.0399  0.0685
13929W        W29398   2.511   9.823   4.403 -0.0920  0.0901 -0.2342
13930W        W29399   1.549   9.147  11.523  0.1509  0.0283  0.1887
13931W        W29400  17.643   0.686  12.010 -0.2117 -0.0499  0.0707
13932W        W29401  16.437  15.552  13.485  0.0222  0.0134 -0.0200
13933W        W29402   6.322  12.792  14.518  0.0693  0.2486  0.2182
13934W        W29403  12.865   1.447   6.014  0.2202  0.2881  0.0769
13935W        W29404  14.496  18.567   5.841 -0.2104 -0.1354  0.2134
13936W        W29405   1.699  14.710   2.203  0.0081 -0.2302  0.2229
13937W        W29406   1.659   6.214  10.526 -0.0854 -0.0727  0.1404
13938W        W29407   6.068  11.093   2.154  0.0851 -0.0015  0.1769
13939W        W29408   8.732  18.181   2.645 -0.1573 -0.0194 -0.3231
13940W        W29409   9.344  16.922   1.240  0.0807  0.1511  0.2576
13941W        W29410  14.339   9.295   3.945  0.0507  0.0087 -0.1094
13942W        W29411  16.812  14.860  12.459  0.1119 -0.2220  0.0410
13943W        W29412  11.377  12.759  11.581  0.1759 -0.4736  0.0353
13944W        W29413  14.068  17.581   1.634  0.2706 -0.1227  0.0561
13945W        W29414   3.752  12.542  11.544 -0.0484 -0.0734 -0.2148
13946W        W29415  14.431   2.809  11.038 -0.3259  0.0086 -0.1819
13947W        W29416   5.272   5.820  15.483 -0.1596  0.1837 -0.1052
13948W        W29417   0.314   5.261   1.981 -0.0484 -0.3460  0.2289
13949W        W29418  15.219   8.816  12.773 -0.3594  0.2364 -0.1239
13950W        W29419  17.737   3.808  15.105  0.0411  0.2479 -0.0444
13951W        W29420   3.172   3.195  14.755  0.1611 -0.2521  0.0947
13952W        W29421   8.559  11.965  13.453  0.0703  0.2643 -0.3791
13953W        W29422  11.617   3.315   2.354  0.1148  0.0647 -0.0674
13954W        W29423   9.661   6.054  11.519 -0.5480  0.0516  0.1263
13955W        W29424  17.886   5.203  12.837  0.1008  0.3188 -0.0499
13956W        W29425  12.681  15.438  15.400  0.2153  0.4022  0.0504
13957W        W29426  13.807  15.394   1.944  0.0578  0.0307  0.0671
13958W        W29427  15.747   4.062   2.057  0.1547 -0.3121 -0.0373
13959W        W29428   4.904   5.149  15.095 -0.0177  0.3464 -0.0455
13960W        W29429  12.852   6.927   6.069  0.0551  0.2338  0.1704
13961W        W29430   0.248   2.640  14.312  0.0011  0.3570 -0.0099
13962W        W29431  18.055   6.548   4.645 -0.3406  0.2912  0.4697
13963W        W29432   0.005  11.356  13.834 -0.2123 -0.2529 -0.3187
13964W        W29433  15.512  10.489  12.846  0.4115 -0.0648  0.0099
13965W        W29434  16.258  12.830   1.488  0.0348  0.0028  0.0828
13966W        W29435   1.612  10.337   5.385 -0.0081 -0.3794  0.4449
13967W        W29436  15.871   1.648   4.492  0.3935  0.0663  0.0750
13968W        W29437   3.735   9.364   5.115  0.2580  0.2840 -0.0263
13969W        W29438  13.969  13.155  13.675 -0.1192  0.0636 -0.0191
13970W        W29439   4.477   9.218   3.366 -0.3942  0.2898 -0.0342
13971W        W29440  15.773   4.405   3.792  0.1217 -0.1327  0.3289
13972W        W29441  11.707  12.934  12.397  0.2290  0.1400 -0.2675
13973W        W29442  12.603   7.148  13.083 -0.0979 -0.0908  0.0615
13974W        W29443  10.679  18.642  13.093 -0.6002  0.0224  0.2512
13975W        W29444   2.023  13.453   1.064 -0.1139  0.1351  0.1383
13976W        W29445  14.989  16.665  15.118 -0.2076  0.0932 -0.1455
13977W        W29446   1.112  10.889   3.741  0.0853  0.0695  0.0664
13978W        W29447   8.076  10.230   5.901  0.0257 -0.1001 -0.0822
13979W        W29448   5.676  10.721   2.283  0.0126  0.1542  0.0236
13980W        W29449   2.361   6.672   0.488  0.4256 -0.1613  0.1067
13981W        W29450   1.843   1.409  12.439 -0.2934  0.3584  0.1241
13982W        W29451   4.436   9.408   2.289 -0.1260 -0.1411 -0.3193
13983W        W29452   8.000   6.162   1.830 -0.2876 -0.0725  0.2859
13984W        W29453   9.763  16.471  14.018 -0.2077  0.2236  0.1928
13985W        W29454   6.145  17.456   1.315 -0.0413  0.0396  0.0701
13986W        W29455   4.448   2.135   3.417  0.0337 -0.1456  0.1078
13987W        W29456  12.558   0.902   1.908 -0.0650  0.0201 -0.1031
13988W        W29457  13.231  13.857   1.994  0.0281  0.3405  0.0627
13989W        W29458   5.840   2.023   0.775 -0.0681 -0.3330 -0.0352
13990W        W29459  16.582  16.069  14.190 -0.6196 -0.1329 -0.2654
13991W        W29460  10.168  15.524   0.207  0.1919  0.1857  0.0711
13992W        W29461   9.028  14.550  14.451  0.1770 -0.0141  0.1771
13993W        W29462  13.211  11.223   4.159 -0.3706 -0.1043  0.0368
13994W        W29463  12.434   8.565  12.434 -0.1280  0.1077 -0.2101
13995W        W29464  17.321   5.307  12.516 -0.1851 -0.0060 -0.2323
13996W        W29465   4.308   9.844   0.029  0.0486  0.3822 -0.3628
13997W        W29466  15.241   7.940  11.588 -0.0002  0.1677  0.0573
13998W        W29467  15.867  14.293  11.287  0.0721 -0.2865  0.3827
13999W        W29468   2.241  16.873   0.190 -0.0881 -0.4118 -0.2005
14000W        W29469  14.038  13.563   1.870  0.0891  0.1093  0.2956
14001W        W29470   8.677  15.369  15.611  0.1042 -0.0473 -0.0461
14002W        W29471   8.532  16.157   2.122  0.1281  0.0675  0.2308
14003W        W29472  14.425  13.144  11.862 -0.1457  0.1141 -0.0486
14004W        W29473   7.522   5.952   1.140  0.4180 -0.0483  0.0937
14005W        W29474   3.560  15.342   2.010 -0.2334 -0.2551 -0.1373
14006W        W29475   2.900   7.288  12.790 -0.1151 -0.1667 -0.3490
14007W        W29476   6.421  15.951   9.924  0.1069  0.0139  0.3794
14008W        W29477   9.815  15.629   1.034  0.1047 -0.2583 -0.4928
14009W        W29478  10.204   0.244   0.731  0.1132 -0.0186  0.1809
14010W        W29479   4.640   6.156  12.113 -0.0873  0.0008  0.1180
14011W        W29480  15.737   3.663  13.841 -0.3692 -0.0052 -0.1201
14012W        W29481  13.084   7.957   0.845  0.5698  0.1717 -0.1179
14013W        W29482   4.018  10.756  13.321 -0.0726 -0.1601  0.0334
14014W        W29483   6.332  14.509  11.499  0.3306  0.0978  0.2012
14015W        W29484  15.198   1.088  11.351  0.0191  0.0110 -0.0943
14016W        W29485  15.419  16.586  11.357 -0.1274  0.2239 -0.2588
14017W        W29486   4.131   9.368   1.040 -0.1522  0.1158 -0.1588
14018W        W29487  14.424  12.148   0.088 -0.1097  0.0405 -0.1214
14019W        W29488  11.819  14.035   1.203  0.3130  0.0021  0.1865
14020W        W29489   8.087  11.151  15.251  0.1092  0.0470 -0.1467
14021W        W29490   5.561  10.265  15.756 -0.0343  0.1193  0.1077
14022W        W29491   5.106  11.295   0.444  0.5989 -0.0599  0.3761
14023W        W29492   8.961  12.284   3.835 -0.1393  0.0166  0.0866
14024W        W29493  10.307  18.627   5.508 -0.0659  0.1927 -0.2471
14025W        W29494   9.331  11.353   0.416  0.0510  0.5697  0.0008
14026W        W29495   0.487  18.545   5.503  0.2384  0.0264 -0.0235
14027W        W29496  18.420  13.750  13.429  0.2255 -0.0976  0.1816
14028W        W29497  12.951   0.661  12.693  0.0966  0.1023  0.1021
14029W        W29498  10.350   6.460   0.548 -0.5163 -0.1471 -0.0728
14030W        W29499  11.922  13.427  11.404  0.0156 -0.0361 -0.1438
14031W        W29500   3.020  15.525   1.415 -0.2723 -0.0758  0.0891
14032W        W29501   5.272   4.288  11.974 -0.1645  0.0072 -0.2139
14033W        W29502   0.610   9.841   3.472 -0.2832  0.0073  0.0013
14034W        W29503   7.103  16.188   5.525 -0.2061 -0.0498 -0.5146
14035W        W29504   2.531   0.153  11.618 -0.1798 -0.1989 -0.0281
14036W        W29505  17.814   7.586  12.334 -0.0587  0.0755  0.0630
14037W        W29506   9.536   3.427   4.481 -0.1574  0.0729  0.2118
14038W        W29507  16.619   3.613   4.534 -0.1475  0.3622 -0.2301
14039W        W29508   9.727  15.304   1.928 -0.1545 -0.2217 -0.1124
14040W        W29509  17.504   9.727   4.282 -0.3762 -0.0155  0.2115
14041W        W29510   4.048   6.794  13.808  0.1546  0.1244 -0.1372
14042W        W29511   0.002   0.336  12.073  0.1075 -0.1032  0.0202
14043W        W29512   7.323   1.940   1.843  0.1392 -0.5482 -0.0123
14044W        W29513  17.396  12.274  13.109 -0.0666 -0.2364 -0.1105
14045W        W29514  10.241   4.057   4.271  0.0183 -0.1332  0.1751
14046W        W29515   7.775   3.500   1.952 -0.1136 -0.1687 -0.1916
14047W        W29516   5.769   0.352   4.073 -0.3856  0.1629 -0.0264
14048W        W29517  12.320  14.961  11.769 -0.2447 -0.3484 -0.2809
14049W        W29518   2.611  12.474   4.010 -0.0444  0.0631 -0.2963
14050W        W29519  10.161  11.549   0.776 -0.1430 -0.0581 -0.0278
14051W        W29520  12.831  13.478   5.720 -0.1333  0.0487  0.1268
14052W        W29521  11.408  18.541   0.517 -0.0223 -0.0637  0.7682
14053W        W29522   3.311   3.047  12.070 -0.2051 -0.0584 -0.0599
14054W        W29523   6.567  13.784  13.631 -0.1180 -0.3906  0.1168
14055W        W29524  13.055  12.318  15.181 -0.1868 -0.4027  0.0965
14056W        W29525   5.831   4.766   3.068 -0.1530  0.0907  0.3473
14057W        W29526  13.410   6.875  12.532  0.2225  0.2836 -0.1345
14058W        W29527   4.655   1.255  12.025  0.1367  0.0061 -0.3193
14059W        W29528  16.771  17.708   2.795 -0.0541  0.3588 -0.3100
14060W        W29529  14.488   8.936   0.373  0.0593  0.0789 -0.0700
14061W        W29530   7.856   8.576   2.465 -0.1551 -0.0182 -0.2076
14062W        W29531   0.418  13.430   4.118 -0.0652  0.2862 -0.0009
14063W        W29532   7.856   2.075  15.201  0.2029  0.2213 -0.3418
14064W        W29533  15.665   7.851   3.476  0.0346 -0.1441  0.0680
14065W        W29534  11.962  16.537  12.424 -0.0852 -0.0374 -0.0576
14066W        W29535  14.782   3.703  10.604 -0.0660  0.3694 -0.1890
14067W        W29536   7.846   9.880   1.270  0.1231 -0.1133  0.0319
14068W        W29537  15.557   5.174   4.790 -0.1826 -0.3299 -0.1713
14069W        W29538  16.902  14.397   2.957 -0.2966 -0.0261  0.2042
14070W        W29539   7.933   1.180  13.885  0.2666 -0.0038 -0.0946
14071W        W29540  16.181  17.888  13.467 -0.1066  0.3842 -0.0160
14072W        W29541  14.338   3.843   3.695 -0.3922 -0.1383 -0.1807
14073W        W29542  17.459  17.115   3.424  0.2756 -0.1864  0.0098
14074W        W29543   5.880   6.577  11.025 -0.1894 -0.1162  0.0426
14075W        W29544  12.810   1.035   3.616  0.4341  0.0556  0.0274
14076W        W29545   8.187  16.981   5.575 -0.0703  0.2115 -0.3638
14077W        W29546  14.192   9.999  13.144 -0.2590  0.0750  0.1306
14078W        W29547  16.276   1.155   3.851  0.2974  0.1316  0.0236
14079W        W29548  17.008  17.440   5.039  0.1393  0.1673 -0.0502
14080W        W29549   5.547   6.542  13.966  0.3058 -0.2871 -0.0275
14081W        W29550  13.001  13.959  10.967 -0.0868 -0.1012  0.2384
14082W        W29551   4.030  17.036  12.619  0.1765 -0.0122 -0.0739
14083W        W29552  15.183   2.744  15.749 -0.0742 -0.0566  0.1955
14084W        W29553  10.587   1.623  11.581  0.1137 -0.0949 -0.2119
14085W        W29554   5.489  18.296  13.666 -0.0299  0.0252  0.1168
14086W        W29555  16.064  17.656  11.449  0.1565  0.4034  0.2850
14087W        W29556   2.275   2.844  14.036 -0.1905 -0.0532 -0.2592
14088W        W29557   3.209   8.707   2.881 -0.3076  0.0259 -0.1438
14089W        W29558  16.592   5.882  12.408 -0.0539 -0.0072  0.0882
14090W        W29559   5.667   9.209   1.917 -0.0466  0.0369 -0.0434
14091W        W29560   4.761  14.532  14.595  0.2673 -0.0191 -0.1906
14092W        W29561   1.089  10.977   4.784  0.1866  0.0835  0.0292
14093W        W29562  14.622   0.614  12.263 -0.2020 -0.2363 -0.1155
14094W        W29563  16.103   8.402  12.134  0.1326  0.2483  0.0238
14095W        W29564  16.676   3.943  11.558  0.0376 -0.0403 -0.1463
14096W        W29565   6.360   9.709  14.028 -0.0537  0.0043 -0.3045
14097W        W29566   1.061   0.332  13.811  0.0441 -0.0229  0.0886
14098W        W29567   2.351  14.110  11.782 -0.2187  0.0667  0.1489
14099W        W29568  18.562   8.044   3.977  0.1011 -0.1088 -0.1362
14100W        W29569  16.453  14.064   2.006  0.2231  0.1050  0.2770
14101W        W29570  11.672   6.499  12.261  0.1385 -0.2590 -0.1143
14102W        W29571  16.114   0.587  15.540 -0.0413  0.0219 -0.2607
14103W        W29572   9.722  12.996   5.401  0.1282  0.0405  0.5777
14104W        W29573   2.913  10.217   1.962 -0.1224 -0.1040 -0.0596
14105W        W29574   9.467   7.949   0.699 -0.1267 -0.2470  0.1059
14106W        W29575   8.185   7.451  15.436 -0.1600  0.2757 -0.2443
14107W        W29576   1.364  17.713  13.544  0.1122 -0.1005  0.0211
14108W        W29577  13.112  16.133   1.724 -0.1483  0.2718  0.1759
14109W        W29578   9.104  17.791  12.504 -0.1108 -0.4399 -0.1635
14110W        W29579   9.962   2.858  14.713 -0.3355  0.2050 -0.0418
14111W        W29580  17.383   5.780   5.617  0.1305  0.2509 -0.3463
14112W        W29581   2.569   4.307   5.082 -0.1429 -0.1242 -0.0201
14113W        W29582  13.335   7.337   2.447  0.3730  0.1400 -0.1329
14114W        W29583   7.137  18.251   4.771 -0.0084  0.0622 -0.1167
14115W        W29584   0.940  10.458  12.064 -0.1316  0.0124 -0.1448
14116W        W29585  14.428  17.826  13.961 -0.1770  0.1682 -0.1198
14117W        W29586  10.977  16.415   0.009  0.3874  0.0718  0.1703
14118W        W29587   0.354  15.441  14.816  0.0746  0.2039  0.1646
14119W        W29588  12.595  16.793   4.246  0.2748  0.2505  0.0509
14120W        W29589   4.493   8.349   4.311  0.1795  0.0154  0.3814
14121W        W29590  16.243   1.044  13.652  0.2707 -0.4365 -0.1722
14122W        W29591   1.300  12.544  13.894 -0.0243 -0.0399 -0.3352
14123W        W29592  17.072  11.910   2.288  0.1120 -0.2470 -0.0212
14124W        W29593   4.748  12.828   3.020 -0.1905  0.0349 -0.0892
14125W        W29594   5.271   4.421  10.245  0.1636  0.2327 -0.6124
14126W        W29595   7.227  17.484   4.895 -0.1530 -0.0982 -0.1533
14127W        W29596   5.254   2.659  15.023  0.0227  0.1289  0.0335
14128W        W29597  16.836   8.205  15.544  0.2473  0.4105 -0.4993
14129W        W29598  17.791   8.819  14.738 -0.0252  0.2499  0.3731
14130W        W29599  17.201   3.529  13.527  0.1480 -0.0879 -0.1893
14131W        W29600   6.097   7.117   1.977 -0.1351 -0.3494  0.3673
14132W        W29601  12.750   9.563   1.431  0.1098 -0.2372 -0.0710
14133W        W29602  10.226  13.902   0.590  0.0430 -0.1978  0.3353
14134W        W29603  14.867  13.308  11.756  0.0677  0.0248  0.2160
14135W        W29604  11.264  15.697   0.832  0.1812 -0.0701  0.1886
14136W        W29605   3.422  11.125  15.429  0.1898 -0.0695  0.0802
14137W        W29606  14.011   0.410   4.080  0.3789 -0.4554 -0.2461
14138W        W29607   1.707  16.269   1.582  0.2043  0.1338 -0.0414
14139W        W29608   6.768   3.681  12.542 -0.1394  0.0546  0.2073
14140W        W29609   6.159   9.556   3.012 -0.0001  0.2289  0.2740
14141W        W29610  17.630  12.912   0.810  0.0672  0.2645 -0.2171
14142W        W29611   1.596  16.059   5.141  0.5761  0.2892 -0.0305
14143W        W29612  17.063  14.905   2.275  0.3397  0.2891  0.1244
14144W        W29613  18.412   5.106  11.486 -0.2168 -0.0523 -0.0550
14145W        W29614  11.780   5.445  13.768  0.0084 -0.0226 -0.1401
14146W        W29615   1.721   5.713   4.395  0.0967 -0.1776  0.1643
14147W        W29616   2.067  10.724  12.703 -0.0699 -0.1680 -0.4074
14148W        W29617   4.546   1.567   4.317 -0.0465  0.1202  0.2886
14149W        W29618   0.880  10.845  14.406  0.0682 -0.0822 -0.0886
14150W        W29619  15.136   5.331  12.136  0.3095  0.3870 -0.0876
14151W        W29620  12.793  11.042   4.389  0.0827 -0.0868 -0.2781
14152W        W29621  10.959  18.264   4.877  0.0262 -0.4128 -0.1495
14153W        W29622  18.434  14.682   4.505 -0.0110 -0.0681  0.2585
14154W        W29623  16.858   8.111   0.547  0.2083  0.0602 -0.1965
14155W        W29624   8.604   9.239  10.333 -0.1159 -0.4989 -0.0062
14156W        W29625   5.375  17.108   5.264 -0.0608  0.0826 -0.2057
14157W        W29626   3.976   3.179   0.484  0.2272 -0.1899 -0.1687
14158W        W29627   2.604   0.651  14.123  0.0817 -0.1738  0.3700
14159W        W29628  16.045   8.544   2.822 -0.1459  0.0454 -0.3153
14160W        W29629   8.895  12.639  12.786  0.1371  0.3567  0.0928
14161W        W29630  11.835  17.891  15.505  0.1303  0.0977  0.1021
14162W        W29631  12.937  12.314   6.425 -0.0099 -0.1482 -0.2458
14163W        W29632   7.882  13.060  14.889  0.1233 -0.0287 -0.1679
14164W        W29633  16.532  10.332   2.590  0.1442 -0.0407 -0.0686
14165W        W29634  14.643   5.856  15.646  0.0593 -0.0775  0.2655
14166W        W29635  10.092  11.578   4.860  0.4060 -0.1161 -0.1487
14167W        W29636  12.384   6.081   6.000 -0.3458 -0.1785 -0.1053
14168W        W29637   1.160  12.390   4.826  0.3630  0.0512  0.2072
14169W        W29638  14.777  11.527   2.587 -0.0471  0.1074 -0.1450
14170W        W29639  15.801   8.604  14.129 -0.1370  0.2874  0.0515
14171W        W29640   4.771   6.271  14.664  0.0291  0.1927  0.3033
14172W        W29641   7.162   2.769  14.510 -0.2133  0.1005 -0.2349
14173W        W29642  16.003   1.048   1.054 -0.1046 -0.0052 -0.2444
14174W        W29643  13.281  15.977  11.274  0.2124 -0.1334  0.0591
14175W        W29644   1.844   3.621  15.744  0.1886 -0.1611 -0.0072
14176W        W29645  18.044  13.836  13.040 -0.1556  0.1696  0.1745
14177W        W29646   7.938  16.072   3.224  0.1111  0.0540 -0.0677
14178W        W29647  17.658  15.219   5.212  0.1389 -0.0262 -0.0210
14179W        W29648   8.201   9.088  12.256 -0.1850  0.0543  0.1335
14180W        W29649  11.074   7.168  11.608  0.2094  0.1890 -0.3890
14181W        W29650  12.469   8.118   5.045  0.0121  0.0209 -0.1414
14182W        W29651  14.968  14.713  14.691  0.3031 -0.0818 -0.3820
14183W        W29652  17.332   1.419   3.148 -0.0361 -0.1105 -0.1471
14184W        W29653  14.109  14.146  10.844  0.1057 -0.0062  0.0364
14185W        W29654   8.825  16.031  11.626 -0.0705  0.0675 -0.0184
14186W        W29655  11.506   3.871  12.008  0.2342 -0.1863  0.0962
14187W        W29656   7.001  16.672  15.725 -0.1217  0.0584  0.3273
14188W        W29657   5.926   8.448   1.306 -0.0031  0.0578 -0.1986
14189W        W29658   6.821   0.499   3.715  0.1750 -0.0425  0.1307
14190W        W29659  12.811   2.660  12.876  0.2653  0.1009  0.2425
14191W        W29660  17.924   9.415   4.330  0.1843  0.1068  0.1372
14192W        W29661   4.693  15.205  12.748  0.0517 -0.3391  0.2186
14193W        W29662   5.123   4.897  13.827  0.0630 -0.0024 -0.1669
14194W        W29663  16.596   9.839   1.622 -0.0276 -0.3255  0.1435
14195W        W29664   1.246   4.841  11.935  0.1227 -0.1627  0.1232
14196W        W29665  12.731   1.557  14.213 -0.2439  0.3386  0.0645
14197W        W29666   2.887  13.858  11.105 -0.1095 -0.1798 -0.0834
14198W        W29667   3.320  13.824  11.428  0.0363  0.1882  0.0377
14199W        W29668  12.104  12.264  10.880  0.1986 -0.0642  0.1835
14200W        W29669  14.626   6.290   2.605  0.1652  0.1737 -0.2037
14201W        W29670  12.211   0.255  11.743 -0.1483  0.1982 -0.0021
14202W        W29671  17.639   7.389  11.805 -0.0733  0.3364  0.0662
14203W        W29672   3.145  16.534  10.403  0.3194 -0.0942 -0.0183
14204W        W29673   9.266   7.085   5.784  0.2716  0.3278  0.1851
14205W        W29674   1.822   4.152  10.429  0.1529  0.4308  0.1085
14206W        W29675   8.895   5.165  13.807 -0.2759 -0.0867  0.0100
14207W        W29676  17.429  16.500   2.188 -0.2872 -0.2793  0.0453
14208W        W29677   8.289  12.316   2.556 -0.1665  0.0781 -0.1329
14209W        W29678   8.379  15.354  11.139 -0.1501 -0.0508 -0.1099
14210W        W29679  15.513   5.017  12.908 -0.1713 -0.2273  0.2390
14211W        W29680  16.867  12.797  13.553 -0.1758  0.0785 -0.0969
14212W        W29681  12.792  16.607   1.922  0.2703 -0.1241 -0.0480
14213W        W29682  12.830   5.530   1.659  0.1792  0.2073 -0.0608
14214W        W29683   6.881   8.044   5.601  0.0642 -0.0192 -0.2130
14215W        W29684   4.427   0.512   1.745  0.2204  0.0779 -0.5195
14216W        W29685  12.907   0.074  13.990  0.1056  0.0845 -0.3077
14217W        W29686   1.886   4.543   4.849 -0.0011 -0.1180  0.0055
14218W        W29687  12.307  17.181  11.304 -0.0136 -0.1299 -0.4067
14219W        W29688  11.817  16.703  11.972  0.0668 -0.0459  0.1805
14220W        W29689   7.896  13.687   2.915 -0.1023 -0.0103  0.1709
14221W        W29690   0.342  12.810   4.853  0.0857 -0.0165  0.2311
14222W        W29691   9.490  14.367   0.222  0.0892 -0.0410 -0.2082
14223W        W29692   4.632  12.330  14.800  0.0038  0.0936  0.2153
14224W        W29693  14.390  16.259  14.450  0.0539 -0.0799  0.0393
14225W        W29694  11.150  15.257  14.624  0.1955 -0.3548  0.1806
14226W        W29695   6.010  18.358   1.297  0.0038 -0.0923 -0.1216
14227W        W29696   1.513  15.437  14.137 -0.1332  0.3344  0.1303
14228W        W29697   0.414   2.040   3.790 -0.3525 -0.1844  0.4118
14229W        W29698   8.815  12.325   4.965 -0.1937  0.0111  0.2552
14230W        W29699   6.979  13.413  11.799 -0.1200 -0.1212 -0.2852
14231W        W29700  14.247   6.663   1.917 -0.1660 -0.2000 -0.0445
14232W        W29701   3.614  10.316   6.237 -0.0185  0.0019  0.2357
14233W        W29702  13.352  14.070   3.376 -0.0406 -0.1763 -0.2758
14234W        W29703   0.165   8.137   4.938 -0.2636  0.0338 -0.0677
14235W        W29704   2.547   9.811  11.514 -0.0712  0.0192  0.0473
14236W        W29705  12.357   8.558   3.398 -0.1734  0.4031  0.2934
14237W        W29706  18.636   4.680   4.633 -0.0826 -0.0536 -0.0710
14238W        W29707   1.605   1.730  15.566  0.1072 -0.2975 -0.0047
14239W        W29708   4.878   0.427   0.075  0.0591  0.1108  0.0606
14240W        W29709   3.967  12.239   5.357 -0.0800 -0.1048 -0.2506
14241W        W29710   8.312  12.643   4.221  0.1872 -0.0055  0.1139
14242W        W29711   1.719   6.965   2.640  0.2953 -0.2481  0.0939
14243W        W29712  17.886  12.706  15.345  0.0567  0.3668 -0.1027
14244W        W29713   2.974  12.642  13.262  0.1182 -0.1037  0.1275
14245W        W29714  10.145   2.683  15.615  0.0786  0.3658  0.2550
14246W        W29715  17.010  13.951   2.167  0.2420  0.0774  0.0673
14247W        W29716  16.657  12.491  14.440  0.1160 -0.0085  0.2079
14248W        W29717  14.157   5.963   4.614  0.0305 -0.5249  0.1378
14249W        W29718  10.071  13.613  12.468 -0.0310 -0.0655 -0.0963
14250W        W29719  17.939  15.435  14.179  0.5962 -0.0442 -0.2086
14251W        W29720  14.863   0.013  10.605  0.1620 -0.0169  0.3654
14252W        W29721  10.152   8.107   3.768 -0.1334 -0.4936  0.0126
14253W        W29722   4.622   1.014   9.704  0.0272 -0.0834 -0.0363
14254W        W29723   5.367   3.959  13.761  0.0905 -0.4533 -0.1462
14255W        W29724   8.014  14.088  10.359  0.2826 -0.3628 -0.1709
14256W        W29725  16.751  15.403  11.919  0.2489 -0.0422  0.2220
14257W        W29726  15.755   9.684  11.675 -0.0211  0.1433 -0.0132
14258W        W29727   7.756   4.965  12.076 -0.2067 -0.0749 -0.2265
14259W        W29728  10.600  15.161   0.222 -0.0689  0.0481  0.0375
14260W        W29729  18.395   3.800  15.655  0.0625  0.1039 -0.0535
14261W        W29730  12.335   7.401   1.682 -0.3379  0.3388  0.0435
14262W        W29731  16.227   6.181  14.804  0.0404 -0.1549 -0.0923
14263W        W29732  13.789   8.348  12.307  0.2146  0.1010  0.4098
14264W        W29733   1.970  10.221   2.973  0.1823 -0.1982 -0.1676
14265W        W29734   0.277  16.601  15.326  0.0809  0.0542 -0.0232
14266W        W29735  12.109  14.245  11.922 -0.0663  0.1568 -0.0924
14267W        W29736  13.864  15.316   3.331 -0.3188  0.1167  0.0739
14268W        W29737  11.786  14.165  14.004  0.0151 -0.3176  0.0126
14269W        W29738   0.372   9.184   0.624 -0.0878 -0.0768 -0.2638
14270W        W29739  14.933   1.560   5.389  0.1600 -0.0699  0.3186
14271W        W29740   5.012   0.355   3.551 -0.0473 -0.1076  0.1964
14272W        W29741   7.219  17.293  11.235 -0.0026 -0.1337 -0.2942
14273W        W29742  17.472   4.187   3.472 -0.1030  0.1368  0.0676
14274W        W29743   7.884  10.695   1.087 -0.0785 -0.0240  0.0420
14275W        W29744  14.115   0.983   2.843  0.3281  0.1114 -0.4121
14276W        W29745  14.872   4.456  12.923  0.0794  0.3211  0.0507
14277W        W29746   9.915   1.788   4.153  0.1492 -0.2450 -0.1393
14278W        W29747  15.536  16.950   0.465  0.0580 -0.1696 -0.0494
14279W        W29748   9.169   8.468   2.450  0.2755  0.0497 -0.2190
14280W        W29749  15.053  12.450  13.112 -0.0802 -0.3884 -0.1391
14281W        W29750  13.717   9.202   4.537  0.0375 -0.4490  0.0838
14282W        W29751  12.421   5.460  12.198  0.3040  0.0940 -0.2118
14283W        W29752  10.236  17.180  15.081  0.0725  0.4941  0.1525
14284W        W29753   8.895   6.106   1.740 -0.0926 -0.1120  0.0425
14285W        W29754  13.343   6.009   2.055  0.4368  0.1381 -0.1779
14286W        W29755  16.476   1.675   2.189 -0.1732  0.0426 -0.1612
14287W        W29756  10.358   5.544  13.312  0.2457  0.0082  0.0480
14288W        W29757  13.208   0.773   0.985  0.2255  0.1214 -0.1034
14289W        W29758  18.239   7.372   2.706 -0.0473  0.1179  0.1293
14290W        W29759   5.668   8.638   4.825 -0.0755  0.0232 -0.0556
14291W        W29760   0.154   2.740  12.118 -0.1207 -0.0790  0.2120
14292W        W29761   8.417  10.780   0.866  0.0188 -0.0523  0.1364
14293W        W29762   2.521   8.009   5.486 -0.0760  0.1200  0.1461
14294W        W29763  10.986   4.685  15.394  0.1368 -0.0378  0.0341
14295W        W29764   5.768  15.791   2.169  0.2142 -0.1520 -0.1201
14296W        W29765   3.220  14.821   2.356 -0.1172 -0.0124  0.2139
14297W        W29766  17.107   6.931  12.369 -0.1639 -0.2367 -0.0761
14298W        W29767   9.519   3.169  11.591  0.0459  0.0502  0.2673
14299W        W29768   8.927   6.295  14.922 -0.2421 -0.0572 -0.0731
14300W        W29769  11.624   5.853  14.043  0.2045  0.3406  0.1720
14301W        W29770  10.418  15.826  15.112  0.1324 -0.0682 -0.1396
14302W        W29771   5.682   9.795  12.484 -0.2412  0.1380 -0.0903
14303W        W29772  13.979  15.866   1.940 -0.3761 -0.4708  0.4493
14304W        W29773   1.116  14.127  14.883 -0.3218  0.2270 -0.0076
14305W        W29774   1.721   4.911   0.247 -0.1232 -0.2631  0.2913
14306W        W29775   9.919   1.046  14.820 -0.0986  0.3387 -0.0167
14307W        W29776   0.942  13.959   3.634 -0.1145  0.0047  0.1330
14308W        W29777   2.560   0.646  11.273  0.1988 -0.2899  0.0819
14309W        W29778   8.550  10.994  14.807 -0.1467 -0.0536 -0.2203
14310W        W29779   1.492   2.823  12.202  0.0886 -0.1903  0.0165
14311W        W29780   6.492   8.871  12.994  0.0417  0.1010  0.0181
14312W        W29781  17.856  11.670  14.239  0.1955 -0.1294 -0.2096
14313W        W29782   9.970   6.672  11.974  0.0045 -0.1206  0.1185
14314W        W29783   5.577   6.428   3.909 -0.0358  0.1950 -0.3407
14315W        W29784   3.712  17.542   2.628 -0.0035  0.0153  0.1568
14316W        W29785  15.769  16.731   9.933 -0.2309  0.1441 -0.0475
14317W        W29786  14.522  13.183   2.527  0.1727  0.0755 -0.1902
14318W        W29787   7.163  16.390  14.069  0.0614  0.0227 -0.0211
14319W        W29788   2.839  15.828  12.095 -0.0789 -0.1462 -0.0345
14320W        W29789   0.691   2.423  14.063 -0.1692 -0.3931  0.2879
14321W        W29790   7.718   0.458  12.277 -0.0841  0.1748 -0.2120
14322W        W29791   8.793  15.260  13.829 -0.0120 -0.0494  0.1693
14323W        W29792   0.334  14.163   1.689  0.2215  0.0820 -0.0422
14324W        W29793  17.700   4.965   5.161  0.1002  0.2020  0.2517
14325W        W29794   6.913   2.227   2.949  0.0192  0.0159  0.0623
14326W        W29795  16.482  13.214   1.765 -0.0932  0.1623  0.0013
14327W        W29796  12.392   6.729   3.001  0.0206 -0.0089  0.2116
14328W        W29797  15.827  10.092  11.395 -0.0335 -0.1502  0.1099
14329W        W29798  11.291  14.969  12.646  0.0018  0.0034 -0.0386
14330W        W29799   5.484  15.870   4.084  0.0861 -0.0037 -0.1821
14331W        W29800   7.941   6.273  12.513 -0.3795 -0.0206 -0.1124
14332W        W29801   5.117   2.041  11.089 -0.2174 -0.2815 -0.0211
14333W        W29802  11.870   3.997  11.683 -0.3768  0.2660  0.4333
14334W        W29803   9.364   4.408   4.026 -0.0855  0.4421  0.2727
14335W        W29804   9.511   4.872  15.357 -0.0517 -0.0387 -0.1093
14336W        W29805   6.546  12.793   5.173  0.2360 -0.1450 -0.1496
14337W        W29806  15.894   4.595  12.851 -0.3565  0.0582  0.0189
14338W        W29807   6.273   6.686   5.010  0.2776 -0.1147  0.2897
14339W        W29808   9.804   3.758  13.459  0.2773  0.1023  0.0480
14340W        W29809  12.266  17.030  11.911 -0.0558  0.2955  0.1192
14341W        W29810  16.128   2.070  10.673  0.1666 -0.0112 -0.0499
14342W        W29811  10.226  11.862  15.459  0.1012 -0.0797 -0.1018
14343W        W29812  12.832  15.556   3.875  0.1601 -0.0605  0.2843
14344W        W29813   7.491  16.179   4.328  0.1083  0.3287  0.2471
14345W        W29814   2.248   9.189  14.577 -0.0896 -0.0110  0.0748
14346W        W29815   3.613   6.546   5.514  0.0520 -0.2207  0.0433
14347W        W29816  18.156  10.583  10.762 -0.1599  0.0653 -0.0401
14348W        W29817  13.043   6.518   3.938  0.0877  0.2116 -0.1812
14349W        W29818   5.475  13.370  11.051 -0.0836  0.1263 -0.0436
14350W        W29819   4.840   5.886  10.218  0.1081 -0.0523  0.1583
14351W        W29820   3.128   6.285  11.370 -0.1678 -0.1225  0.2589
14352W        W29821   1.403  10.688  12.088  0.0037  0.0676  0.0969
14353W        W29822  14.973   6.508  13.689 -0.1787  0.0829  0.0055
14354W        W29823   6.149   8.875   5.788 -0.0035 -0.3333  0.1375
14355W        W29824   0.814  11.506   2.180  0.0001 -0.1699  0.1862
14356W        W29825   8.580  10.262  13.451 -0.0452 -0.4192  0.0745
14357W        W29826   4.070   4.632   3.055 -0.1365  0.0073  0.3989
14358W        W29827   0.512   9.500  15.188  0.0010  0.3916 -0.0193
14359W        W29828  17.345  14.142   2.539 -0.0178  0.0109  0.1065
14360W        W29829  11.124  16.242  11.129 -0.1885  0.0732  0.3193
14361W        W29830   3.567  10.244  13.035  0.0978 -0.0886 -0.0061
14362W        W29831   6.919   6.272   1.812 -0.1333  0.1378 -0.2414
14363W        W29832   9.329  17.040  12.015 -0.2721 -0.3034 -0.2358
14364W        W29833   9.101   6.760  13.004 -0.0482  0.1913  0.1925
14365W        W29834  10.276   7.462  11.476 -0.0243 -0.2654 -0.1417
14366W        W29835   4.564  14.942   1.031  0.1844 -0.0159  0.0795
14367W        W29836  12.918  10.596  13.048  0.5899  0.0795 -0.0336
14368W        W29837  12.295   3.990  12.033  0.2798  0.3935 -0.1911
14369W        W29838  15.612   7.273  11.548 -0.0642 -0.1039  0.2725
14370W        W29839  11.125  15.489   4.839  0.3146  0.3221 -0.3746
14371W        W29840  16.673   3.689   0.419 -0.0149  0.0691  0.1678
14372W        W29841   6.484  16.303  11.493 -0.1752 -0.0157 -0.4086
14373W        W29842   7.099  16.585  14.592  0.3100 -0.2679  0.3635
14374W        W29843  16.433  18.071  15.313  0.1019 -0.0848  0.0161
14375W        W29844   6.411  17.667  13.488 -0.0118  0.4657 -0.0513
14376W        W29845  14.768  12.533   2.300  0.0614 -0.0328 -0.4937
14377W        W29846   3.209  11.834   4.242  0.1258  0.3241 -0.1472
14378W        W29847  17.172   7.892   2.934  0.0763  0.4943  0.1268
14379W        W29848  14.394   3.879  15.460 -0.1489 -0.2612 -0.0232
14380W        W29849   0.623   0.182  14.879  0.0909  0.1448 -0.1326
14381W        W29850   2.407  17.023   1.120  0.0538  0.1338  0.2754
14382W        W29851   4.940   6.127   9.808  0.2850  0.1481 -0.2333
14383W        W29852  17.018  11.887   5.308 -0.1238 -0.0420 -0.0571
14384W        W29853   5.524  17.048  11.278  0.0438  0.0212  0.4201
14385W        W29854  11.604   7.126  14.636 -0.1132  0.0819 -0.0108
14386W        W29855  13.476   1.697   3.617  0.0579  0.1563  0.4832
14387W        W29856   2.903   9.657  13.431  0.3704 -0.0293  0.1563
14388W        W29857  16.570  16.113  10.829  0.0142 -0.1020  0.0394
14389W        W29858  10.438   9.097   5.733  0.1760 -0.1592  0.2004
14390W        W29859  14.909   6.989  13.862 -0.1055 -0.0851 -0.0759
14391W        W29860   3.867   1.919  14.704 -0.1776 -0.2795  0.0753
14392W        W29861  13.077   2.927   4.005 -0.0283 -0.1267 -0.3148
14393W        W29862   5.107  15.485  12.160 -0.0786  0.2714  0.2355
14394W        W29863   4.907   4.850  13.338  0.2841  0.2969 -0.2533
14395W        W29864   0.783  13.789  13.656 -0.0840  0.2667 -0.0699
14396W        W29865   0.385  11.986   2.806 -0.1977  0.1543  0.0232
14397W        W29866   3.503  16.198  14.704 -0.3052  0.2763 -0.1845
14398W        W29867   0.224  16.234  15.066 -0.1269  0.0371 -0.2740
14399W        W29868  15.893   5.679  12.001  0.0421 -0.1819  0.1340
14400W        W29869  15.452  17.598   0.807 -0.1413  0.3630 -0.2116
14401W        W29870   3.088   5.280  13.819  0.0631  0.0793  0.0693
14402W        W29871   7.210   7.985  14.525 -0.0868  0.0745 -0.0568
14403W        W29872  13.784   1.068   1.973  0.1668  0.3376  0.2863
14404W        W29873  10.386  15.321  12.701 -0.1810 -0.1478  0.1794
14405W        W29874   5.237   5.239   0.558  0.1150 -0.1309 -0.2204
14406W        W29875  11.896  10.871  15.070 -0.0751  0.2521 -0.0182
14407W        W29876   2.966  11.634  12.313  0.1114 -0.1372 -0.3468
14408W        W29877   2.996   7.119   4.604  0.0518 -0.0222 -0.0430
14409W        W29878  11.592  15.421   3.187 -0.0417  0.3097 -0.2869
14410W        W29879  11.018   0.513  11.723  0.2815  0.0980 -0.1611
14411W        W29880   2.765  16.882  15.625 -0.0591 -0.0306 -0.0391
14412W        W29881   1.675  10.872   5.528 -0.3209 -0.0116  0.1013
14413W        W29882  15.292   7.343   4.618 -0.3507  0.0120  0.3262
14414W        W29883   1.620   4.195   1.913  0.0532  0.1844 -0.0683
14415W        W29884   5.631  18.625   0.554  0.0015 -0.0056  0.1436
14416W        W29885   8.999   4.175  14.133 -0.0818 -0.3118 -0.1222
14417W        W29886  11.746   2.896  13.735 -0.1626  0.0281 -0.3541
14418W        W29887   0.866   7.120   0.750 -0.0122  0.1688 -0.2094
14419W        W29888   8.508   8.213  10.898  0.0194  0.1433  0.0919
14420W        W29889   1.740  12.166   5.975  0.0048 -0.0436 -0.0609
14421W        W29890  15.620  15.137  13.088 -0.2072  0.1128 -0.0334
14422W        W29891  17.444  17.954  10.035  0.2537 -0.2369 -0.0637
14423W        W29892   0.612  16.928   1.790  0.0712 -0.1633  0.0993
14424W        W29893  17.103  16.764  14.230  0.0781 -0.1422 -0.2353
14425W        W29894   1.895   3.619   0.952  0.0528  0.2874 -0.1409
14426W        W29895  13.319   6.896   0.310 -0.0528 -0.1690 -0.0296
14427W        W29896  13.453  13.568   1.524  0.2443  0.1128 -0.0823
14428W        W29897   7.844   3.780   3.730  0.1685 -0.4274 -0.1300
14429W        W29898  12.550  10.520  13.444  0.0833  0.4366 -0.0419
14430W        W29899  11.062   2.047  11.697 -0.0525  0.0372 -0.2827
14431W        W29900   2.897   4.135   3.915 -0.0972 -0.2392  0.2634
14432W        W29901   9.836  14.031  13.173 -0.2398  0.0071 -0.0144
14433W        W29902  16.831  12.004   1.318  0.3144 -0.1579  0.1593
14434W        W29903   7.842  15.069   0.704  0.0585  0.0333 -0.1681
14435W        W29904  16.010   3.729  11.577  0.1847 -0.0581 -0.1321
14436W        W29905  11.536  15.466  11.996  0.1663  0.0259  0.0869
14437W        W29906   2.951   2.336  12.315  0.0752 -0.1600  0.0887
14438W        W29907   6.855   9.839   4.304 -0.2417 -0.0163 -0.0022
14439W        W29908   9.851  10.962   2.563  0.5155  0.1341 -0.1140
14440W        W29909   0.410  15.153   1.140 -0.4359 -0.0336  0.1669
14441W        W29910   3.142  15.095   1.706 -0.4936  0.0780  0.1238
14442W        W29911  11.969  10.393  12.678  0.0024  0.1296 -0.2385
14443W        W29912   3.740   9.868   6.063 -0.1474  0.0065  0.1746
14444W        W29913   9.305  16.116  13.305 -0.0013 -0.0529 -0.1294
14445W        W29914  10.499  17.151  11.596  0.1227 -0.3211 -0.2146
14446W        W29915   6.396  13.361   2.470  0.1483 -0.3272  0.0907
14447W        W29916  11.633  12.543  13.752 -0.0031 -0.1535 -0.0152
14448W        W29917   6.559   1.024  15.510 -0.0243 -0.1394 -0.2163
14449W        W29918   8.834  13.855   3.082 -0.1558 -0.0247  0.0500
14450W        W29919  16.148   8.289   5.198 -0.0248  0.1406 -0.2088
14451W        W29920  16.668   4.728   4.731  0.3009  0.3228  0.0449
14452W        W29921  17.973   7.699  13.884  0.3176 -0.0987 -0.3327
14453W        W29922  13.623  10.973   0.906  0.0158 -0.2190 -0.0070
14454W        W29923  14.322   1.623   1.406  0.0695  0.0824 -0.0510
14455W        W29924  10.065   8.312  12.037  0.3529  0.0776 -0.0786
14456W        W29925   8.561  13.869   4.720 -0.1228 -0.3377  0.1512
14457W        W29926   7.049  11.140   1.923  0.4204 -0.2318 -0.2862
14458W        W29927  10.236   9.233  11.125  0.0071  0.1416 -0.2337
14459W        W29928  12.962   4.382  10.127  0.0729  0.1567 -0.2542
14460W        W29929  18.052   7.867   0.190  0.2342 -0.2102 -0.5734
14461W        W29930   6.472  10.947  15.223 -0.1592  0.0374 -0.0797
14462W        W29931  13.357  18.467   2.908  0.2105 -0.4618  0.1355
14463W        W29932   1.958   3.170   5.317  0.2397 -0.0386  0.0715
14464W        W29933   9.547  10.324  11.869  0.0442 -0.2632 -0.1424
14465W        W29934  17.283  13.849  11.745 -0.1484  0.1440 -0.0946
14466W        W29935   0.391  10.149   5.177 -0.1303  0.2151  0.0323
14467W        W29936   3.238   2.061  12.063 -0.1396  0.2567  0.1710
14468W        W29937   1.652  12.903  11.110 -0.0748 -0.1912  0.1326
14469W        W29938   8.039  12.755   5.094 -0.0995  0.2783  0.2685
14470W        W29939   3.735   2.730  12.139 -0.2075  0.1668 -0.1890
14471W        W29940  18.129  13.706   5.387  0.3666  0.0339 -0.1843
14472W        W29941  15.104   8.837   1.603 -0.2391  0.1405  0.3994
14473W        W29942   5.240  12.924   6.376  0.1543 -0.0052 -0.0672
14474W        W29943   6.008   6.844   3.138 -0.0404 -0.1204 -0.2713
14475W        W29944   1.498  11.230  12.176  0.2813 -0.0849  0.4207
14476W        W29945  12.775  11.157  10.883 -0.1785 -0.1005 -0.0511
14477W        W29946   9.735  13.924   3.471  0.4700  0.1022 -0.1652
14478W        W29947   3.846   2.758   2.525  0.0476 -0.2444 -0.5033
14479W        W29948  11.178   0.173   0.226 -0.0605 -0.1452  0.2322
14480W        W29949   4.455  10.809   5.998  0.1934 -0.0650  0.2414
14481W        W29950  14.017   9.109   3.567 -0.0953 -0.2266  0.1199
14482W        W29951  13.370   0.827   2.150  0.1079 -0.1770  0.0786
14483W        W29952  13.017  17.361   4.977  0.0521  0.1823  0.0996
14484W        W29953  15.088  15.535  14.877  0.0109 -0.0362 -0.3412
14485W        W29954  13.110   5.308  11.480 -0.0681 -0.2670 -0.0594
14486W        W29955   5.995  10.925   5.114  0.0106  0.0544  0.0366
14487W        W29956  10.508  14.626  11.469 -0.1389  0.3698  0.2398
14488W        W29957   1.148   6.156  14.518  0.1119 -0.0830 -0.0346
14489W        W29958  11.070  16.606   4.358 -0.1023 -0.1066 -0.0450
14490W        W29959   8.741  10.537  11.248  0.0025 -0.1060 -0.0834
14491W        W29960   7.186  12.477   3.936  0.2028  0.4813  0.0445
14492W        W29961   0.377  12.726  11.545  0.1524  0.2997 -0.0532
14493W        W29962  17.785   5.089   2.808  0.0495  0.1519  0.2569
14494W        W29963  10.865  12.447  12.347 -0.0686 -0.1394 -0.0434
14495W        W29964   0.913  10.382   1.530  0.2467  0.0223 -0.2674
14496W        W29965   2.407  15.956  12.714  0.1536  0.1244  0.2093
14497W        W29966   1.093   7.907  10.750  0.1061  0.0014  0.1751
14498W        W29967  10.326  12.783  11.574 -0.0734  0.0578  0.3035
14499W        W29968   4.273   6.659  15.507 -0.1515 -0.0760 -0.3287
14500W        W29969  12.465   7.045  10.495  0.1127 -0.1439  0.2458
14501W        W29970  16.699  16.316  13.718 -0.3968 -0.0316 -0.3793
14502W        W29971  17.848   5.892  14.580  0.2246  0.1807  0.0587
14503W        W29972  14.713  17.564   4.560 -0.3379 -0.1573 -0.0909
14504W        W29973  14.173  12.852   1.282 -0.2319  0.2391  0.3622
14505W        W29974   3.774   8.871   1.713  0.3432  0.2560 -0.0069
14506W        W29975  14.921  13.012   0.251  0.0394 -0.0208 -0.0966
14507W        W29976  14.009  15.493   0.957 -0.2113 -0.1552  0.1632
14508W        W29977  10.147  17.068  11.954  0.0624 -0.3479  0.1970
14509W        W29978   2.484  12.452   2.596 -0.0423 -0.2849  0.0173
14510W        W29979   1.904  10.176  13.683  0.2008  0.2595  0.1148
14511W        W29980  11.479   6.756  15.124 -0.0345 -0.1439  0.2187
14512W        W29981   4.055  10.798   4.971 -0.0813 -0.3034 -0.2249
14513W        W29982  13.160   5.585   2.231 -0.3495  0.4069 -0.3610
14514W        W29983   2.535  13.803   0.129 -0.0870 -0.1456 -0.0999
14515W        W29984  16.182  15.479  12.643  0.0618 -0.0845  0.2088
14516W        W29985   6.080  11.989  15.574 -0.1622 -0.1311  0.0793
14517W        W29986   4.097   8.300   5.270 -0.1526  0.0770 -0.1242
14518W        W29987   2.162  18.633  13.154 -0.2726 -0.0659 -0.2188
14519W        W29988   3.496   9.747  15.769 -0.1339 -0.2448 -0.0953
14520W        W29989  17.112   8.929   3.453  0.0120  0.0236  0.1815
14521W        W29990  10.702  17.681   2.518  0.0686 -0.0437 -0.1837
14522W        W29991   3.874   1.937  11.491  0.1100 -0.0342 -0.2937
14523W        W29992   7.772   2.085  12.621 -0.1338  0.3042  0.0152
14524W        W29993  17.770   7.582   2.060 -0.1309 -0.1543  0.0540
14525W        W29994  13.118   4.156  10.996 -0.0725 -0.1658 -0.0451
14526W        W29995   6.056   6.945  12.263  0.0118  0.0234 -0.0154
14527W        W29996   7.844  15.188  10.069  0.0331  0.0934  0.0355
14528W        W29997   3.682   2.532   5.124  0.0977  0.2773 -0.0643
14529W        W29998   1.460  11.992   0.343 -0.0711  0.2014 -0.1335
14530W        W29999  10.306   8.643  12.316  0.0721  0.3950  0.1939
14531W        W30000   4.335   2.552   4.664 -0.1207  0.2582 -0.0633
14532W        W30001  18.420   0.512   9.658 -0.0568 -0.1017 -0.0447
14533W        W30002  13.741   1.389  13.191  0.0601 -0.0119 -0.2212
14534W        W30003  14.455   6.901  13.391 -0.1638  0.1230 -0.0917
14535W        W30004   9.503  11.498  14.513 -0.2237  0.2065 -0.0059
14536W        W30005   2.783  10.127   2.456 -0.0765  0.1793  0.1495
14537W        W30006   2.364   4.554  13.537  0.1241  0.1078  0.3827
14538W        W30007   5.017   8.580   6.179 -0.3296  0.1102  0.1339
14539W        W30008  13.311   1.928  12.668  0.0575 -0.0479 -0.0904
14540W        W30009   9.698   2.959   4.280 -0.1908  0.0358  0.0526
14541W        W30010   3.639  15.629  13.318 -0.0758  0.2131  0.0606
14542W        W30011   9.020   1.419   2.233 -0.0286 -0.0252  0.0465
14543W        W30012  10.020  14.633  14.524 -0.3132 -0.2471 -0.2634
14544W        W30013   6.480   1.300  13.452 -0.0689  0.3662  0.0438
14545W        W30014   1.183   9.881   3.119  0.1258  0.1399  0.0454
14546W        W30015  10.253   7.031   0.778 -0.2832  0.0164 -0.1985
14547W        W30016   7.884   6.798  13.766  0.3587  0.3837  0.0155
14548W        W30017   6.717  18.156  12.965  0.1162  0.2185  0.0668
14549W        W30018   0.233  13.965  10.695  0.1752  0.3318  0.0294
14550W        W30019  13.652  18.000  15.575  0.2284 -0.0404 -0.0870
14551W        W30020  13.522  18.594  15.142 -0.0673  0.1452 -0.4559
14552W        W30021   2.962   8.557   1.022 -0.0588 -0.0594 -0.2538
14553W        W30022   5.336   9.501   6.758 -0.0810 -0.2987 -0.0094
14554W        W30023   2.410   9.784   5.237 -0.0695  0.1949  0.1996
14555W        W30024   8.492   3.564   5.338 -0.1529 -0.2997 -0.3071
14556W        W30025   1.271  13.417   2.412 -0.1267  0.3867  0.1005
14557W        W30026   2.046   2.335  11.005 -0.0947 -0.2448 -0.1364
14558W        W30027  11.641   3.526   4.257 -0.3027  0.2315  0.0987
14559W        W30028  12.481   5.878   5.542  0.1319 -0.0799  0.2676
14560W        W30029   6.038   3.367   3.066  0.2063 -0.1211 -0.1902
14561W        W30030  18.286   7.046   3.270  0.0493 -0.2081  0.2525
14562W        W30031  10.584   5.777  10.957 -0.0868 -0.1869 -0.0495
14563W        W30032  16.970   4.281  13.348  0.0511  0.3976  0.3220
14564W        W30033   1.977   5.492   2.534 -0.0621  0.4078 -0.1290
14565W        W30034  10.349   4.641   1.758  0.0437 -0.2055  0.2242
14566W        W30035   7.698   7.147  13.251  0.0656 -0.1059 -0.4026
14567W        W30036  16.119   5.812  13.286 -0.1157 -0.3569  0.0484
14568W        W30037   4.106  16.294  12.298  0.0401 -0.0560 -0.1193
14569W        W30038   0.975  15.856  12.814 -0.0892 -0.1164  0.1058
14570W        W30039  10.226   3.561   0.086 -0.0774  0.1326 -0.2486
14571W        W30040  11.814  11.212   2.226 -0.0151 -0.1811 -0.3271
14572W        W30041   0.796   7.768   3.960  0.0700 -0.0418  0.0417
14573W        W30042   6.789  10.288   5.155 -0.1238 -0.1770  0.2163
14574W        W30043  10.574  13.176  13.718  0.1030  0.3483  0.3502
14575W        W30044  17.360   5.112  13.681 -0.1310 -0.0552  0.0469
14576W        W30045   7.024  12.790  10.886  0.1309  0.0712 -0.0892
14577W        W30046   3.839   2.415  14.613  0.1846 -0.0498 -0.0838
14578W        W30047  15.614  17.843  13.620 -0.0186  0.2997 -0.4224
14579W        W30048   6.562   3.736   0.945 -0.2303  0.0453  0.0991
14580W        W30049  15.782  18.227  14.096 -0.1122 -0.1258 -0.4442
14581W        W30050   8.566  13.794   1.157  0.3154  0.0445 -0.0322
14582W        W30051  12.558   3.809   1.917 -0.0128  0.0362 -0.0737
14583W        W30052   0.457   9.309   3.522 -0.1601  0.1644  0.1874
14584W        W30053  15.453  15.103   9.621 -0.0379 -0.0087  0.0561
14585W        W30054   9.697   8.744   1.010  0.0400 -0.0475  0.2524
14586W        W30055  15.420   0.608  14.019 -0.0558 -0.0507  0.2721
14587W        W30056  17.883   4.295   0.930  0.1748  0.1577 -0.1136
14588W        W30057   9.601  11.398   1.400  0.2403  0.1416  0.0190
14589W        W30058  14.272   1.627  14.414  0.1673  0.4994  0.0909
14590W        W30059  17.704   4.507  15.760  0.2458  0.3156 -0.1792
14591W        W30060  16.480   9.729   3.425  0.0582 -0.1867 -0.1618
14592W        W30061   1.360   7.209  11.456 -0.0030  0.0733  0.0907
14593W        W30062  11.102   4.695   2.871 -0.1016 -0.2175 -0.0268
14594W        W30063  15.483   9.673  14.158 -0.0163 -0.5799  0.0158
14595W        W30064   7.279   5.611  12.576  0.0927  0.3110 -0.3352
14596W        W30065  17.836  14.915  11.493 -0.2821 -0.0217  0.0239
14597W        W30066   2.680   8.832   0.187  0.3842  0.1773 -0.4888
14598W        W30067   6.231  11.416   5.279 -0.0258 -0.2079  0.2041
14599W        W30068  10.606   4.640   3.833  0.3009  0.1352 -0.3648
14600W        W30069  17.489  13.710   2.315  0.4380  0.1135  0.0360
14601W        W30070   1.651   4.464  14.575 -0.2494 -0.0963  0.1520
14602W        W30071   8.375   7.177   2.898  0.0466 -0.0462 -0.0821
14603W        W30072   8.903   8.135   4.357 -0.0834  0.3191 -0.1798
14604W        W30073  16.873   9.219   2.940  0.0992  0.0205 -0.1699
14605W        W30074   0.777   4.276   3.549 -0.1480 -0.0437 -0.1090
14606W        W30075   6.578  17.657  12.939 -0.2221 -0.1988 -0.0334
14607W        W30076  12.419  13.216   2.942 -0.2389  0.1217 -0.0934
14608W        W30077  13.422  18.563   2.237  0.0995  0.2287 -0.3890
14609W        W30078  17.663  13.238   2.902  0.1237  0.1068  0.1113
14610W        W30079   5.926   6.849  14.121  0.0535  0.0132  0.0290
14611W        W30080  14.389   3.609  12.374  0.1139 -0.2185  0.2033
14612W        W30081  17.820   8.076   0.922  0.1339 -0.0647  0.1050
14613W        W30082   3.074  17.515   3.002 -0.0059  0.1680 -0.2003
14614W        W30083  13.922  14.468  12.117  0.0548  0.0786  0.0333
14615W        W30084  14.726  12.936  11.144 -0.0965  0.0185 -0.0703
14616W        W30085   8.501  17.309   1.234  0.3018 -0.1291 -0.0741
14617W        W30086  11.398  12.660   2.549  0.3045  0.1312  0.0077
14618W        W30087   3.640  10.102   0.632 -0.0430  0.2180  0.0097
14619W        W30088  11.183   8.615  15.019 -0.0753 -0.3830 -0.4388
14620W        W30089   6.745   2.450   4.157  0.0472 -0.0958 -0.2317
14621W        W30090  12.741   4.569   2.679 -0.1362  0.1070  0.1951
14622W        W30091   1.606   1.632   9.979 -0.1090  0.1514 -0.0337
14623W        W30092  10.673   4.687   3.297  0.3900 -0.0193 -0.0503
14624W        W30093   2.868  14.223  14.773 -0.2265 -0.0050  0.0072
14625W        W30094  18.099   7.580   3.231 -0.2138  0.2691  0.3550
14626W        W30095  11.485  13.128   0.263 -0.0500 -0.1571  0.2003
14627W        W30096  18.577   7.994  10.642  0.0384 -0.1605 -0.2441
14628W        W30097   7.455  14.567   0.424 -0.2555 -0.3404 -0.2244
14629W        W30098   0.912   9.553   1.693 -0.0380  0.0035 -0.2733
14630W        W30099  11.244   5.920   3.774 -0.1973 -0.1892 -0.0191
14631W        W30100   1.404  14.697   0.335  0.0259  0.0700 -0.1597
14632W        W30101  13.685  11.294  13.361 -0.0301 -0.2754  0.0565
14633W        W30102   3.008  10.066  11.744 -0.1761 -0.2605  0.4741
14634W        W30103   7.366   3.506   0.712 -0.1403 -0.0063  0.0930
14635W        W30104  10.610   7.417   0.180  0.1852 -0.0343 -0.1091
14636W        W30105   7.776  10.484  11.304 -0.0189  0.2252 -0.2318
14637W        W30106   7.748  17.951  13.478  0.2292  0.1616  0.0543
14638W        W30107  13.895   6.270  12.406 -0.2555 -0.2083 -0.0295
14639W        W30108   5.871  13.425  13.961 -0.1356  0.5797 -0.1220
14640W        W30109  12.996  16.263   2.182 -0.1757  0.5016  0.0665
14641W        W30110   3.747  12.072   2.978  0.2467 -0.0821  0.0987
14642W        W30111   5.015   0.657   4.574 -0.2564 -0.0428 -0.0267
14643W        W30112  18.586   3.324  15.529  0.0586  0.1036  0.1380
14644W        W30113  16.895  17.042   4.707 -0.1396 -0.2035  0.2970
14645W        W30114  12.006   7.428   2.477  0.1203 -0.2601  0.2037
14646W        W30115  17.179  12.708  10.777 -0.0773 -0.0869  0.1547
14647W        W30116  15.940  11.918  12.618 -0.2072 -0.0312 -0.0483
14648W        W30117   8.711  17.547   0.627 -0.2036 -0.0047  0.2398
14649W        W30118  11.450  11.199  12.714 -0.0077 -0.2170  0.0559
14650W        W30119   4.759   7.818  15.605  0.3114 -0.0537  0.0986
14651W        W30120  12.419  15.114   4.619  0.0154 -0.1894 -0.0522
14652W        W30121  12.960   5.288  12.222  0.1599 -0.1649 -0.1228
14653W        W30122  18.035   1.654   3.980 -0.2130 -0.0619  0.1751
14654W        W30123  13.467   8.774  14.113 -0.1471  0.3895 -0.0505
14655W        W30124   1.859  11.775  15.433 -0.0038  0.1466  0.1604
14656W        W30125   6.407   1.289   3.735  0.3279  0.0039 -0.0982
14657W        W30126   1.325   7.791   4.290 -0.0508 -0.1791  0.1124
14658W        W30127   6.441  15.829   3.034  0.1002  0.0902  0.2010
14659W        W30128  13.014   1.312  11.450 -0.0156 -0.1027  0.2856
14660W        W30129   0.817  11.322  11.481  0.0626  0.1310 -0.1735
14661W        W30130   9.615   6.407   2.422  0.1638  0.1157  0.1667
14662W        W30131  17.911  14.079   3.090 -0.0634 -0.0083  0.2251
14663W        W30132   2.170   0.576   0.290  0.0502 -0.2392 -0.0835
14664W        W30133  16.398  17.456   1.010  0.0998  0.1680  0.2534
14665W        W30134   7.771   4.655   4.053 -0.3715 -0.1941 -0.2268
14666W        W30135   7.991   1.616   4.608 -0.0777 -0.0675  0.2352
14667W        W30136  18.481   6.438   1.918 -0.2782 -0.0507 -0.0523
14668W        W30137  12.174  14.167  15.453 -0.0096 -0.0557 -0.0631
14669W        W30138   5.597   5.919   1.284 -0.0164 -0.4121 -0.1199
14670W        W30139  11.540  15.910  12.692  0.1659 -0.1433 -0.0537
14671W        W30140   2.176   4.120   4.881  0.1654  0.0639  0.2521
14672W        W30141   4.530   7.630  11.894 -0.0726 -0.3078 -0.1970
14673W        W30142  15.609   1.406  11.389  0.0559 -0.3430 -0.3808
14674W        W30143  17.621  17.812  13.132  0.0636  0.1002  0.1650
14675W        W30144  18.053  17.950  11.432  0.1468  0.2224  0.1263
14676W        W30145   1.570   8.005   5.196 -0.0609 -0.3834  0.0916
14677W        W30146   7.716   2.499   3.610 -0.0226  0.1323  0.1416
14678W        W30147  16.017   8.759  12.682  0.1465  0.2036  0.3515
14679W        W30148   4.870   2.560  11.312  0.1606 -0.2502 -0.2417
14680W        W30149  10.950  13.314   5.682 -0.0629 -0.0117  0.1233
14681W        W30150  14.962   8.652   4.946  0.2035 -0.1568 -0.0623
14682W        W30151  17.732   6.786  13.162  0.0283 -0.0807 -0.1484
14683W        W30152   7.218   4.230  13.270  0.3757  0.0832  0.1913
14684W        W30153  11.459   7.435   5.569  0.0178  0.0827 -0.1434
14685W        W30154   1.638   8.260  12.946 -0.3249 -0.0577 -0.2315
14686W        W30155  13.655  15.655   5.200 -0.1520 -0.1396  0.0745
14687W        W30156   5.189  17.501  14.531  0.1554  0.2210  0.2201
14688W        W30157  13.044  16.841  11.283  0.0116 -0.1270  0.0445
14689W        W30158   3.055   8.069  15.493  0.0263 -0.0489 -0.1171
14690W        W30159   8.705   3.402  14.278  0.3534 -0.0926  0.0573
14691W        W30160  11.456   8.454   4.102  0.0895  0.3104  0.0787
14692W        W30161  10.610   2.121  13.032  0.0726 -0.0625  0.0921
14693W        W30162  16.752  18.384   1.797 -0.1850  0.1959 -0.0600
14694W        W30163  17.768   6.497  11.475  0.0304 -0.0890  0.0855
14695W        W30164  10.814  10.295  15.082  0.0813  0.2096 -0.2143
14696W        W30165   9.920   5.955   1.388  0.0861 -0.0796  0.0963
14697W        W30166  18.033   8.310   3.963  0.0679 -0.1095  0.2120
14698W        W30167  11.587  11.422   9.847 -0.4018 -0.1831 -0.1946
14699W        W30168   5.785  15.251  15.374  0.4872 -0.1065 -0.2344
14700W        W30169  13.046   1.025  14.424  0.0032 -0.0262  0.0858
14701W        W30170   0.071  13.745   2.926  0.0513 -0.0385 -0.1493
14702W        W30171  16.518   3.855  10.154 -0.2073 -0.0026 -0.1211
14703W        W30172  13.650  17.177   1.590  0.1248  0.2293  0.1454
14704W        W30173  16.892   1.803   0.362  0.1822 -0.1229 -0.0042
14705W        W30174  16.875   4.559  12.716  0.0736 -0.4812 -0.0711
14706W        W30175   8.264  10.655   5.249  0.4724 -0.2599  0.2347
14707W        W30176  12.234   5.646  15.325  0.1567  0.3656 -0.1539
14708W        W30177  10.629  11.663   3.743  0.2803  0.2035 -0.0124
14709W        W30178   0.485   9.996   0.170  0.3384 -0.4005  0.0306
14710W        W30179  17.467   8.122   2.143 -0.1273 -0.2206  0.0347
14711W        W30180   2.159   7.284  11.472 -0.1906 -0.2714  0.1157
14712W        W30181   1.373  17.668  12.668  0.0647  0.0098 -0.4200
14713W        W30182   5.363  15.423   2.318 -0.0031  0.0423 -0.0224
14714W        W30183   4.772   3.874   0.448  0.0708 -0.0720  0.0754
14715W        W30184  13.161  17.946  14.112 -0.0190 -0.4552 -0.2187
14716W        W30185   5.727   7.292   3.748  0.0299 -0.2605 -0.0942
14717W        W30186  13.968  16.789  10.937  0.0584 -0.1249 -0.4985
14718W        W30187  11.063  16.172  13.927  0.0949 -0.2132 -0.1094
14719W        W30188  17.073  11.265   2.817  0.3098 -0.0599 -0.2838
14720W        W30189   1.096  17.118  13.288 -0.1653 -0.0853  0.2537
14721W        W30190  17.587   2.141   4.229 -0.3006 -0.1232  0.0825
14722W        W30191   2.440   5.837   2.939  0.1499 -0.2017 -0.1248
14723W        W30192   2.994  17.182  12.257  0.0900 -0.2656 -0.3804
14724W        W30193   8.149  12.832  11.314  0.1366  0.2325  0.1025
14725W        W30194  12.139   3.145  13.489 -0.4032  0.1238  0.0274
14726W        W30195   8.071  14.013  15.222 -0.1080 -0.0132  0.1218
14727W        W30196  13.051   1.937   3.454 -0.0309  0.2358  0.0282
14728W        W30197   5.968   1.984   2.641 -0.4042 -0.1335  0.0574
14729W        W30198   3.065   1.853   4.101 -0.2488  0.0744 -0.1687
14730W        W30199   9.067  15.667  14.775  0.1879 -0.0709  0.2122
14731W        W30200  11.098   9.571   1.931  0.0107  0.2251  0.2187
14732W        W30201  13.540   1.261   0.905  0.1755 -0.0673 -0.1487
14733W        W30202   7.916  18.683  12.926 -0.3637 -0.3098 -0.1479
14734W        W30203  14.902  10.971   3.864  0.0677  0.0284 -0.0828
14735W        W30204   8.749  16.869   1.117  0.1963  0.0782 -0.0452
14736W        W30205   7.572   7.782   2.306 -0.0037  0.0230 -0.5870
14737W        W30206  15.129  12.956  13.755 -0.0923 -0.1566 -0.0962
14738W        W30207  13.134  14.475   2.522  0.1127 -0.0652 -0.0295
14739W        W30208   3.936  12.976  11.377 -0.1077 -0.3497  0.0130
14740W        W30209  16.255   3.084   4.129 -0.0170  0.1787 -0.3205
14741W        W30210  12.952   7.798   5.279 -0.1299  0.0053 -0.2686
14742W        W30211   8.168   1.708  11.585 -0.0712  0.2242 -0.0302
14743W        W30212   3.712   6.518   4.469 -0.1659  0.0418 -0.3851
14744W        W30213   0.948   5.586   4.689  0.1176 -0.1140  0.2783
14745W        W30214  18.248   7.665   1.670  0.0463 -0.0908 -0.0145
14746W        W30215   7.959  18.171  13.054  0.0361 -0.0711  0.0960
14747W        W30216   2.879  12.434  14.180 -0.0505  0.3553 -0.1429
14748W        W30217  16.340   8.224  13.511 -0.2892  0.3277 -0.0123
14749W        W30218   8.477   5.992   0.209 -0.2755 -0.0229 -0.0523
14750W        W30219   9.660  17.740   0.218  0.0608 -0.1053 -0.1094
14751W        W30220   4.736   6.088   0.924 -0.1235  0.0032 -0.1302
14752W        W30221   3.258   2.071   1.813 -0.1400  0.1719 -0.3523
14753W        W30222   6.831  13.940   0.504 -0.3331 -0.3676 -0.3344
14754W        W30223   9.160  18.302   0.220 -0.2100 -0.2399 -0.0739
14755W        W30224   2.083   5.775  11.778 -0.0357  0.1067  0.0008
14756W        W30225  11.376  14.348   1.414  0.1983 -0.1028 -0.0333
14757W        W30226   3.485  13.937  14.320 -0.0812 -0.0354 -0.2555
14758W        W30227  16.565   1.511   1.162  0.0451  0.2579  0.0691
14759W        W30228  11.620  14.173  11.555  0.1158 -0.3324 -0.1026
14760W        W30229  12.330  15.549  13.818  0.3190  0.3551  0.1997
14761W        W30230   5.965   8.039   0.257  0.0732 -0.2798  0.0390
14762W        W30231   2.107   2.866  11.917  0.0535  0.1001 -0.1640
14763W        W30232  15.874  15.309  14.226 -0.2717 -0.0284  0.0921
14764W        W30233   1.386   9.468   3.293  0.1705 -0.0060 -0.1285
14765W        W30234   8.828  12.282  14.957 -0.1630 -0.0216  0.2281
14766W        W30235   9.249   0.079   1.052 -0.2692 -0.1557  0.1201
14767W        W30236   7.356  13.841  13.663 -0.1584  0.0011 -0.1293
14768W        W30237   1.800   6.053  15.715 -0.2469 -0.2111  0.0245
14769W        W30238   6.882   2.252   1.012 -0.1219  0.2155  0.1021
14770W        W30239   6.225   9.771  11.992  0.0519  0.1703 -0.0948
14771W        W30240  10.617  14.878  13.895  0.1523  0.3346 -0.1121
14772W        W30241  12.797  17.709   3.805 -0.0204  0.1967 -0.1794
14773W        W30242  11.469   4.341   1.532 -0.0796 -0.1397 -0.0292
14774W        W30243  14.358   2.639   4.540 -0.1896 -0.0972  0.0158
14775W        W30244  14.654   1.349   1.628  0.0157  0.3212 -0.2175
14776W        W30245  18.191   8.512   1.835  0.3253  0.1687  0.2123
14777W        W30246   6.913   4.702  10.960 -0.2222 -0.0326 -0.2015
14778W        W30247  16.359  14.778   1.517 -0.3076  0.0690 -0.2495
14779W        W30248  11.281   8.111  15.616  0.1447 -0.0231 -0.1395
14780W        W30249  12.278  15.704   3.051  0.0200  0.4432  0.1144
14781W        W30250   5.233   9.489  15.759  0.0697  0.3259 -0.1215
14782W        W30251   9.893  14.080  15.141 -0.0904 -0.0554 -0.0167
14783W        W30252  15.605   1.273  15.002 -0.2165 -0.0072  0.0709
14784W        W30253  10.741  17.337  11.214  0.0162 -0.0773  0.2056
14785W        W30254  10.690   4.616  14.914 -0.1428 -0.1576 -0.1211
14786W        W30255   8.420  18.003  15.680 -0.0369 -0.3746  0.0385
14787W        W30256  12.241   0.227   4.187 -0.0822  0.0106  0.1559
14788W        W30257  17.845  10.905  14.781 -0.0476 -0.0628  0.1419
14789W        W30258  15.327  11.138   3.312  0.1049 -0.3319 -0.1254
14790W        W30259  12.937   8.983   1.427  0.3428  0.3422  0.0839
14791W        W30260   9.349  12.740  12.943  0.2184 -0.1664 -0.2289
14792W        W30261  11.769  13.967   2.518 -0.1193  0.3393 -0.0301
14793W        W30262  18.437   5.802   3.649  0.1209  0.1071  0.1506
14794W        W30263  10.521   6.936  13.272  0.3462  0.0019 -0.0391
14795W        W30264   4.203   2.163   0.799 -0.0124  0.0295 -0.2934
14796W        W30265   2.116  13.260   3.809  0.0205  0.2075  0.0754
14797W        W30266   5.004  18.673  11.575 -0.3799 -0.2889 -0.0741
14798W        W30267  15.354   1.192  11.816 -0.1197 -0.0820  0.0461
14799W        W30268   8.044  11.816   0.001  0.0446  0.2582  0.3318
14800W        W30269   9.347  16.010  14.279 -0.1021  0.0256  0.2529
14801W        W30270   6.904  15.559  13.340  0.1222  0.0054 -0.2392
14802W        W30271  16.833   4.651  14.969  0.0226 -0.0569  0.0076
14803W        W30272  14.305  10.592   0.636 -0.0264  0.5446 -0.2666
14804W        W30273  12.362   4.994  11.689 -0.0162  0.1279  0.0429
14805W        W30274   9.764   9.216   2.899 -0.0754 -0.1972 -0.2048
14806W        W30275   2.739   8.509   1.485  0.3334 -0.0609  0.1365
14807W        W30276  17.083   4.653   2.955 -0.0206 -0.1631  0.0796
14808W        W30277   4.161   8.949  14.950 -0.0260 -0.1118  0.1514
14809W        W30278  14.665   2.740  15.714 -0.1088 -0.0639  0.0232
14810W        W30279  14.009  18.150  13.217  0.0691  0.2469 -0.2490
14811W        W30280  15.777   5.575   0.665  0.0755 -0.1510  0.1290
14812W        W30281  15.163   9.878   5.527 -0.2056  0.0088 -0.0914
14813W        W30282  16.827   3.069   0.720 -0.0122  0.0472  0.1622
14814W        W30283   0.380  15.191   3.978  0.2234 -0.2111  0.2932
14815W        W30284   7.931   5.337   0.983  0.0482 -0.0740  0.2137
14816W        W30285  17.469   7.296   1.061 -0.1087 -0.0879  0.3131
14817W        W30286  15.278   5.072   4.400  0.0357  0.1281  0.3178
14818W        W30287   4.274  14.910   5.719 -0.2672 -0.0505  0.0687
14819W        W30288   8.655   9.579  10.745 -0.2132 -0.1571 -0.1611
14820W        W30289   8.871   5.145   2.091  0.0079 -0.0112  0.2452
14821W        W30290  10.129   8.676   3.822 -0.0664  0.1532 -0.1556
14822W        W30291   6.306  12.338  14.293 -0.1279 -0.1381  0.0049
14823W        W30292   7.755   2.339  13.069  0.0169  0.1650 -0.0519
14824W        W30293  11.244   3.617  14.191  0.0010 -0.1244 -0.1926
14825W        W30294   0.173  14.561  10.509  0.1259  0.3327  0.0283
14826W        W30295  17.340   5.735  12.198 -0.1391  0.0545 -0.1176
14827W        W30296   0.597  13.507  13.261  0.1921 -0.1240 -0.2961
14828W        W30297   7.546   3.146   5.352  0.3294 -0.1453  0.3508
14829W        W30298  17.626  18.090  12.720 -0.2050 -0.0499  0.0146
14830W        W30299   6.583   5.328   1.772 -0.2397  0.0209  0.0587
14831W        W30300  14.322   2.588   0.455  0.2276 -0.1371 -0.0918
14832W        W30301   5.504   6.058  13.140  0.1538  0.1971  0.4299
14833W        W30302  15.229   6.213  10.717  0.0443  0.1177 -0.0621
14834W        W30303   1.412   0.101  15.559  0.0190 -0.1216  0.1666
14835W        W30304   4.253  18.012   3.031  0.0425 -0.2172  0.0087
14836W        W30305   5.598  18.384   4.796  0.0974  0.1419 -0.2598
14837W        W30306   1.606  10.533  14.364 -0.1427 -0.2616 -0.2655
14838W        W30307  13.920   7.195   2.733  0.0079 -0.1941 -0.1811
14839W        W30308   9.708   3.565   0.052 -0.2242 -0.1032 -0.1351
14840W        W30309  11.050   1.148   3.622  0.3196  0.2881 -0.1711
14841W        W30310   0.054   8.041  11.293  0.0340  0.2752  0.0910
14842W        W30311   6.678  14.186  14.532  0.0258 -0.0540 -0.0837
14843W        W30312  11.381   7.075   3.079 -0.3396  0.0068  0.1604
14844W        W30313  16.198  11.767   5.755  0.1247  0.3132  0.0959
14845W        W30314  17.702   7.610   4.556  0.1127  0.0065  0.3976
14846W        W30315  10.097  18.252   4.672  0.0416 -0.1603  0.0327
14847W        W30316   6.230   5.759   2.287  0.2140  0.0125 -0.0361
14848W        W30317   7.459   5.367  10.571 -0.0216 -0.1247  0.2927
14849W        W30318  16.802   0.560   4.272 -0.1843 -0.1321 -0.1589
14850W        W30319  15.240   4.145   0.704 -0.3987  0.2159 -0.0993
14851W        W30320   1.859  15.208  14.908  0.2571  0.2308  0.0615
14852W        W30321   1.589   4.619  12.485  0.2478 -0.0735 -0.2783
14853W        W30322  18.523   1.464   4.189 -0.0373  0.1962 -0.1139
14854W        W30323  10.199  17.725   4.950 -0.0973 -0.0985  0.1438
14855W        W30324  17.760   6.974   5.298  0.0751  0.1804  0.0305
14856W        W30325  14.846   8.634   0.568 -0.2386 -0.2882 -0.0603
14857W        W30326  15.959  15.126  15.055  0.0458 -0.1588 -0.0192
14858W        W30327  10.364   4.363  11.069 -0.3979 -0.0737  0.2161
14859W        W30328   8.422  18.269   1.362 -0.1804  0.0161  0.1358
14860W        W30329  18.609   1.922   3.797 -0.0584  0.0947 -0.0007
14861W        W30330   9.674  12.861   3.729 -0.1334  0.0825  0.0262
14862W        W30331   1.392  11.205   3.436  0.2682  0.4898  0.0885
14863W        W30332   2.722   2.318  13.152 -0.0024  0.0836 -0.1201
14864W        W30333  17.823   6.427  11.989 -0.0988  0.0353 -0.2476
14865W        W30334  12.272  16.781   2.180 -0.2441 -0.3400 -0.2701
14866W        W30335   2.386   2.906  10.607  0.1563 -0.1589 -0.1996
14867W        W30336  13.900  17.969  12.749 -0.1423  0.0033  0.0666
14868W        W30337   8.894   4.797  12.457  0.0825  0.1686 -0.1302
14869W        W30338   4.510  17.272  14.004  0.0649 -0.1202 -0.0164
14870W        W30339   8.919  17.954  15.439 -0.2438  0.0069 -0.1906
14871W        W30340   6.870   5.653  12.253  0.0550 -0.0188  0.1162
14872W        W30341  13.792  13.795   4.820  0.1953  0.1011 -0.0121
14873W        W30342  13.430   7.902   5.144 -0.2439  0.3749  0.4576
14874W        W30343   3.020   7.379  14.221  0.0708  0.0483 -0.0727
14875W        W30344  11.316   9.111   5.520  0.1917 -0.1093  0.1986
14876W        W30345  10.950   1.441  11.809 -0.1698  0.0766  0.0908
14877W        W30346   5.466  16.104   2.443 -0.2788 -0.0556  0.2060
14878W        W30347  14.232   8.044  15.775 -0.2953  0.1994  0.1193
14879W        W30348  13.001   9.426  13.810  0.1378  0.0002 -0.0938
14880W        W30349  12.289   0.662  14.039 -0.4070  0.1596 -0.1231
14881W        W30350  10.175   4.197  14.744  0.0219 -0.0713  0.0135
14882W        W30351   2.242  16.611   4.879 -0.1555 -0.0775 -0.0704
14883W        W30352  17.702   1.868  11.543  0.2853  0.0146 -0.2988
14884W        W30353  16.689   6.371  12.573 -0.0573  0.4171 -0.0703
14885W        W30354  13.587  18.376  12.428 -0.3293 -0.1341 -0.5229
14886W        W30355  16.038  11.141   3.870 -0.0319  0.1962  0.1712
14887W        W30356   8.877  16.436  15.562 -0.1601  0.1842 -0.1161
14888W        W30357   6.078   5.135  15.443 -0.1406  0.0434 -0.2643
14889W        W30358   1.553   3.820  11.047  0.2289 -0.5681  0.0250
14890W        W30359   6.578  12.386  12.532  0.0023 -0.0374  0.1882
14891W        W30360   5.322  12.404  15.234 -0.1074 -0.0464  0.0715
14892W        W30361   9.431  12.611  14.585 -0.1994  0.1991 -0.1197
14893W        W30362   2.635  17.589  10.666 -0.1681 -0.2848 -0.0759
14894W        W30363  12.582   1.242   9.656 -0.0079 -0.2443 -0.0222
14895W        W30364   4.363   9.456   5.511  0.0083 -0.2806 -0.1413
14896W        W30365   6.780   6.469   1.121  0.0253  0.2761  0.1023
14897W        W30366   4.196  18.240   1.503 -0.0415  0.2071 -0.3553
14898W        W30367  14.823   4.299   0.337  0.2838 -0.0838 -0.1374
14899W        W30368   5.252  10.109   5.742  0.0083  0.0060 -0.2280
14900W        W30369  12.465  11.750   2.314  0.2592 -0.3360 -0.1150
14901W        W30370   8.992   5.601   1.742  0.0979  0.1849  0.1476
14902W        W30371  13.038   9.180   0.484  0.0294 -0.2074  0.0244
14903W        W30372   5.498   1.227   1.690 -0.0330  0.3611  0.2574
14904W        W30373  13.427  14.483  14.887 -0.1981  0.1620  0.0881
14905W        W30374  18.292   4.574   2.252  0.0456  0.2681  0.0369
14906W        W30375  12.593  18.252  11.429  0.0314  0.1625 -0.0778
14907W        W30376   3.215  11.216  13.679  0.0784 -0.1739  0.4421
14908W        W30377  16.227  13.654   1.796 -0.1157  0.0125 -0.0583
14909W        W30378   1.577  16.166   2.606  0.0475 -0.1079  0.0342
14910W        W30379  15.066   0.149  13.490  0.3840 -0.2626  0.3227
14911W        W30380  15.920   6.360   5.545 -0.0404 -0.2845  0.3499
14912W        W30381  11.160  13.938  13.365  0.0488 -0.0380 -0.0859
14913W        W30382  17.471   8.689  10.369 -0.0542  0.1280  0.3235
14914W        W30383  17.511   7.919  14.012  0.3523  0.2788 -0.2131
14915W        W30384  18.692  15.249   5.841 -0.1914 -0.1804  0.0245
14916W        W30385  17.112  15.930   9.703 -0.0713  0.0396  0.1671
14917W        W30386   8.816   2.728   5.208  0.3534 -0.1770  0.0731
14918W        W30387  12.343  15.949  13.520 -0.1796 -0.1684  0.0659
14919W        W30388   7.455  12.387  15.169  0.0580 -0.1545 -0.1126
14920W        W30389  15.746   4.118  15.216  0.2483  0.2508  0.0337
14921W        W30390   7.350  11.306   5.811 -0.5080 -0.2722  0.1565
14922W        W30391   3.782   7.182  11.882  0.1207  0.0687 -0.0823
14923W        W30392  14.104  17.078   0.168  0.0024 -0.1738 -0.1124
14924W        W30393  13.404   2.042   4.471  0.0355 -0.0355 -0.2393
14925W        W30394   9.821   1.503  12.942 -0.0707  0.1690 -0.2869
14926W        W30395   6.764   4.002   1.443 -0.0297 -0.0416 -0.1404
14927W        W30396   2.064  15.437   4.282  0.0274 -0.1668  0.4085
14928W        W30397  14.707   9.382   2.413  0.1983  0.1246  0.0555
14929W        W30398   4.494   1.021   3.926 -0.0520 -0.0456  0.2035
14930W        W30399  11.019   7.419   5.721  0.1762 -0.1581 -0.1498
14931W        W30400  17.564   9.305  14.235 -0.2689 -0.2618 -0.1272
14932W        W30401   6.247   4.684  11.766  0.0167  0.1563 -0.3979
14933W        W30402   9.199   6.181   2.656 -0.1459  0.0928 -0.1924
14934W        W30403   0.581  13.006   1.859  0.1175 -0.2591 -0.2569
14935W        W30404   3.236   8.609   2.417 -0.0840 -0.3583 -0.0547
14936W        W30405   2.495   5.491  12.207  0.0577  0.2069  0.1522
14937W        W30406  15.803   8.109  13.434  0.1296  0.1079  0.1822
14938W        W30407   0.239  18.076   9.242 -0.2872 -0.0107 -0.0176
14939W        W30408  16.499   6.790   1.583  0.1965  0.0434 -0.0575
14940W        W30409   4.088   4.941  13.563 -0.2058 -0.0480  0.1547
14941W        W30410  14.568   9.379   0.959 -0.2310 -0.0228  0.1570
14942W        W30411   5.665  17.671   2.097 -0.1238 -0.0384 -0.1701
14943W        W30412  15.571  17.557  11.944  0.1139  0.0006 -0.0189
14944W        W30413   4.986   9.659   1.493  0.2254 -0.0769  0.0037
14945W        W30414   4.092   9.152  12.326  0.1037 -0.0880  0.0414
14946W        W30415   7.452   8.556  14.431 -0.3449 -0.3416 -0.2108
14947W        W30416  10.406   1.946   4.507  0.1213  0.0947  0.0234
14948W        W30417   5.141   5.782   1.359  0.3748 -0.2467  0.0690
14949W        W30418  11.167  18.445   3.703 -0.0958  0.0401 -0.0354
14950W        W30419   7.103  12.642  13.198  0.2255 -0.1990 -0.0075
14951W        W30420   3.327   7.013  14.254  0.0249 -0.1340 -0.0689
14952W        W30421   4.462   7.460  15.246 -0.2585  0.0928 -0.1376
14953W        W30422  12.661  17.501  10.801  0.1707 -0.2825 -0.0625
14954W        W30423  11.019   5.071   1.290 -0.0289  0.0042  0.2228
14955W        W30424  10.155  16.031   0.431  0.4873 -0.1481  0.3809
14956W        W30425   7.474  17.770   0.251  0.1511  0.2616 -0.1608
14957W        W30426  14.070  16.679   0.578 -0.2877  0.1586 -0.0365
14958W        W30427   9.131  17.296  10.787 -0.2712 -0.1526 -0.0894
14959W        W30428   5.152  12.612  12.399  0.0263  0.2228  0.1521
14960W        W30429   5.605  16.416   2.837  0.1399  0.2251 -0.1207
14961W        W30430   4.314   4.387  12.745 -0.1383 -0.0200  0.0948
14962W        W30431  15.962  18.544   9.781 -0.0127 -0.1926 -0.4602
14963W        W30432   7.988   8.356   9.843  0.1647  0.0077 -0.5955
14964W        W30433   9.117   0.590   1.091  0.2726 -0.3496  0.1585
14965W        W30434  10.875   9.355   3.099  0.0329 -0.0992 -0.0777
14966W        W30435   9.945   8.969   0.053 -0.1783  0.2616  0.4114
14967W        W30436   9.298   8.988  15.643 -0.0125  0.0943  0.2739
14968W        W30437   7.679   1.700   5.589 -0.4654 -0.2137  0.0747
14969W        W30438   1.012  13.751  12.644 -0.0761 -0.0397  0.2819
14970W        W30439   8.827   7.447  12.601 -0.3029 -0.0595  0.1861
14971W        W30440   8.798   4.485   3.185  0.5213 -0.3238 -0.1453
14972W        W30441  14.934   0.660  13.806  0.1169 -0.0630  0.0332
14973W        W30442   3.997   2.904   4.849  0.1919  0.1381 -0.0855
14974W        W30443  15.605  13.022   4.911  0.2543 -0.0278  0.0497
14975W        W30444   8.499   4.933  15.100 -0.1471  0.0405 -0.1464
14976W        W30445  16.880   3.060  11.250 -0.0635  0.3810 -0.0388
14977W        W30446   1.228   7.242  11.932 -0.2140  0.1467 -0.2306
14978W        W30447   3.785  18.028  13.804  0.4199  0.1108  0.0425
14979W        W30448   8.432  11.266  10.722  0.2099  0.1590  0.2490
14980W        W30449  11.949   1.988  15.487 -0.1981 -0.0887 -0.3151
14981W        W30450  14.918  16.264  11.724  0.0641 -0.0810  0.1461
14982W        W30451  15.875  10.838  12.309 -0.2664  0.3563 -0.0004
14983W        W30452  14.460  13.586  14.825  0.0311 -0.2671  0.0767
14984W        W30453   1.892  10.794   4.169  0.2272 -0.1240  0.1077
14985W        W30454  14.428   5.452   0.345 -0.0197 -0.0535 -0.1362
14986W        W30455  15.610  16.287   3.747 -0.1176  0.0330  0.2225
14987W        W30456   2.996   0.212  11.283 -0.0917 -0.0492 -0.0191
14988W        W30457   7.236   6.053  12.835 -0.1232  0.1782  0.1536
14989W        W30458   4.381   6.639  12.084 -0.0841 -0.0373  0.0375
14990W        W30459   6.186   8.734   4.347 -0.1369 -0.0986  0.0362
14991W        W30460  13.747  13.458  12.712 -0.0696  0.2058 -0.2708
14992W        W30461  16.528  11.280  15.372 -0.2082 -0.0672 -0.0958
14993W        W30462  11.192   0.657  15.670  0.0207  0.0536  0.0738
14994W        W30463   9.949  11.727  14.670 -0.1654  0.1924 -0.0893
14995W        W30464  11.070  11.920   2.245 -0.0502  0.0645 -0.2261
14996W        W30465  15.108   0.919  10.482 -0.1567 -0.0873  0.1310
14997W        W30466   4.934  12.606   3.405 -0.0422  0.0797 -0.0141
14998W        W30467   2.431   0.271  10.981  0.0476  0.0284  0.0898
14999W        W30468   3.356   5.387  14.267  0.0933 -0.0062 -0.0617
15000W        W30469   5.284   1.937   1.657 -0.0363  0.1293 -0.2596
15001W        W30470  12.206  15.102  12.783  0.1824 -0.1036 -0.0820
15002W        W30471  12.850   1.879   2.430 -0.0264 -0.1288  0.2444
15003W        W30472   4.776   7.461   4.474  0.0889  0.3253 -0.0803
15004W        W30473  14.578   4.523   4.458 -0.3339  0.1353 -0.0278
15005W        W30474  14.574   2.765   1.328 -0.1976  0.0856 -0.2592
15006W        W30475   7.401   5.500   1.823  0.0133  0.0789 -0.3650
15007W        W30476  14.054  13.219   0.937  0.2521 -0.2259 -0.0612
15008W        W30477   8.390   8.610   3.825  0.4432  0.1455 -0.1082
15009W        W30478   4.166   8.317  14.577  0.0594  0.0121 -0.0872
15010W        W30479  16.161   9.952  11.743 -0.1180  0.1115  0.5197
15011W        W30480   6.394   8.547   1.425  0.1904 -0.0623 -0.0080
15012W        W30481   0.412  16.961   0.398  0.0834 -0.0514 -0.1848
15013W        W30482  13.100   6.845   5.074  0.0872 -0.1015 -0.0246
15014W        W30483  13.213  12.887   1.005  0.1041  0.2312  0.1698
15015W        W30484   1.485   1.453   0.294 -0.2337 -0.1086  0.0716
15016W        W30485  16.783   1.384   3.200  0.1449 -0.1377 -0.0975
15017W        W30486   1.754  16.427   3.064  0.3179 -0.2338  0.1768
15018W        W30487  12.884   0.929  13.150  0.0542 -0.2182 -0.2198
15019W        W30488  12.184   7.190   3.000  0.1369  0.0386  0.1360
15020W        W30489  10.707  18.105   3.011 -0.1134  0.1800  0.0096
15021W        W30490  13.148   2.557  14.827  0.2108  0.0388 -0.0942
15022W        W30491  13.290  17.821   1.126 -0.0924 -0.0137 -0.0773
15023W        W30492   6.248   6.327  13.812  0.2108  0.1477 -0.1037
15024W        W30493  15.166   2.762   4.634 -0.0415 -0.1591 -0.0608
15025W        W30494  16.585  16.249   2.028  0.0004  0.0402 -0.1410
15026W        W30495  14.922   0.313   0.649  0.0396  0.1264  0.0380
15027W        W30496   0.335   0.590   0.182 -0.2356  0.2883  0.1174
15028W        W30497  14.941   0.734  13.275  0.1750 -0.1494 -0.1351
15029W        W30498  14.888   0.202  12.561  0.1243  0.0679  0.1890
15030W        W30499   5.701   1.735   4.350  0.1251  0.0391  0.0364
15031W        W30500  14.807  15.181  10.787 -0.0626  0.1326  0.1400
15032W        W30501   3.653   4.552  10.241 -0.4228 -0.2963  0.1692
15033W        W30502   1.001   2.567  14.731  0.1134 -0.1333 -0.1245
15034W        W30503  16.147  17.226   4.723 -0.0996 -0.1729  0.1508
15035W        W30504  15.898   0.826  12.970 -0.2712 -0.1218  0.1230
15036W        W30505   5.903   4.378   2.722 -0.0593  0.4448  0.0696
15037W        W30506  17.423  14.087  10.588  0.0825 -0.2206  0.1491
15038W        W30507   3.375  16.442  12.705  0.0904  0.1476  0.0335
15039W        W30508  12.261   7.409  14.972 -0.3881  0.0057 -0.0834
15040W        W30509   8.735   8.664  11.252 -0.1701 -0.3288  0.2431
15041W        W30510  14.304  13.884  11.225 -0.1401 -0.1638  0.3022
15042W        W30511  10.135  11.124   2.946  0.2466  0.0487 -0.1275
15043W        W30512  12.081  10.247   2.635 -0.3382 -0.2324 -0.3295
15044W        W30513   2.646   5.597  15.519  0.0544  0.3787  0.0427
15045W        W30514   4.985   3.720   4.222  0.4172  0.1109  0.2526
15046W        W30515   3.994  18.200  11.037 -0.4000  0.5125 -0.5208
15047W        W30516   0.848   9.485   3.212  0.0642 -0.1468  0.2471
15048W        W30517   7.531   3.657  15.507  0.1116 -0.0584 -0.0882
15049W        W30518  11.113   8.514  10.839  0.0856  0.5729  0.0322
15050W        W30519  13.558   4.743   5.639 -0.0860  0.3336  0.0400
15051W        W30520   6.282  16.702   4.427  0.1171  0.2319 -0.0265
15052W        W30521   6.838  12.378   3.555 -0.3376  0.0398  0.1732
15053W        W30522  15.723  18.582  11.728  0.0343 -0.1759 -0.1733
15054W        W30523  14.190   8.323  12.027 -0.2327  0.1730  0.1349
15055W        W30524  18.485   1.069   9.555 -0.0346 -0.1138  0.3280
15056W        W30525   7.078  14.242  14.982  0.2010  0.3384 -0.1170
15057W        W30526  17.319  14.311   0.005  0.3244 -0.1670  0.0694
15058W        W30527   5.333  10.475   6.203 -0.0749 -0.0500 -0.1784
15059W        W30528   8.071   5.281  14.867  0.0515  0.1849 -0.2317
15060W        W30529  12.403   9.714  12.103  0.2085  0.3253 -0.2901
15061W        W30530   9.337   7.266   4.348 -0.0569 -0.0263  0.0868
15062W        W30531  15.014   3.945   4.489 -0.0318 -0.2180  0.0527
15063W        W30532   6.886   7.372   1.152  0.1777 -0.0054 -0.0527
15064W        W30533   4.191   7.083  12.191 -0.0017  0.1142 -0.2033
15065W        W30534   9.980   8.474  15.714  0.1152  0.0414  0.0358
15066W        W30535   8.546  13.894   2.246 -0.0242 -0.0786  0.1971
15067W        W30536   7.722   6.308  10.808  0.0423  0.2420 -0.2984
15068W        W30537   9.451   2.498  14.478  0.2482 -0.0109  0.0755
15069W        W30538   1.204   6.782   0.738 -0.0378  0.2504 -0.1069
15070W        W30539  10.098   2.201  15.435 -0.3049 -0.2018 -0.0814
15071W        W30540  12.338   7.691   3.858 -0.0934 -0.1994  0.2313
15072W        W30541  11.088  13.529   1.940  0.0882 -0.0746  0.2997
15073W        W30542   4.392   2.999   0.257 -0.0130 -0.2597 -0.1333
15074W        W30543  14.099   4.823  11.201  0.0072  0.1102  0.0316
15075W        W30544   6.049   7.260   4.595 -0.0976 -0.1262  0.3086
15076W        W30545   7.145   3.340   3.482  0.1319  0.0768 -0.0192
15077W        W30546  11.043  14.443   0.953 -0.0364 -0.5643  0.1451
15078W        W30547   3.766   0.182  12.170 -0.2690  0.4768 -0.1280
15079W        W30548  15.067   5.179  14.468 -0.2358  0.0315 -0.1439
15080W        W30549   7.029   3.981  15.766  0.1007 -0.5136 -0.3425
15081W        W30550   5.990  13.694  11.137 -0.1247  0.0920  0.2860
15082W        W30551   8.056   5.933  15.705  0.1403  0.0873 -0.0724
15083W        W30552   3.222   8.903   0.064 -0.3374 -0.0083 -0.1633
15084W        W30553   4.890  14.222  12.577  0.1046 -0.2136 -0.0850
15085W        W30554   4.859   5.962  15.090 -0.2214  0.1868  0.1368
15086W        W30555   9.111   1.383  11.820  0.1047 -0.0729 -0.3483
15087W        W30556   2.045   8.974  11.525  0.0669  0.1688 -0.1937
15088W        W30557   5.850  12.439   3.466  0.3779  0.2710 -0.0771
15089W        W30558   5.626  11.773   4.776 -0.0183 -0.0576  0.1236
15090W        W30559   4.907  17.807   0.150  0.1959  0.1161 -0.0951
15091W        W30560  10.122  14.414  13.364 -0.0318  0.1806  0.0755
15092W        W30561  14.578   9.868   2.569  0.1369  0.1718  0.0634
15093W        W30562   7.780   3.263   4.187  0.1020  0.0987  0.2451
15094W        W30563  16.430   4.504   0.179  0.1198 -0.2259  0.2072
15095W        W30564  16.992  15.571  14.139  0.0479  0.1277  0.0142
15096W        W30565   6.513   8.331   4.263  0.0935 -0.2054  0.0724
15097W        W30566   4.523  10.451  12.805  0.0344 -0.1411  0.1272
15098W        W30567   7.294  18.489  14.274 -0.0695  0.0021 -0.0751
15099W        W30568  14.117  17.400  14.650  0.0113 -0.1955  0.0084
15100W        W30569  18.239  17.521  10.622  0.2327  0.0512  0.1431
15101W        W30570   6.827  13.055  13.945 -0.4387 -0.0749 -0.0826
15102W        W30571   3.669  11.443  13.768 -0.2713 -0.0925  0.0448
15103W        W30572   3.865  18.335  12.316 -0.1319 -0.0892  0.2799
15104W        W30573  17.835   0.832   1.342 -0.3646 -0.0248 -0.3638
15105W        W30574   0.165   6.439   1.133 -0.1064 -0.2003  0.1279
15106W        W30575  10.626   6.954   1.976  0.0980  0.0031  0.3530
15107W        W30576   2.529  16.688   2.062 -0.1935 -0.1169  0.0804
15108W        W30577   9.731   9.402   0.192 -0.0599 -0.0364 -0.1764
15109W        W30578  12.361   3.655   4.932 -0.0845  0.0749 -0.3379
15110W        W30579  15.870  11.438  11.974 -0.2649  0.0986 -0.3071
15111W        W30580   1.954  17.063   0.520 -0.0717 -0.0729  0.0504
15112W        W30581   5.919   9.650   4.460  0.0429 -0.0147 -0.2012
15113W        W30582   1.754   0.742  13.564  0.1891 -0.3182 -0.1118
15114W        W30583  12.677  12.481   3.716 -0.2400  0.2641  0.2699
15115W        W30584   7.971  16.593  11.502  0.1511 -0.0835  0.1695
15116W        W30585  13.643   4.664  15.330 -0.2714 -0.0037 -0.0846
15117W        W30586   6.102   9.239  12.877  0.0548  0.1564 -0.0276
15118W        W30587  14.723  14.419  14.232 -0.0642  0.2584  0.0460
15119W        W30588   4.497  12.421  13.463 -0.0972 -0.0147 -0.0265
15120W        W30589   9.760  10.025   3.507 -0.1043  0.2502 -0.0308
15121W        W30590  11.517   1.031   4.392 -0.2907 -0.1602 -0.1420
15122W        W30591   7.670   7.529   1.819 -0.3288  0.0485  0.0259
15123W        W30592   6.457  13.599  12.372  0.0666  0.2572  0.1518
15124W        W30593  10.859  14.526   3.667  0.1115  0.3709  0.1632
15125W        W30594   9.338  10.713   5.607 -0.1400 -0.0250 -0.1823
15126W        W30595   7.434  10.260   5.227  0.1406  0.0348  0.2780
15127W        W30596  12.561  14.461   0.416  0.0988  0.0185  0.1056
15128W        W30597  11.692  17.097  14.560 -0.0693 -0.1089 -0.2989
15129W        W30598   5.546  10.701   1.191  0.1042 -0.0613 -0.0433
15130W        W30599   5.296   9.546   2.875  0.1831  0.0898  0.0282
15131W        W30600  11.800  13.447  12.877 -0.0488  0.1498  0.1236
15132W        W30601   8.998  17.830  10.636 -0.2123  0.1431  0.2295
15133W        W30602  12.419  13.732   2.982  0.0927  0.0406 -0.1780
15134W        W30603  15.699   2.597   4.725  0.3271 -0.1737  0.1944
15135W        W30604   6.098   1.741   0.466 -0.0380 -0.2109 -0.1690
15136W        W30605   9.870   0.606  10.471 -0.1345 -0.1126  0.0417
15137W        W30606  14.326   5.906  14.762  0.2173  0.0056  0.1762
15138W        W30607  15.196  12.869   3.237 -0.0828  0.2446 -0.0752
15139W        W30608   6.555   0.632   1.234  0.1292  0.1852  0.0286
15140W        W30609  16.156   6.263  12.480 -0.0297 -0.1701  0.3159
15141W        W30610   9.325   5.003   0.353 -0.0491 -0.2060 -0.0613
15142W        W30611  17.262   3.775  10.894 -0.0921  0.0381 -0.1471
15143W        W30612  16.778   3.208  14.850 -0.0906 -0.0896 -0.0323
15144W        W30613   7.669  11.380   2.962  0.0370 -0.0432  0.0157
15145W        W30614  11.230   6.450  11.981  0.1869  0.0086 -0.1191
15146W        W30615  13.650  10.759   1.386  0.1735  0.1301  0.4314
15147W        W30616  15.668  10.015   5.457  0.1618 -0.1069 -0.0543
15148W        W30617   1.791   3.692   3.865 -0.2549  0.2314  0.1285
15149W        W30618  18.476   1.022  11.367  0.0370  0.0367 -0.0233
15150W        W30619  13.134  10.742   1.541 -0.0516 -0.1070  0.3615
15151W        W30620  12.102  15.886  14.902 -0.2917  0.0717 -0.0418
15152W        W30621   4.941   1.507   0.372 -0.1360 -0.0742 -0.1139
15153W        W30622   0.587   4.037   4.221  0.1385 -0.1118  0.0387
15154W        W30623  12.470   9.669   4.254  0.1582  0.3220 -0.0839
15155W        W30624  10.492  16.599  12.976 -0.0602 -0.1342  0.0696
15156W        W30625   7.703   8.071   3.532  0.0573  0.0819  0.1430
15157W        W30626   1.987   9.681  14.458 -0.0947  0.1129  0.0967
15158W        W30627   6.749  16.044  14.205  0.2019  0.0050  0.0776
15159W        W30628  16.364   5.859   4.637  0.2037  0.2475 -0.1707
15160W        W30629  15.555   2.163   2.822 -0.2198 -0.0356 -0.1971
15161W        W30630   7.799   9.997   2.443 -0.3742 -0.0146 -0.0739
15162W        W30631   9.542   5.367   5.114 -0.0224 -0.1052  0.0301
15163W        W30632   0.536  18.453   4.319 -0.0215  0.0263 -0.1269
15164W        W30633   2.818  16.708  14.982  0.1115  0.2119 -0.0126
15165W        W30634   7.528   2.855   4.511  0.3269  0.3594 -0.0316
15166W        W30635  12.850  10.065  12.264 -0.0985 -0.1219  0.2838
15167W        W30636   7.323   2.252   3.257  0.2349 -0.1213 -0.4277
15168W        W30637  15.730   0.286   6.070 -0.1657  0.1232  0.0114
15169W        W30638   1.700  14.549  14.284  0.0853  0.0845 -0.1039
15170W        W30639  15.501  12.771  11.981  0.0577 -0.2752 -0.0488
15171W        W30640   4.037  13.773   2.086  0.0488 -0.1346 -0.0264
15172W        W30641   3.004  10.394   1.137  0.0615 -0.3542  0.3415
15173W        W30642   6.666  11.937  15.447 -0.1342  0.0872  0.0896
15174W        W30643  10.679   3.122  14.382  0.3360 -0.2938  0.2521
15175W        W30644  10.485  17.332  10.209 -0.0580  0.0710  0.0184
15176W        W30645   8.626  15.699   2.290 -0.1454  0.0353 -0.3253
15177W        W30646  15.523  14.460  14.744  0.2397 -0.0363  0.1518
15178W        W30647  13.685  16.433  12.372  0.3438  0.1809 -0.0993
15179W        W30648   6.768  18.541  13.390 -0.2985  0.1703  0.1192
15180W        W30649  10.957   1.785  12.172 -0.1348 -0.0636 -0.1149
15181W        W30650  12.529   1.903  15.416  0.2852  0.0572 -0.1776
15182W        W30651   2.206   7.445  11.951  0.2152 -0.0357  0.3710
15183W        W30652  12.887   1.896  13.653 -0.1006 -0.1291 -0.0833
15184W        W30653  10.332  17.428  12.730  0.0013  0.2999  0.0676
15185W        W30654   4.775  17.586  11.273 -0.3473 -0.1254  0.2250
15186W        W30655  11.019   9.132  14.227  0.1275  0.1434 -0.3994
15187W        W30656   3.218   4.145  13.158  0.2245 -0.3886  0.0468
15188W        W30657   0.459  10.070   1.161  0.3248 -0.1110 -0.0673
15189W        W30658   7.028  12.197  15.772 -0.0023 -0.1646  0.1575
15190W        W30659   5.869  11.857   0.741  0.1967 -0.2482 -0.1445
15191W        W30660  14.246   7.835  14.583 -0.2304  0.1579  0.1374
15192W        W30661   8.424   9.358   5.075 -0.0392 -0.1718 -0.0138
15193W        W30662   3.916  12.056   0.568 -0.0895 -0.1291  0.1483
15194W        W30663  18.252  15.452  13.694 -0.1858 -0.0589 -0.2494
15195W        W30664  12.821   4.617  14.857 -0.1459 -0.1646 -0.3050
15196W        W30665  14.470  18.513  15.665 -0.1391  0.0571 -0.0564
15197W        W30666  17.470  18.082   1.148  0.0859  0.4326 -0.1758
15198W        W30667   2.210  16.243   0.554 -0.1405 -0.1027  0.1116
15199W        W30668  10.974  12.148   0.203 -0.2450  0.1407 -0.1014
15200W        W30669   3.372   4.772  14.540 -0.0682  0.0131 -0.1014
15201W        W30670  15.848  11.001  12.924 -0.2043 -0.3190 -0.2281
15202W        W30671   3.960   9.784   0.885 -0.0261 -0.2271  0.3277
15203W        W30672  13.140  11.705   5.775  0.1517  0.0992  0.0354
15204W        W30673   2.249  13.042   5.705 -0.0998  0.2186 -0.1457
15205W        W30674  14.688   9.996  13.210 -0.1390 -0.2855 -0.1608
15206W        W30675  18.509  16.333  14.617 -0.0592  0.0908 -0.2841
15207W        W30676   4.968   0.402  11.887  0.3124 -0.0755  0.2513
15208W        W30677   8.899  14.131  10.944  0.2396 -0.3794  0.1430
15209W        W30678   8.907   6.169  14.211  0.1839 -0.0722 -0.3429
15210W        W30679  11.166  17.337   4.593  0.1041  0.0280  0.0584
15211W        W30680   2.020  11.173   3.319  0.0415 -0.0835 -0.1434
15212W        W30681  17.324  13.441   0.095 -0.4397 -0.0056  0.0264
15213W        W30682  10.390  13.930  15.393  0.2261 -0.1286 -0.0824
15214W        W30683  11.200  16.912  14.747 -0.0039  0.0322 -0.0721
15215W        W30684  11.616   8.955   4.312  0.2185 -0.1149  0.2988
15216W        W30685   4.386   5.979  15.391  0.2398  0.0537  0.0663
15217W        W30686   2.545  11.281   4.762 -0.0730  0.1427  0.4861
15218W        W30687  17.220  10.209   3.690  0.1454 -0.1398  0.1378
15219W        W30688   7.728  16.519   3.237 -0.2375  0.1045 -0.0516
15220W        W30689  11.015  14.336   4.091  0.1617  0.1751  0.1246
15221W        W30690   9.348   5.345  11.960  0.0658 -0.2330 -0.2217
15222W        W30691   1.896  18.554  12.208 -0.1112  0.1663 -0.1145
15223W        W30692   9.910  16.912   0.668 -0.2347 -0.1202  0.2575
15224W        W30693   3.544  10.986   1.371 -0.0852 -0.1413  0.0585
15225W        W30694   4.767   2.355  12.713 -0.0955  0.0699 -0.0549
15226W        W30695  14.712   9.199  11.493  0.2935 -0.1892  0.1371
15227W        W30696   0.414  17.418  12.524  0.0905  0.1191  0.0456
15228W        W30697   1.273  13.193  15.684  0.0635 -0.2454 -0.0993
15229W        W30698   7.125  13.743  14.937 -0.1229 -0.2471 -0.3911
15230W        W30699   4.336  12.814  13.062 -0.0079 -0.2854 -0.0841
15231W        W30700  10.328  11.846  13.417 -0.1207 -0.0652  0.1052
15232W        W30701  10.468   3.454  12.339  0.0887 -0.1894  0.1886
15233W        W30702   4.336   9.813  10.461  0.0404 -0.3384 -0.0846
15234W        W30703   1.500  17.317   5.120 -0.0217 -0.3805 -0.4777
15235W        W30704   0.495   1.006   4.938  0.1671 -0.2558 -0.2588
15236W        W30705  13.522  12.329   3.722 -0.0041  0.0098 -0.3122
15237W        W30706  17.042   0.688   3.811 -0.0660  0.0238 -0.4051
15238W        W30707   7.151   3.222  13.381 -0.0306 -0.2945 -0.1496
15239W        W30708  10.739   7.010   0.500 -0.0007  0.0169  0.0161
15240W        W30709   9.012  15.953  15.624  0.0549 -0.3315 -0.3253
15241W        W30710  17.675   1.057   0.105  0.2012  0.1147  0.1302
15242W        W30711   1.591  14.310   4.565  0.5075 -0.1081 -0.1342
15243W        W30712   5.677   2.761   2.354  0.0781 -0.0249 -0.0183
15244W        W30713   9.859   1.616  13.508 -0.1251  0.1894 -0.1181
15245W        W30714   6.177  12.474   5.345  0.1492  0.0900  0.0748
15246W        W30715  13.193   4.101  13.646  0.2470 -0.0093 -0.3845
15247W        W30716   4.215   1.074  15.039 -0.2145 -0.0444 -0.1597
15248W        W30717  12.005   2.104  13.427  0.2702  0.4631 -0.2515
15249W        W30718   9.138  10.649  14.168  0.3554 -0.1856  0.1320
15250W        W30719  12.271   6.329   3.301 -0.1564 -0.0707 -0.1987
15251W        W30720   9.421  11.891  12.559  0.3929 -0.1380 -0.0509
15252W        W30721  14.207   1.098   2.302  0.1212 -0.2942  0.0087
15253W        W30722  13.829  16.959  14.681  0.1001  0.0633  0.2843
15254W        W30723  10.561   9.318  14.042  0.0040 -0.0841 -0.0643
15255W        W30724   5.092  11.379   3.342  0.2581 -0.0603  0.0226
15256W        W30725   3.636  11.327  15.016  0.0295  0.2171  0.3023
15257W        W30726   3.372   6.365  15.761 -0.0005  0.0804  0.0652
15258W        W30727  12.111  10.151  14.547 -0.0606  0.0400  0.0791
15259W        W30728  16.218  12.466  15.637  0.4813  0.3651  0.0708
15260W        W30729  13.445   4.187   1.360  0.1777  0.0071 -0.1015
15261W        W30730   8.855  13.153  14.998 -0.1363  0.1923 -0.0010
15262W        W30731  17.837  11.964   4.350 -0.2201 -0.0829 -0.2288
15263W        W30732   3.298   0.163  12.407 -0.0529 -0.1249  0.1896
15264W        W30733   3.316  15.897   4.346  0.1070 -0.0908 -0.0606
15265W        W30734  12.928   5.820   1.195 -0.0484 -0.0218  0.0446
15266W        W30735   2.721   9.760   2.104  0.0833 -0.1947  0.1775
15267W        W30736   6.035  11.881   2.411  0.1126 -0.2339  0.0947
15268W        W30737   1.507   3.643  12.022  0.1340  0.1632  0.1625
15269W        W30738   5.967  15.559  15.763  0.1164  0.0635  0.1129
15270W        W30739   0.298   6.454   2.164  0.0807 -0.3716  0.0817
15271W        W30740  12.383  13.236  13.763  0.0536 -0.1438  0.0568
15272W        W30741  11.201   4.682  12.068  0.0131  0.1458 -0.2667
15273W        W30742   7.024  13.525  13.926  0.3408 -0.0971 -0.0886
15274W        W30743  15.823   1.925   0.977  0.0149 -0.1271 -0.0472
15275W        W30744   1.618   6.507   0.898 -0.2235  0.1340 -0.1604
15276W        W30745  11.315   8.520   3.337  0.1871  0.1362 -0.0007
15277W        W30746   3.099  17.849   5.346 -0.1830  0.0647 -0.2153
15278W        W30747   0.477  10.459  14.162 -0.1484 -0.1679  0.5912
15279W        W30748   3.348  14.077  14.810  0.2543  0.2290 -0.0010
15280W        W30749  13.437  16.297   4.384  0.2558 -0.4473  0.5115
15281W        W30750   0.320   7.060   4.886 -0.0365 -0.0296 -0.1815
15282W        W30751  11.913  10.125   1.828 -0.0887  0.2009  0.2201
15283W        W30752   4.541   8.877  10.675  0.1349 -0.0231  0.3657
15284W        W30753  12.414   4.138   5.027  0.3355 -0.3043 -0.2158
15285W        W30754  11.319   5.870  12.842  0.0750  0.1539 -0.0085
15286W        W30755   8.300  15.194  15.198  0.0181  0.1212  0.0931
15287W        W30756  13.811   2.441  14.227 -0.1366  0.2948  0.0396
15288W        W30757  16.376   3.747   2.221 -0.2058  0.1253  0.0404
15289W        W30758  13.846  14.561   3.303 -0.0665 -0.0823 -0.0608
15290W        W30759   8.899  10.677  15.573  0.1188 -0.0372 -0.2217
15291W        W30760   1.347  13.408   5.135 -0.3680  0.2451 -0.1629
15292W        W30761   3.599  17.074   0.452 -0.3380  0.1364 -0.3615
15293W        W30762   1.140  14.619  12.071 -0.1396  0.0565  0.3587
15294W        W30763  14.401  14.378  11.177 -0.0057 -0.2744 -0.1560
15295W        W30764  17.400   6.103  11.900 -0.0301  0.3108  0.2769
15296W        W30765   0.215   0.717  13.710 -0.0350 -0.2035 -0.1145
15297W        W30766  11.007   3.015  11.963 -0.2461 -0.1052  0.1940
15298W        W30767  14.714   9.868   3.031 -0.0162  0.3694 -0.0198
15299W        W30768  11.019   5.599   3.192  0.1289  0.0227  0.3807
15300W        W30769   6.117   5.740  14.651  0.0314  0.0509  0.2268
15301W        W30770  18.109   7.243  13.362 -0.1672 -0.0963  0.1592
15302W        W30771   2.136  12.606  13.812 -0.3497 -0.2711 -0.2189
15303W        W30772  10.251   7.988  13.504  0.0412 -0.1887  0.1759
15304W        W30773   3.313  17.806  15.674  0.0649  0.1973 -0.4015
15305W        W30774  13.757   1.151   5.298  0.1455  0.2953 -0.1522
15306W        W30775   3.130   0.265   4.365  0.1677  0.0402 -0.2036
15307W        W30776  16.717   6.841   5.000  0.2152 -0.2881 -0.0210
15308W        W30777   6.058   0.893   4.108  0.2375  0.0909 -0.0330
15309W        W30778  16.435   1.885   0.820 -0.0556  0.0253 -0.1458
15310W        W30779  15.587  10.914  15.709 -0.4473  0.2485  0.1923
15311W        W30780   9.029   9.969   0.541 -0.0618  0.0591  0.1076
15312W        W30781   7.005   6.209  14.876 -0.0771  0.0162 -0.3311
15313W        W30782   3.623   1.376  15.313  0.2464  0.2594  0.3185
15314W        W30783   0.487  11.660   2.470 -0.3122 -0.2599 -0.0783
15315W        W30784  16.587   2.297   0.631 -0.0558 -0.1267 -0.0170
15316W        W30785   7.369   4.845  11.260  0.0585 -0.2794 -0.3570
15317W        W30786   6.343   2.190   1.814 -0.2549  0.2714  0.0042
15318W        W30787   2.505   2.607  12.300 -0.0442 -0.0292  0.0974
15319W        W30788  15.802  16.369  13.762 -0.0116  0.0522  0.0545
15320W        W30789   7.138  10.113  11.720 -0.2693  0.0860  0.1262
15321W        W30790   2.438  16.980   3.595 -0.1100  0.0062  0.1683
15322W        W30791   5.135  16.355  12.624 -0.3731 -0.2772 -0.0519
15323W        W30792  10.078  12.023   0.481 -0.2357 -0.1274  0.1662
15324W        W30793  13.208   5.849   1.589  0.0244 -0.1729 -0.1622
15325W        W30794   3.057  18.284   5.077  0.0162 -0.0531  0.0464
15326W        W30795  15.504   8.220   3.794  0.0655 -0.2139 -0.0410
15327W        W30796   2.641   5.203   0.486 -0.2840  0.1226  0.3047
15328W        W30797  13.892   3.852  15.683  0.1070 -0.2478 -0.0358
15329W        W30798  13.254  17.091   2.424 -0.1598 -0.0246 -0.2330
15330W        W30799  14.567  15.303   0.661  0.0856 -0.2716 -0.2295
15331W        W30800  17.672  16.582  11.664 -0.1489 -0.0473  0.0233
15332W        W30801   9.242   2.626   0.673 -0.0616  0.4891 -0.0852
15333W        W30802  14.317   0.233  12.179 -0.1224  0.1222 -0.0275
15334W        W30803   7.265   3.031   0.923 -0.1671 -0.0602 -0.0628
15335W        W30804  18.037   3.798   1.031  0.1571  0.2495 -0.2571
15336W        W30805  12.874   4.208  12.435  0.0903  0.1263 -0.1703
15337W        W30806   6.532  10.931   1.665 -0.1549  0.1728  0.1471
15338W        W30807  13.832   1.874  14.338 -0.0740 -0.3985 -0.1849
15339W        W30808  14.268  14.927  11.407  0.0650 -0.1267 -0.2638
15340W        W30809   4.644   2.725  15.093 -0.0420 -0.1521 -0.3210
15341W        W30810   1.579  11.497   2.167  0.0806  0.1958 -0.0168
15342W        W30811   8.416   6.951  14.801  0.2499 -0.0670  0.1398
15343W        W30812  13.336  12.437   2.892 -0.0403  0.2824 -0.0697
15344W        W30813  13.578  13.435   3.515  0.0497 -0.1503  0.0449
15345W        W30814   0.494   8.149   4.004 -0.0999 -0.0672  0.2305
15346W        W30815  12.143   5.359  12.719  0.1085 -0.2007  0.1673
15347W        W30816   4.909   6.914   3.763 -0.1387  0.0192  0.4587
15348W        W30817   7.171   8.178  15.340 -0.2221  0.3041 -0.1802
15349W        W30818   3.055  17.943  11.140 -0.2428 -0.0890 -0.2130
15350W        W30819   2.667  18.519   2.423  0.2311 -0.1450 -0.1643
15351W        W30820   4.601  13.956   2.293 -0.0016  0.1345  0.0430
15352W        W30821   5.696  11.018   3.026 -0.1920 -0.2222 -0.0150
15353W        W30822  16.769   9.593  11.199  0.0963 -0.0650 -0.0915
15354W        W30823  12.421   0.981   2.795  0.0810  0.2536 -0.1290
15355W        W30824   9.925   2.783   0.377  0.1069 -0.1658 -0.1944
15356W        W30825  16.409  12.493   1.190 -0.2376 -0.1717  0.1167
15357W        W30826  16.618  13.140  11.191  0.2542 -0.5563 -0.0544
15358W        W30827   6.476   1.437  14.812  0.0185  0.2192  0.3058
15359W        W30828  17.091  14.222  14.476 -0.0742 -0.1218 -0.0182
15360W        W30829   5.772   0.844   4.561 -0.0752  0.0714 -0.1451
15361W        W30830   9.716  12.061  11.337  0.1762 -0.0829  0.2697
15362W        W30831   3.124  15.521  13.116 -0.1427  0.2350 -0.1854
15363W        W30832   4.836   6.684   2.683  0.0439 -0.2014 -0.0180
15364W        W30833   9.999  16.876  13.723  0.0189  0.2877 -0.2084
15365W        W30834   9.211   7.775  15.543  0.2195  0.0577  0.3700
15366W        W30835   8.597   4.780   2.435  0.0433  0.0728  0.0151
15367W        W30836   3.614   7.843  13.616 -0.0246  0.0071  0.2420
15368W        W30837  14.774  11.948  13.613  0.0165 -0.0988 -0.4313
15369W        W30838  18.434   1.910  14.934 -0.1559 -0.0844  0.0886
15370W        W30839  15.875   3.582  10.700 -0.0318  0.0444  0.0977
15371W        W30840   6.136  13.446   9.906  0.0258  0.0297  0.2368
15372W        W30841   5.824  17.272   1.764  0.3014 -0.1179 -0.0240
15373W        W30842   2.288   3.214  13.545 -0.0435  0.0570 -0.1540
15374W        W30843   5.732  10.022   5.037 -0.2740 -0.0113  0.2062
15375W        W30844   8.888   1.022  12.396 -0.0617  0.0429 -0.1031
15376W        W30845   5.525  18.215   2.412 -0.1445 -0.2326  0.4021
15377W        W30846   3.579   4.391   3.443  0.2092 -0.0193  0.2313
15378W        W30847  15.939   0.745  13.910 -0.0337  0.2097 -0.2533
15379W        W30848  18.072   1.662  14.578 -0.0335 -0.0974  0.1987
15380W        W30849   2.312  12.612   3.057  0.2942  0.2553 -0.2469
15381W        W30850   4.573  17.164   3.741 -0.1644  0.0433  0.1743
15382W        W30851  17.694   5.944  13.370  0.1570  0.1349  0.1591
15383W        W30852   5.654   4.235  15.456 -0.0616 -0.0112  0.1298
15384W        W30853  18.020  16.710  12.097  0.1449 -0.2779  0.3028
15385W        W30854  15.752   1.347  10.916  0.0737  0.2524  0.1615
15386W        W30855  16.838  11.024  15.711  0.3944 -0.4559  0.0523
15387W        W30856   3.430   7.508  13.944 -0.2507 -0.1821 -0.2017
15388W        W30857   4.458  10.922  15.474 -0.0120  0.0098 -0.0529
15389W        W30858  14.766   7.836   3.966 -0.0097  0.1239  0.2579
15390W        W30859  10.262   6.755  11.537  0.1928  0.1211  0.1905
15391W        W30860  10.226   7.793   5.595 -0.0400 -0.0589 -0.0774
15392W        W30861  11.633  15.278  14.148 -0.0559  0.1715  0.3497
15393W        W30862  18.661   0.205   0.706  0.2175  0.0993  0.2591
15394W        W30863   4.808   6.298   0.424  0.0919 -0.2816 -0.0553
15395W        W30864   8.559   9.168  12.586  0.0670  0.0164  0.2222
15396W        W30865   2.304   2.036   2.914 -0.2521 -0.0390  0.3121
15397W        W30866  12.807   7.331   5.766 -0.1718 -0.2178 -0.1069
15398W        W30867  11.823  11.415  10.820  0.1019 -0.4683  0.2001
15399W        W30868  16.612  13.327   2.582  0.0143 -0.1523 -0.3383
15400W        W30869  10.093  12.386  14.068  0.2223 -0.3327 -0.2420
15401W        W30870  15.936  11.592   1.719  0.0414 -0.0498 -0.2792
15402W        W30871  16.035  16.403  15.268  0.2099 -0.2860 -0.0888
15403W        W30872  10.809  10.478   1.838 -0.1479 -0.0273  0.0034
15404W        W30873   2.458   4.412   0.234  0.3579 -0.3172  0.1246
15405W        W30874   8.728   3.848   1.110 -0.2733 -0.1544  0.0187
15406W        W30875   8.360  15.516  14.784  0.0470  0.1195 -0.1432
15407W        W30876   1.908   7.568   0.176  0.1747  0.2678 -0.0308
15408W        W30877  15.476  10.892   2.473 -0.2937 -0.1230 -0.0752
15409W        W30878   0.039   5.079   0.169 -0.0442  0.1237  0.1707
15410W        W30879   8.488   7.646   1.036 -0.1425  0.0885  0.0513
15411W        W30880   2.755  15.741   2.231 -0.2021 -0.0069 -0.0933
15412W        W30881  11.207   6.251  12.428  0.3513 -0.0300  0.2672
15413W        W30882   5.145  17.769   4.074 -0.1032  0.0097  0.4393
15414W        W30883  16.381   2.431   2.508  0.0273  0.0717 -0.2736
15415W        W30884   0.600  10.236   4.486  0.1712 -0.1539 -0.0001
15416W        W30885   8.832   3.091   2.225  0.0324 -0.3302  0.1727
15417W        W30886   5.392   8.555  12.446 -0.2370  0.0209  0.1148
15418W        W30887   3.022   6.109   3.804 -0.0825  0.0336  0.0696
15419W        W30888   4.760  16.652  14.134 -0.1001 -0.4003 -0.0767
15420W        W30889   5.625   4.722   4.598  0.0232 -0.2889 -0.1466
15421W        W30890   9.534  12.997  11.047 -0.1304  0.2693 -0.2679
15422W        W30891   1.693   3.136  11.859 -0.3207  0.1350 -0.1876
15423W        W30892  11.181   7.205   5.264 -0.0249  0.0296 -0.1556
15424W        W30893   4.609  12.263   1.248 -0.0911 -0.1638 -0.0127
15425W        W30894  11.640  11.595  15.396  0.4066 -0.0085  0.0756
15426W        W30895  16.663  15.307   0.673 -0.2712  0.0242  0.1600
15427W        W30896   3.746   2.326   0.636 -0.0904 -0.0553 -0.0584
15428W        W30897  10.655   7.883   3.796  0.1061  0.1582 -0.1754
15429W        W30898  14.223   8.749   3.779  0.0173 -0.2314 -0.0606
15430W        W30899  15.406   3.061   2.911 -0.1616  0.2767  0.1442
15431W        W30900  17.766   0.543  14.019  0.3246 -0.1645  0.1515
15432W        W30901   9.641   2.606   2.987  0.0330 -0.0028  0.0501
15433W        W30902   6.993  14.168   5.099  0.1537  0.1166 -0.1275
15434W        W30903  10.841   9.421   3.581 -0.0258 -0.3782  0.0736
15435W        W30904   1.292   2.639  15.630  0.3753 -0.1328 -0.0138
15436W        W30905  10.900   2.739  12.411  0.0097 -0.0198  0.0611
15437W        W30906  17.671   6.401   2.110  0.1768 -0.0693 -0.2686
15438W        W30907  15.122   4.609  14.571 -0.0156  0.1198  0.1793
15439W        W30908   2.877  16.745  10.805 -0.0634 -0.1991  0.0146
15440W        W30909   2.492   3.121   2.293 -0.0101 -0.2970  0.4229
15441W        W30910   6.847  16.188   0.973  0.1982  0.1003 -0.1021
15442W        W30911   7.566   3.385  12.102 -0.3904  0.3316 -0.0252
15443W        W30912   0.240   7.526   4.837  0.0026  0.4368 -0.2819
15444W        W30913  14.988  16.867  13.404 -0.0970 -0.0837 -0.0591
15445W        W30914  16.020  11.232  14.633  0.3587 -0.2196 -0.0922
15446W        W30915  16.174  11.757  14.674 -0.0170 -0.1545  0.0765
15447W        W30916  16.949   8.431  14.391 -0.0470  0.0501  0.2356
15448W        W30917   3.891   4.163  13.848 -0.1259  0.0087  0.2908
15449W        W30918   5.588  13.253   0.050 -0.0721  0.0674  0.1985
15450W        W30919  11.745  14.262  12.936 -0.1276 -0.4454 -0.3719
15451W        W30920  14.432  10.438  13.090 -0.1088 -0.1094  0.2314
15452W        W30921   4.794   9.684   0.304 -0.4457 -0.0192  0.0870
15453W        W30922  15.095   5.303  13.100 -0.1368  0.2156  0.1958
15454W        W30923  10.761   1.113  15.005 -0.4378 -0.3938 -0.1208
15455W        W30924  14.079  10.863  12.642 -0.2287  0.2218 -0.2517
15456W        W30925  11.082  16.268   5.481  0.1701  0.0950 -0.0826
15457W        W30926  16.804   0.718  15.262 -0.0655 -0.2948 -0.2849
15458W        W30927  11.613   5.446  12.773  0.0327  0.2289  0.2344
15459W        W30928   2.194   7.311   4.724  0.1331 -0.1100  0.1093
15460W        W30929  11.841  13.633   1.662  0.1140  0.0769  0.1439
15461W        W30930  18.365  13.570  12.850 -0.2521  0.1963 -0.3246
15462W        W30931   0.468   8.992  14.159 -0.2221  0.1600  0.0178
15463W        W30932  13.503  13.967   2.488 -0.3169  0.0279 -0.1937
15464W        W30933  14.233  17.105   4.212  0.0005  0.3599  0.1457
15465W        W30934  10.431   5.125   5.011  0.0245 -0.1483 -0.2163
15466W        W30935  11.439   0.026  12.822  0.2262 -0.1019  0.1503
15467W        W30936   3.702  16.186  13.624 -0.5413  0.2102 -0.3279
15468W        W30937  13.763   9.459   4.086 -0.1183  0.0219 -0.0495
15469W        W30938   6.540   0.783   2.296 -0.0644  0.0335  0.1771
15470W        W30939   0.823   3.241   4.261 -0.3778  0.1487 -0.4090
15471W        W30940  18.290   6.986   0.528 -0.0562  0.1082  0.0419
15472W        W30941  18.079   9.586  14.124 -0.2617 -0.2261  0.0126
15473W        W30942   6.981  17.464   2.862  0.0538 -0.2479  0.2697
15474W        W30943  17.207   9.707  14.370  0.0630  0.0280  0.1605
15475W        W30944   5.996   1.772  11.833 -0.0369 -0.0207  0.0182
15476W        W30945  13.566  11.733  13.567  0.1771 -0.4992  0.3595
15477W        W30946  13.797  16.141   4.034  0.4543 -0.2240 -0.1461
15478W        W30947  11.273   2.121  13.766 -0.0484  0.2757  0.0115
15479W        W30948   7.586   2.677   0.937 -0.0123  0.1016  0.1017
15480W        W30949   0.785  15.588   4.142 -0.0426  0.5383 -0.0669
15481W        W30950   3.219  10.958   0.980  0.0823  0.0585 -0.2029
15482W        W30951  14.284   0.262   0.101  0.0788  0.1384  0.2284
15483W        W30952  13.092   3.930   1.682 -0.0010 -0.0396  0.1538
15484W        W30953  12.666   7.967  13.958 -0.3801 -0.0588 -0.0567
15485W        W30954   5.071   1.819  13.910 -0.0749 -0.0632  0.1539
15486W        W30955  10.928   8.051  14.641 -0.0521  0.0862 -0.0662
15487W        W30956   9.492   1.622  10.851  0.2025  0.1084  0.2012
15488W        W30957   7.139   4.499  12.809 -0.1963  0.4138 -0.0676
15489W        W30958  17.229  16.019  14.958  0.1186 -0.4266 -0.0911
15490W        W30959  16.108  13.688   2.285 -0.0978 -0.0422 -0.0894
15491W        W30960   9.585  12.762   4.960  0.0117  0.0485 -0.0092
15492W        W30961  12.204   0.061   1.622  0.0241  0.1561  0.0564
15493W        W30962   3.933   5.952   3.797 -0.1447 -0.1046 -0.2705
15494W        W30963   2.998   9.602  14.344 -0.0531 -0.1870  0.2508
15495W        W30964  14.384  18.366   2.946  0.1317  0.1200  0.1206
15496W        W30965   0.044   2.279   3.412  0.0092 -0.1500 -0.2776
15497W        W30966  15.190  11.045   1.935 -0.0143 -0.3633  0.0086
15498W        W30967  11.667  10.410  14.892 -0.1515 -0.0142 -0.0033
15499W        W30968  18.066  16.581  14.731 -0.0982 -0.0448 -0.1550
15500W        W30969   9.546  17.835   2.296  0.0921  0.2689  0.1298
15501W        W30970  13.865  16.439   2.079 -0.2197  0.1368  0.1396
15502W        W30971   8.551  14.943  13.078 -0.0822  0.1129  0.2120
15503W        W30972  18.155  14.324   2.313 -0.1106 -0.1095 -0.3398
15504W        W30973  15.326   1.282   2.284 -0.0309 -0.2817 -0.1071
15505W        W30974   3.384   6.923   4.342 -0.1108  0.0909  0.0233
15506W        W30975   5.204   8.635   5.708  0.1324 -0.2302 -0.1929
15507W        W30976  17.916   0.527   0.121  0.2601  0.1783  0.1072
15508W        W30977  15.415  13.480  12.841  0.0678 -0.3104  0.1578
15509W        W30978  10.965   7.601   1.285  0.2046 -0.1083 -0.0344
15510W        W30979   2.115  12.536   0.890 -0.1030 -0.0069 -0.1201
15511W        W30980   3.822  17.230  13.402  0.1787  0.0741 -0.1685
15512W        W30981  14.863  11.178  12.988 -0.3753 -0.2462  0.0772
15513W        W30982   1.963   4.066   1.099 -0.4047  0.1541  0.0769
15514W        W30983  14.525  12.330   3.736 -0.3377 -0.2389  0.3261
15515W        W30984   3.461  18.473  13.663 -0.1832 -0.1662  0.0267
15516W        W30985   1.253   8.807  11.238 -0.2562 -0.1841  0.0256
15517W        W30986  13.691   3.171   0.342  0.2990 -0.1552 -0.0973
15518W        W30987   2.243   2.278   3.936  0.2167 -0.2512 -0.1816
15519W        W30988  15.314  16.018   5.541  0.1277 -0.0333 -0.1233
15520W        W30989  18.007  15.254   3.211  0.2596  0.0674 -0.3277
15521W        W30990   8.206   2.127   2.139  0.0504 -0.0924 -0.3751
15522W        W30991  13.135  14.485  10.776 -0.0265 -0.3082  0.3039
15523W        W30992  14.179   4.947  13.645 -0.2109  0.1066 -0.3274
15524W        W30993  10.637   4.935   2.181 -0.1431 -0.2356 -0.0200
15525W        W30994   8.254  10.026   0.156  0.0748  0.0491  0.2784
15526W        W30995   6.161   9.324   0.667  0.0334 -0.1869  0.2273
15527W        W30996  17.412   1.073   1.388  0.2034 -0.2048  0.0802
15528W        W30997   7.333  11.366   4.028 -0.2011 -0.4976 -0.1585
15529W        W30998  10.654   0.117   2.979 -0.0350 -0.0652 -0.1802
15530W        W30999  12.541   4.374  14.454 -0.2738  0.0949 -0.3316
15531W        W31000  13.615   0.691   5.039  0.0125 -0.1062 -0.1340
15532W        W31001   6.636   8.285  13.807  0.3780  0.0509  0.1472
15533W        W31002   6.913  10.687   1.075  0.0160  0.0480 -0.0427
15534W        W31003   4.807   4.502  12.782  0.1695  0.0500  0.2758
15535W        W31004   4.300  11.988  12.114 -0.0954 -0.1699  0.1767
15536W        W31005  10.012   8.705   3.012  0.0485  0.0263 -0.3349
15537W        W31006   0.387   4.859  15.668 -0.0514  0.2359 -0.1063
15538W        W31007   9.306   3.624  14.894  0.2644  0.2818 -0.0612
15539W        W31008  17.800   2.621   1.599  0.0727 -0.2669 -0.1185
15540W        W31009  13.557  12.146   3.235  0.0836  0.0917  0.0361
15541W        W31010   9.118  17.622  13.390  0.3065 -0.1080  0.0237
15542W        W31011  17.720  15.410  15.390  0.0741  0.0503 -0.0078
15543W        W31012   1.599  16.676  14.432 -0.2302  0.1432  0.0976
15544W        W31013   5.862   5.888   3.910  0.0317 -0.0784 -0.0222
15545W        W31014  15.230   9.137   5.473 -0.2948  0.0012 -0.0619
15546W        W31015   0.495   0.512   1.256 -0.2612  0.0366  0.0063
15547W        W31016   1.275  14.404  13.195  0.0497 -0.1404  0.3057
15548W        W31017  15.802   2.333  11.033  0.1528  0.0728  0.2366
15549W        W31018  15.166   5.911   4.141  0.1142 -0.0111 -0.0070
15550W        W31019   9.353  13.959  13.392  0.1905  0.1176  0.2141
15551W        W31020   9.588  12.302  15.552 -0.0364  0.1672 -0.1876
15552W        W31021  16.962  12.372  10.339  0.0387  0.4051 -0.0113
15553W        W31022  11.811   6.533  11.742 -0.2106 -0.1602 -0.1111
15554W        W31023  16.452   8.230   2.634  0.0245  0.0297 -0.2474
15555W        W31024   7.995  12.861   3.926  0.2253 -0.0553 -0.0422
15556W        W31025  15.183  15.478   2.017  0.1937  0.1985 -0.4209
15557W        W31026  17.352  12.002  13.521 -0.0474  0.0655  0.0135
15558W        W31027   4.233   3.048  12.173  0.0263 -0.0519 -0.3277
15559W        W31028  10.587   9.979   1.149 -0.0514 -0.0860  0.0595
15560W        W31029  15.901  10.305   3.163  0.2681 -0.2015 -0.1338
15561W        W31030  14.361   2.150   2.486 -0.0243 -0.1619 -0.1370
15562W        W31031   2.488   3.436   4.478 -0.0886  0.4684  0.1970
15563W        W31032  15.513   8.204  13.836  0.0155  0.1355  0.1786
15564W        W31033   2.465  13.045   1.872 -0.2526  0.3086  0.0099
15565W        W31034   0.583   2.911  12.785 -0.1067  0.1193  0.0611
15566W        W31035  13.877   8.030   4.384  0.0028  0.0348  0.0054
15567W        W31036  10.245   4.625   5.157 -0.2250 -0.2016 -0.1654
15568W        W31037  11.890  15.381  10.978  0.0337  0.1456 -0.2916
15569W        W31038  14.114  18.547   5.048  0.2252  0.1261  0.0487
15570W        W31039   3.345   2.618  10.677 -0.0362  0.3761  0.1536
15571W        W31040   7.854  16.720   2.679  0.0216  0.1961  0.2554
15572W        W31041  17.211   0.336   2.509 -0.4942 -0.1478  0.0625
15573W        W31042   8.015  18.276  12.005 -0.0335  0.2996 -0.0125
15574W        W31043   3.322   4.083  15.594  0.1729  0.0151 -0.3795
15575W        W31044   7.844   0.572  11.100 -0.1443 -0.1441  0.2940
15576W        W31045   9.333   5.961  15.030  0.1304 -0.0851  0.1058
15577W        W31046   0.228   9.736  15.572 -0.0471  0.2226 -0.0358
15578W        W31047   5.409  12.017  11.156  0.2898 -0.1256 -0.2841
15579W        W31048   7.765  11.393  11.396  0.1130  0.1225 -0.1768
15580W        W31049  15.361   9.992   0.154  0.0161  0.0936 -0.0422
15581W        W31050  10.868  11.757  13.078 -0.1367 -0.3281 -0.2145
15582W        W31051   7.694   5.472  14.578  0.0454 -0.0691 -0.1708
15583W        W31052  11.943   1.296   0.406 -0.0414  0.0633 -0.0359
15584W        W31053  16.309  18.691  14.900  0.0691 -0.4760 -0.0003
15585W        W31054   7.932   6.822   4.506 -0.3646 -0.1553 -0.0121
15586W        W31055  17.388   3.373   0.185  0.0813  0.3312  0.0977
15587W        W31056  17.867   7.131  12.804  0.1871 -0.1770 -0.1465
15588W        W31057   3.441   1.722  12.430  0.1128 -0.1304 -0.2431
15589W        W31058   0.580   1.692  12.037  0.0752 -0.1501 -0.2818
15590W        W31059  12.801  11.549   2.673  0.0217  0.4186 -0.3237
15591W        W31060   1.360  16.523  15.501  0.1602 -0.0877  0.2539
15592W        W31061   9.984   2.962   2.831  0.3639  0.0151  0.1163
15593W        W31062   6.128   6.162   0.308  0.0206  0.1361 -0.0466
15594W        W31063   8.557  11.042   1.821  0.3919  0.5255 -0.0726
15595W        W31064   2.886  17.983  15.774 -0.0050  0.0294 -0.1118
15596W        W31065  18.423  12.651  11.674  0.1537  0.3073  0.0438
15597W        W31066  17.772   0.674   2.913  0.3294 -0.0288 -0.3233
15598W        W31067  16.077   5.204  12.162 -0.2440 -0.3624 -0.0763
15599W        W31068   7.706   3.588  12.883  0.0363  0.4530  0.1203
15600W        W31069  17.057  13.188  10.988 -0.1465 -0.5265 -0.1594
15601W        W31070  15.388   6.093   1.489  0.1011  0.1440 -0.2361
15602W        W31071   5.856   1.196  14.142 -0.1565  0.0560 -0.2409
15603W        W31072   0.080   5.607  10.176  0.0338  0.0835 -0.2840
15604W        W31073  18.449  12.958   1.937  0.1477  0.1751 -0.2642
15605W        W31074   6.141  18.204  12.820 -0.2999  0.1784  0.0732
15606W        W31075  11.400   9.694  14.900 -0.1561  0.0828 -0.1952
15607W        W31076   9.145   7.687  12.168  0.2380 -0.2949  0.0868
15608W        W31077   3.380  16.305   3.375  0.0288 -0.0209  0.2065
15609W        W31078   9.995   9.116  10.510 -0.0125  0.1310  0.1090
15610W        W31079   0.543   7.118  11.454 -0.1513 -0.2666 -0.1183
15611W        W31080   5.310   7.362  12.554 -0.1478 -0.0110 -0.0019
15612W        W31081   5.035  16.096   3.476  0.0750  0.0159 -0.0516
15613W        W31082  16.074   3.141  10.532  0.0782  0.0305  0.4290
15614W        W31083  15.948   5.635  14.174 -0.2025 -0.0530  0.1752
15615W        W31084   0.293  16.411  14.549  0.1237  0.2137 -0.2349
15616W        W31085  17.896  17.070   2.575 -0.2729  0.1021  0.1631
15617W        W31086   2.083   8.488  12.769  0.1869  0.1741 -0.5436
15618W        W31087  15.092   5.867   2.811  0.1287 -0.2637 -0.2685
15619W        W31088  15.822  10.929  13.425  0.0357 -0.1233  0.0496
15620W        W31089   3.483   7.469   4.409  0.0203  0.2071 -0.2570
15621W        W31090  13.316   5.990  14.586 -0.0614  0.1116  0.3970
15622W        W31091   4.434  11.751   2.299 -0.2025 -0.1906 -0.4183
15623W        W31092  11.414   8.382   2.316  0.4733  0.0462  0.0001
15624W        W31093  11.098   4.363  15.004 -0.0601  0.1303 -0.0343
15625W        W31094   2.852  13.665  14.063 -0.0491  0.1499 -0.0948
15626W        W31095  14.447   8.081   1.822  0.2628  0.2016  0.1746
15627W        W31096   3.910  11.456   1.189 -0.1749  0.0010  0.1082
15628W        W31097   7.635  14.449  13.013  0.0089  0.3514 -0.0384
15629W        W31098  16.255  11.420   5.336  0.2623  0.1881  0.1097
15630W        W31099   3.144  14.416   0.250 -0.1747 -0.2841 -0.0829
15631W        W31100  15.684  10.680  14.195  0.3646 -0.2093  0.1343
15632W        W31101   3.898   8.768   5.905  0.0124 -0.1093 -0.1440
15633W        W31102  14.478   8.828   0.876 -0.0437  0.2084 -0.0665
15634W        W31103  15.389  12.677  10.664 -0.0317 -0.1475  0.0717
15635W        W31104   3.745  11.275   2.097  0.0921  0.3286  0.0669
15636W        W31105   3.003  10.501  14.975  0.2448  0.2816 -0.0948
15637W        W31106  13.221   3.147   4.431 -0.2530 -0.5296  0.0057
15638W        W31107   4.960   0.521  14.553  0.0211 -0.0518  0.0844
15639W        W31108   1.636  18.272   0.110  0.2772  0.2676 -0.3814
15640W        W31109   4.019  16.511  15.615 -0.0333  0.1846  0.0227
15641W        W31110  14.904  10.047   3.875  0.3402  0.2565  0.2375
15642W        W31111   8.770   4.187  11.127  0.1511  0.0364  0.0557
15643W        W31112  14.638   8.815  12.773 -0.1845 -0.3978 -0.0316
15644W        W31113  10.308   7.218   1.695  0.1246  0.0005  0.2365
15645W        W31114   5.243   6.876  11.952  0.2372  0.0212 -0.0821
15646W        W31115   8.176  17.452   2.313  0.0472 -0.0580 -0.0253
15647W        W31116   4.579  16.966  13.231  0.1313 -0.1100 -0.1950
15648W        W31117  10.963  13.124  14.223  0.0359  0.7239  0.2782
15649W        W31118  11.063   8.503  11.851  0.2726  0.1952  0.0269
15650W        W31119   7.903  15.307   1.254  0.0005 -0.1099  0.1026
15651W        W31120   4.362   7.204   0.369  0.0427 -0.1298  0.1174
15652W        W31121  12.954  10.196   5.113  0.0289  0.0673  0.3518
15653W        W31122   0.632   1.539   0.945  0.1264 -0.0899 -0.0764
15654W        W31123  17.822   2.279  11.897  0.1401 -0.0508 -0.2145
15655W        W31124   4.383  11.572   5.101 -0.1544 -0.0227  0.0247
15656W        W31125   1.417   5.673   0.596  0.0987  0.1240  0.0775
15657W        W31126  12.507   5.604   2.388  0.4560 -0.0672  0.0440
15658W        W31127   0.897   9.391  10.602  0.2674 -0.3107  0.0251
15659W        W31128  11.424   6.838   2.590  0.0000 -0.1800  0.3352
15660W        W31129   4.269   4.046  11.120 -0.2349  0.0407 -0.1332
15661W        W31130   8.244   5.754   0.604 -0.3398  0.0565  0.2171
15662W        W31131   4.581   6.957  15.297  0.5510 -0.0168  0.2698
15663W        W31132  15.567   7.989  13.030  0.1322  0.0458  0.0552
15664W        W31133   1.246   5.690   5.074 -0.4825  0.0637 -0.1635
15665W        W31134   4.170  18.665   0.929 -0.3880  0.4151 -0.1204
15666W        W31135  14.537  11.459   5.995 -0.0128  0.3660 -0.2412
15667W        W31136   4.533  15.375   5.635  0.1449 -0.1733 -0.2286
15668W        W31137  17.488  17.153   0.132  0.1910 -0.1194 -0.0224
15669W        W31138   2.835  18.097  14.293  0.2782 -0.1631 -0.0173
15670W        W31139   7.600   4.693   0.736 -0.0004 -0.0808 -0.3857
15671W        W31140  14.894   6.465  12.400 -0.2103 -0.3518 -0.0031
15672W        W31141  11.988  15.502  12.906 -0.1230 -0.1933  0.2699
15673W        W31142   9.871   0.652  15.399  0.4855 -0.0686  0.1643
15674W        W31143  11.980  15.135   4.800 -0.1362  0.2725 -0.0060
15675W        W31144   7.554   3.048  14.141 -0.0051 -0.0445 -0.2801
15676W        W31145  17.046   3.648   4.120  0.0174 -0.3966 -0.0257
15677W        W31146   3.983   1.803  12.401  0.0882 -0.2322  0.1112
15678W        W31147   1.848   9.129   0.778  0.0386  0.1715 -0.3229
15679W        W31148  17.550  11.645   5.498  0.0291 -0.0784 -0.0162
15680W        W31149  11.037  16.753  12.331 -0.0529  0.2805  0.2670
15681W        W31150   8.673  16.162   0.176  0.0251  0.0343 -0.1487
15682W        W31151   6.991  14.774   4.454 -0.1093 -0.0716 -0.0386
15683W        W31152  16.831   5.790   4.093 -0.5573 -0.3985 -0.0880
15684W        W31153   1.255  15.095   0.818 -0.1381 -0.5426 -0.0791
15685W        W31154  11.428  13.820   1.443  0.1606 -0.0971  0.0859
15686W        W31155  14.269  12.634   0.247 -0.0729 -0.1517  0.1131
15687W        W31156  14.445  11.594   3.194 -0.3069 -0.2113  0.1650
15688W        W31157   8.404   6.144  12.305 -0.2013  0.2729  0.2649
15689W        W31158  14.828  10.013   0.418  0.1284  0.0230  0.0839
15690W        W31159  17.417  11.995  11.909  0.0689  0.1678  0.1962
15691W        W31160  18.506  12.134  13.856 -0.0253  0.0935 -0.0028
15692W        W31161  13.523  18.260   3.979 -0.0653 -0.0997  0.3226
15693W        W31162   2.236   0.895  13.757 -0.3016 -0.0362 -0.0412
15694W        W31163  13.397   7.322  13.575  0.0537 -0.3166 -0.3296
15695W        W31164   6.411   2.322   2.853 -0.0429  0.1344  0.1402
15696W        W31165  13.985   1.042   0.174  0.3421 -0.3222  0.0302
15697W        W31166  17.494  18.281   2.475 -0.0678  0.3467 -0.4360
15698W        W31167   4.847  11.990  15.078  0.0178 -0.1917  0.1233
15699W        W31168   5.825  15.689  11.592 -0.0287  0.0967  0.2235
15700W        W31169  18.522  10.635   3.022  0.2896 -0.1692 -0.2074
15701W        W31170  15.167   5.111  15.722  0.2164 -0.1494 -0.0464
15702W        W31171  12.460   2.969   1.005 -0.0260  0.3969 -0.1291
15703W        W31172  12.341   7.614  13.142 -0.0426  0.1754  0.1165
15704W        W31173  17.635   1.252  12.142 -0.0139 -0.2667  0.2123
15705W        W31174  13.454   1.613  14.902  0.3320  0.0654  0.1456
15706W        W31175   5.272   3.164  14.393 -0.0088  0.2149  0.1620
15707W        W31176   9.981   1.573   3.717  0.0594 -0.0138  0.2453
15708W        W31177  13.005   8.397   0.626 -0.0833 -0.0282  0.1472
15709W        W31178  12.782   3.279   1.559  0.2941  0.1037 -0.3041
15710W        W31179  16.913   4.335  13.924  0.2131 -0.0357 -0.1708
15711W        W31180   0.348   9.754  12.886 -0.2387 -0.0694  0.0144
15712W        W31181  11.790  15.629   4.041  0.2499 -0.0154  0.2929
15713W        W31182   5.258   3.686   5.154  0.1003  0.0642 -0.3887
15714W        W31183   9.660  17.378  13.885 -0.0744 -0.4211 -0.1939
15715W        W31184  18.162   8.870  10.700 -0.1592 -0.0346 -0.0850
15716W        W31185   3.166  17.983  13.963  0.1041  0.0915 -0.0916
15717W        W31186   8.745   5.815   5.045 -0.3274 -0.2053  0.0715
15718W        W31187  14.113  13.691  15.194 -0.4627  0.2207  0.1303
15719W        W31188  14.049  13.494   0.545 -0.2724 -0.2236  0.0348
15720W        W31189   3.002   9.177   0.459  0.1126 -0.3265 -0.2779
15721W        W31190   1.452  11.122   5.104  0.1016 -0.1163  0.0962
15722W        W31191   0.100  12.524   1.616 -0.1160  0.1477 -0.0322
15723W        W31192  13.956   1.943   3.886 -0.0681  0.1836  0.1018
15724W        W31193  13.380  17.436   5.326 -0.1188  0.1559  0.1705
15725W        W31194  16.825  15.407  14.889 -0.0203 -0.1485  0.1267
15726W        W31195   7.699   8.267   4.327  0.1314 -0.0656 -0.1990
15727W        W31196   5.229   1.799  14.441  0.2256 -0.0696  0.0226
15728W        W31197   3.375  12.531   3.111  0.0795 -0.0916 -0.0312
15729W        W31198  15.715  15.598  15.441  0.0005  0.1295  0.2081
15730W        W31199  17.778   9.123  15.245  0.2509 -0.0043  0.1049
15731W        W31200  15.980   4.273   0.230  0.0139 -0.1862 -0.2767
15732W        W31201   6.601   2.071  10.940  0.0241 -0.3315 -0.0914
15733W        W31202  17.959   3.064  15.137  0.1703  0.1128  0.0494
15734W        W31203  14.177  11.837  12.519 -0.0126 -0.1429  0.0213
15735W        W31204   8.911  18.453  13.810 -0.1354  0.0220  0.0254
15736W        W31205   4.796   0.084   4.488 -0.2161  0.2533 -0.0601
15737W        W31206   5.764  12.229   5.007 -0.1557 -0.1412 -0.0654
15738W        W31207   3.577   2.021   0.107 -0.1245  0.2923  0.1422
15739W        W31208  13.770   0.236  12.131  0.0927  0.4652  0.0914
15740W        W31209  14.992  12.807  15.167  0.3510  0.0014 -0.0249
15741W        W31210  13.821   5.854   4.209  0.1472  0.1017 -0.1096
15742W        W31211  18.179  14.463   0.465 -0.2059 -0.0578 -0.4685
15743W        W31212  11.500   2.191   1.365 -0.0231 -0.1253  0.3879
15744W        W31213  11.760   6.405   5.062  0.1083 -0.2433  0.2831
15745W        W31214  18.432  16.334   0.740  0.2094  0.1710 -0.0204
15746W        W31215  10.983  18.054   2.151 -0.4322  0.2346  0.0437
15747W        W31216  18.154  12.983  13.707  0.0226 -0.0536  0.1451
15748W        W31217  11.879   1.701   4.329 -0.0311 -0.0129  0.3993
15749W        W31218   0.932   3.700  15.646  0.0189  0.1136 -0.0962
15750W        W31219   5.314   5.914   2.427  0.0599  0.0875  0.0757
15751W        W31220   4.358   9.255   3.874 -0.1899 -0.1023 -0.0671
15752W        W31221   3.461  10.493   0.885  0.1282  0.2711 -0.2864
15753W        W31222  10.013  18.038   3.054  0.0353  0.1669 -0.3042
15754W        W31223   0.649  11.166  15.352  0.0679 -0.1285  0.1486
15755W        W31224  15.303  11.552   0.925 -0.0001  0.1375  0.2165
15756W        W31225   4.912   4.599   2.448  0.2909  0.3077  0.0938
15757W        W31226   2.494   0.686  12.367 -0.2194 -0.1448  0.2449
15758W        W31227   6.232  14.673   5.656  0.0429  0.1807  0.0371
15759W        W31228  10.590  12.936  12.561 -0.0315  0.0985 -0.2808
15760W        W31229  14.624   8.579  11.851  0.0244  0.2598  0.1720
15761W        W31230  10.259  18.164  11.914 -0.0527  0.3174  0.0794
15762W        W31231   6.363   8.076   3.891  0.1760 -0.0094  0.1785
15763W        W31232   8.040  18.233   1.711  0.4026 -0.0129  0.0315
15764W        W31233  17.935  17.407  11.982  0.1646  0.2194  0.0056
15765W        W31234  14.912   1.479  12.062  0.0363  0.1252 -0.0646
15766W        W31235  12.175   1.539   3.367 -0.0989  0.0394  0.2688
15767W        W31236  10.382  11.426   3.310  0.1683  0.1602 -0.0201
15768W        W31237   0.946  12.181   0.607  0.2014 -0.1440 -0.1455
15769W        W31238   4.774   6.152  11.409 -0.1785  0.0766  0.0744
15770W        W31239  11.771  13.467   5.375 -0.1227  0.0072  0.2124
15771W        W31240  16.421   6.208  11.993 -0.2880  0.4451 -0.0544
15772W        W31241  16.667  18.165   3.451 -0.1330  0.0642 -0.0092
15773W        W31242   7.670   3.290   0.140  0.1905 -0.1960  0.0115
15774W        W31243   0.280   6.452   2.682  0.1063 -0.0254 -0.0720
15775W        W31244  15.861  14.766  11.142  0.1933  0.2810 -0.1262
15776W        W31245  17.508   7.995  15.344  0.3702 -0.2506 -0.0656
15777W        W31246   9.280  13.509  11.769 -0.2858  0.3109 -0.0011
15778W        W31247  14.908   4.999  10.649 -0.0735 -0.3243  0.3713
15779W        W31248   2.617   3.762  12.741  0.0756  0.1113  0.3101
15780W        W31249   1.072   3.022   2.997  0.1929 -0.3951  0.3681
15781W        W31250  14.534   5.900   4.909 -0.1264 -0.2767 -0.0292
15782W        W31251  13.497   8.685   5.436  0.0803 -0.2411 -0.0267
15783W        W31252   0.206   9.156  14.974  0.0554  0.3845  0.1879
15784W        W31253  18.675  10.119  14.587  0.1304  0.3186 -0.1520
15785W        W31254   1.745   6.625   4.171 -0.0583 -0.3323  0.0812
15786W        W31255   6.953  11.930  11.026 -0.1260 -0.1691 -0.0746
15787W        W31256  10.614   0.131  12.591 -0.0520  0.3121 -0.0115
15788W        W31257  16.913  14.194  13.067 -0.5775  0.0887  0.2633
15789W        W31258  16.706   6.090   4.952 -0.0522 -0.1087 -0.0788
15790W        W31259   3.797   2.380  13.004 -0.1938  0.1646  0.2835
15791W        W31260  12.657  16.311   4.784  0.2561  0.4681  0.1339
15792W        W31261   2.460  10.410   2.826 -0.0012  0.3033  0.0085
15793W        W31262  15.745   8.929  10.837 -0.2592  0.3143 -0.0018
15794W        W31263   7.033  10.769  13.981 -0.3186 -0.1098  0.0884
15795W        W31264  16.344  13.218  15.146  0.2694  0.1637  0.1084
15796W        W31265   0.547   2.214  14.614  0.2863 -0.0091 -0.0007
15797W        W31266   4.747   7.280   3.391  0.0663 -0.0981 -0.1116
15798W        W31267  11.294   1.134   0.147 -0.1643  0.0748 -0.2818
15799W        W31268   2.292  14.819   0.250 -0.4629 -0.0201  0.0775
15800W        W31269  11.055   2.842  14.263  0.0910  0.1473 -0.2514
15801W        W31270   2.468  17.335  11.667  0.0458 -0.3169  0.5864
15802W        W31271   1.272  10.582  11.552  0.2462 -0.0464 -0.0629
15803W        W31272   1.629   1.276  14.965  0.1348 -0.3414 -0.5052
15804W        W31273   4.655   3.364  15.719 -0.0852 -0.1064  0.2413
15805W        W31274  12.149   5.007   3.334  0.4584  0.0452 -0.2504
15806W        W31275  17.502   8.036   3.659  0.0468  0.2133  0.0938
15807W        W31276  11.684  14.546  14.629  0.0950  0.2704  0.2900
15808W        W31277   5.831  17.810  12.615 -0.0004 -0.0209 -0.0191
15809W        W31278   8.228   0.499   4.521 -0.0271  0.0982  0.1208
15810W        W31279  15.128   3.603   0.235  0.0976 -0.3175 -0.1494
15811W        W31280   1.687  18.665   1.370  0.0924 -0.2006  0.1250
15812W        W31281   9.240   8.368   4.096 -0.0509  0.0886 -0.2026
15813W        W31282   4.287   1.019   1.751  0.1043  0.1993  0.3443
15814W        W31283   8.514   4.559  15.455  0.3541 -0.2979  0.3068
15815W        W31284   3.852  12.025  13.101  0.1160 -0.1345  0.0925
15816W        W31285  10.604  17.484   0.577 -0.0359  0.0540 -0.3202
15817W        W31286  17.912   1.705   0.951  0.0683 -0.0596 -0.2749
15818W        W31287   5.651  15.436  14.017 -0.4421 -0.2737  0.4622
15819W        W31288   2.987   3.334  14.078 -0.1351 -0.2133 -0.1061
15820W        W31289   3.888   9.778   0.291  0.1350  0.0684 -0.3550
15821W        W31290   8.669   6.163  15.326 -0.3457  0.0666  0.1159
15822W        W31291   6.753  10.792   4.641 -0.0469 -0.0529  0.0081
15823W        W31292   3.923   3.378  10.732  0.0315 -0.0901 -0.0275
15824W        W31293   9.380  11.027   2.233  0.2311  0.0012 -0.2335
15825W        W31294   7.500  18.230  14.699 -0.2200  0.1111  0.0593
15826W        W31295   7.881   6.750   2.171  0.0173  0.1162 -0.1594
15827W        W31296   6.745  17.546  12.102  0.0431 -0.1770 -0.4383
15828W        W31297  12.186  17.361  13.551  0.0951 -0.1327 -0.1495
15829W        W31298  15.866   6.629  14.929 -0.1331  0.1215  0.0405
15830W        W31299   3.144   1.416   4.660  0.4707  0.0245 -0.1880
15831W        W31300  14.554   9.907   2.086 -0.0213 -0.0442  0.2545
15832W        W31301  10.713  11.329   4.556  0.1973 -0.1298  0.0236
15833W        W31302  18.397   9.057  15.095  0.0033 -0.1442 -0.4282
15834W        W31303  15.327  14.766  11.839  0.2276 -0.0503 -0.0907
15835W        W31304  16.155  12.791   4.468  0.1339 -0.0266 -0.1649
15836W        W31305   9.686  11.840   2.783  0.0963 -0.1964  0.0880
15837W        W31306   7.826  15.725  13.105 -0.3181 -0.0359  0.2198
15838W        W31307  12.019  13.786  15.204  0.0696 -0.3118  0.0925
15839W        W31308   3.083   1.371  12.461 -0.0081 -0.1039  0.1863
15840W        W31309   0.967   4.708   3.890 -0.0191 -0.0187 -0.2407
15841W        W31310   9.428  11.490  11.983 -0.0469 -0.1869 -0.2095
15842W        W31311  18.587   4.425   1.864 -0.4881 -0.1140  0.2817
15843W        W31312   0.690  14.551   1.695 -0.4328  0.0164 -0.4519
15844W        W31313  10.375  14.109  13.944 -0.0266  0.2605  0.1682
15845W        W31314   0.177   6.893   2.425 -0.1087  0.2984  0.0990
15846W        W31315   3.805  17.668  15.513 -0.0747  0.2192 -0.2256
15847W        W31316  16.284  14.634  13.331 -0.0240  0.1978  0.0477
15848W        W31317   2.327   6.546  13.679  0.0757 -0.0049  0.0896
15849W        W31318   1.491   9.013   1.586 -0.0400 -0.1787 -0.1523
15850W        W31319  11.907  16.238  12.811 -0.1006  0.0516 -0.0820
15851W        W31320   6.873  11.339  13.783  0.3967 -0.1023 -0.2560
15852W        W31321   8.142   4.072  14.533  0.0567  0.2664  0.0269
15853W        W31322   5.274   6.906  14.681 -0.3793  0.0313 -0.2868
15854W        W31323  13.569  15.684  11.966  0.0150 -0.1998 -0.0567
15855W        W31324   2.622   3.059  11.468  0.2500 -0.1816  0.1929
15856W        W31325   7.325  16.646   4.661 -0.1910 -0.0495 -0.0548
15857W        W31326   3.139   4.174   2.050  0.0037 -0.1518 -0.1422
15858W        W31327   2.119  12.782   0.068  0.3641  0.1018  0.0815
15859W        W31328   3.855   7.837  11.731 -0.2019  0.0667 -0.0101
15860W        W31329   3.446   3.470  14.472 -0.0547 -0.2084  0.0692
15861W        W31330   2.440  15.723   3.504 -0.1512  0.0601 -0.0490
15862W        W31331  10.567  17.567   4.385  0.0222  0.0444 -0.2384
15863W        W31332  12.194  13.038  12.150 -0.0227 -0.2972  0.2151
15864W        W31333   4.956  14.570  15.231  0.0994 -0.3012  0.3374
15865W        W31334   2.007   8.156   3.282 -0.2567  0.0088  0.0290
15866W        W31335  13.673  10.477   3.925  0.1318  0.0800  0.3002
15867W        W31336   0.642  17.446   4.637 -0.0661  0.0395 -0.2490
15868W        W31337  11.248   8.743   1.955 -0.1334 -0.2249  0.0109
15869W        W31338  15.441   2.875  11.842 -0.2357 -0.0235  0.0966
15870W        W31339   6.150  18.545  14.989  0.0732 -0.1499 -0.0315
15871W        W31340  14.469  15.897  15.371  0.2545 -0.0418  0.1489
15872W        W31341  15.600  12.459   5.145 -0.0404 -0.0096  0.1180
15873W        W31342  15.374   2.131   9.881  0.2595  0.0035  0.1548
15874W        W31343   2.634  17.005   4.628 -0.0686 -0.3956 -0.1848
15875W        W31344   7.280  15.093   4.235  0.1273  0.0419 -0.0348
15876W        W31345   0.821  15.200   5.905  0.1160  0.0577  0.2792
15877W        W31346   1.251  17.728   3.783  0.0180  0.0374 -0.4748
15878W        W31347   1.672  15.636   4.761  0.3048  0.0491 -0.0064
15879W        W31348   7.302  11.066   1.463 -0.0317 -0.2721 -0.0189
15880W        W31349   1.257  15.252   5.014  0.0787 -0.0874 -0.0931
15881W        W31350   2.429   5.587   1.280  0.1076  0.3170  0.2978
15882W        W31351  14.057  15.496  11.235  0.1672  0.0001 -0.0971
15883W        W31352   5.388   6.337  12.725  0.2734 -0.0650  0.0951
15884W        W31353  16.984  15.845  14.575 -0.0714 -0.0082  0.0035
15885W        W31354  15.886   8.075   2.511 -0.0272  0.2047 -0.1011
15886W        W31355  14.441   9.162  13.722 -0.0347 -0.2761 -0.0542
15887W        W31356   8.216  17.205  10.984 -0.1602 -0.0556  0.1587
15888W        W31357  13.413  16.473  11.255 -0.0423  0.0104 -0.1338
15889W        W31358   3.891  16.707   0.291 -0.2132  0.1520 -0.1207
15890W        W31359  11.353  16.155   0.679 -0.1299  0.0805  0.0712
15891W        W31360  11.901   2.167  11.641  0.0406  0.1147 -0.2001
15892W        W31361  17.058  11.221  15.205  0.0828  0.2067 -0.1174
15893W        W31362  12.639  12.878   3.356 -0.0173  0.0455  0.2862
15894W        W31363   9.715  13.682  14.718  0.1741  0.0810  0.0328
15895W        W31364   5.887   2.761   4.457  0.0810  0.0116  0.3258
15896W        W31365   3.586   3.796  14.146 -0.1364  0.1821  0.2584
15897W        W31366   0.674  10.788  13.842  0.0497  0.0793  0.1293
15898W        W31367   3.809  16.741  14.160  0.0293  0.0471  0.5433
15899W        W31368   4.784   3.200  14.237  0.1773 -0.2754 -0.1164
15900W        W31369   9.041   9.123   5.912  0.1672 -0.0582  0.0640
15901W        W31370  13.671   4.739  13.066  0.3486 -0.3143 -0.0157
15902W        W31371  17.526   8.663   2.662  0.3569  0.1003  0.1106
15903W        W31372  17.166   2.674  14.787 -0.0618 -0.3640  0.0956
15904W        W31373  16.381   8.483  14.115 -0.0350  0.0614 -0.1272
15905W        W31374  12.858   5.745   4.302 -0.1348 -0.0215 -0.1454
15906W        W31375   3.675   1.471   0.042  0.2007  0.1827 -0.0481
15907W        W31376   4.443  12.610   6.127 -0.2542 -0.2243  0.1229
15908W        W31377   5.774   1.564  14.496 -0.0711 -0.1957 -0.2912
15909W        W31378  17.808   6.703   0.301  0.3320  0.0062  0.1465
15910W        W31379   4.823   2.700   2.668  0.3490  0.1704 -0.1141
15911W        W31380  14.365  12.047   4.589 -0.1799  0.0781  0.0360
15912W        W31381   9.837   4.350   0.186  0.2071  0.0621  0.0843
15913W        W31382  16.601   2.353  15.413 -0.1566 -0.1297 -0.1546
15914W        W31383   4.040   2.033   0.308 -0.2429  0.1283 -0.1117
15915W        W31384   7.161   8.705  15.374 -0.0187  0.1003  0.1220
15916W        W31385   5.397  17.794   0.353  0.3657 -0.1641 -0.1390
15917W        W31386   9.996   6.406   0.904 -0.1306 -0.1113  0.3604
15918W        W31387   0.922   9.291   4.217  0.2878  0.1592  0.2610
15919W        W31388   7.588   5.716   2.214 -0.0419  0.0523  0.3140
15920W        W31389   7.508   7.920   3.946 -0.0061  0.0302 -0.0440
15921W        W31390   7.695  11.695   2.553 -0.0425 -0.0880  0.2047
15922W        W31391  11.244  18.306  13.058  0.0665  0.1744 -0.0893
15923W        W31392   2.201   8.546   5.105  0.3928  0.1526  0.4327
15924W        W31393   7.481   0.190  13.055  0.0939 -0.4757 -0.0623
15925W        W31394   9.356   5.877  14.236  0.3094 -0.2406 -0.2328
15926W        W31395   2.376   4.505   1.700  0.0800  0.0509 -0.0091
15927W        W31396  17.294   7.462  15.443  0.0762 -0.0576 -0.1538
15928W        W31397   3.779   1.387   1.861 -0.1126  0.2915 -0.1158
15929W        W31398  14.846  14.748   5.421  0.0078 -0.1768  0.0052
15930W        W31399   8.893  12.280  13.605 -0.0115  0.1072 -0.0429
15931W        W31400  12.571   9.374  14.909  0.3475 -0.0370 -0.1891
15932W        W31401  11.886  16.314   2.337  0.2451 -0.0158  0.1151
15933W        W31402   0.754   2.783  15.382  0.3601  0.1012 -0.0038
15934W        W31403   7.170  17.025   3.967  0.1550 -0.0122  0.1260
15935W        W31404   1.357   2.687   2.064 -0.1087 -0.2224 -0.5036
15936W        W31405   2.970   5.622   1.237 -0.2108  0.0181  0.0750
15937W        W31406  16.180   2.248   4.763  0.0161  0.0450  0.0342
15938W        W31407   8.130   4.468  11.484 -0.1939  0.3981 -0.3769
15939W        W31408  16.879  14.394   1.832  0.1340  0.1495  0.2093
15940W        W31409   1.909   5.704  15.310 -0.2473 -0.0164 -0.1530
15941W        W31410   3.079  14.220  14.322 -0.3063 -0.1049  0.4838
15942W        W31411   3.697  11.166  13.369  0.0613 -0.0084 -0.1306
15943W        W31412  17.077   0.171  14.478  0.1219 -0.2356 -0.2634
15944W        W31413   5.385   8.857  15.352  0.0333  0.1709 -0.0080
15945W        W31414   1.500   2.636   0.698 -0.2421 -0.1398 -0.0506
15946W        W31415   4.658   4.769  11.268 -0.1197 -0.0342  0.1086
15947W        W31416  10.627  13.231   0.069 -0.1435  0.6036 -0.0941
15948W        W31417  15.108  15.208   9.965 -0.0631 -0.1942 -0.1154
15949W        W31418   0.028  10.055  10.932 -0.2696  0.1530  0.2713
15950W        W31419  13.323  12.045  12.704 -0.2124 -0.1528 -0.1922
15951W        W31420   0.385  12.391   4.484  0.0439  0.2891  0.0292
15952W        W31421  11.203  17.074  15.213  0.0194  0.2747  0.1843
15953W        W31422   3.814   2.682   1.258 -0.0158 -0.4140 -0.4513
15954W        W31423  14.608  14.287  10.697  0.1374  0.0745 -0.1831
15955W        W31424   8.441   9.470   3.662  0.0985 -0.2328 -0.3056
15956W        W31425  11.389  10.185   0.733 -0.1273 -0.2501 -0.2008
15957W        W31426  15.184   3.255  11.491  0.0662  0.1587  0.0503
15958W        W31427  11.818   5.560  10.032 -0.0093  0.3234 -0.1050
15959W        W31428  15.498  12.836  13.376  0.4517  0.2091 -0.1611
15960W        W31429   7.763   6.811  10.883  0.0824 -0.0927 -0.1595
15961W        W31430  11.794   3.315  14.139  0.1957  0.1698 -0.0278
15962W        W31431   4.217  10.138   0.533  0.1527 -0.1199 -0.0991
15963W        W31432   6.826  13.996  15.353 -0.0158  0.3315  0.0885
15964W        W31433   5.757   8.180  11.764  0.2934  0.2475  0.1503
15965W        W31434   9.583   5.145  14.847 -0.0997 -0.0544 -0.1301
15966W        W31435   8.268  12.842   0.889  0.0253 -0.0331 -0.0296
15967W        W31436   4.889  14.172   2.840 -0.0432  0.0393  0.0684
15968W        W31437  10.462   9.385  12.879 -0.0977 -0.0337  0.0874
15969W        W31438  17.193  17.210  15.452 -0.0162 -0.0451 -0.1047
15970W        W31439   5.887  15.889  12.247 -0.0666  0.0807 -0.3598
15971W        W31440   4.046   2.095   3.078  0.1037  0.2132 -0.0204
15972W        W31441   0.845  13.102   4.258  0.3536 -0.0476  0.1665
15973W        W31442   4.474  10.631   4.745 -0.0495  0.0524  0.3146
15974W        W31443   6.762  11.308  11.196  0.1775 -0.1693  0.0682
15975W        W31444  13.809   8.903  15.075  0.1724 -0.0746 -0.1650
15976W        W31445  15.178   6.326   2.621 -0.0988  0.2751  0.1780
15977W        W31446   6.240   8.504   0.443  0.0922  0.2515  0.2762
15978W        W31447  17.413   1.517   5.609 -0.0165  0.0213  0.1011
15979W        W31448  18.298   7.772  12.238  0.0122 -0.2188 -0.3659
15980W        W31449  13.406   5.512  12.369 -0.1067  0.0575 -0.3487
15981W        W31450  16.783   8.507   1.583 -0.0753  0.0717 -0.0271
15982W        W31451  13.009   7.759   4.534  0.1278 -0.2452 -0.2365
15983W        W31452   5.209   3.954   1.235 -0.2204 -0.0127  0.1049
15984W        W31453   5.368  17.882  13.926 -0.0129  0.0253 -0.3389
15985W        W31454   8.847   0.567   2.651 -0.0469  0.2123 -0.0469
15986W        W31455  11.324   5.607  13.674  0.0413  0.0360  0.0381
15987W        W31456   6.697  18.450  14.266 -0.3129  0.0539  0.1588
15988W        W31457   8.230   0.711   3.248 -0.0677 -0.0993  0.0393
15989W        W31458  10.542   4.264   4.834  0.1599  0.1832  0.1368
15990W        W31459   0.312   0.359  14.224  0.1247  0.2666 -0.1488
15991W        W31460   4.414  17.453   1.696  0.0116  0.1159 -0.2285
15992W        W31461  11.919   8.680   2.789  0.0546  0.2632 -0.0129
15993W        W31462  14.041  18.405  15.485  0.0139  0.0576 -0.0180
15994W        W31463   6.783  14.310   1.290  0.0370 -0.1822 -0.0185
15995W        W31464  18.089   6.445   0.662 -0.3021  0.0274 -0.0295
15996W        W31465  14.480   1.232   0.309  0.3225 -0.1928  0.0353
15997W        W31466  10.821  14.079  14.996  0.0149 -0.1163  0.1311
15998W        W31467   3.086  13.680   3.518  0.1030 -0.2660 -0.1732
15999W        W31468   7.582  13.889  15.340 -0.1851 -0.0824 -0.2000
16000W        W31469   0.263  13.982  14.603  0.0931  0.0826  0.1865
16001W        W31470   9.543   5.818   0.056 -0.0686  0.1302 -0.3981
16002W        W31471   4.383  17.937  14.705 -0.1470 -0.0264 -0.0669
16003W        W31472   9.321  10.145  14.899 -0.3019 -0.2312  0.0001
16004W        W31473  10.117   1.667  15.409  0.1021  0.2039 -0.0771
16005W        W31474  14.898   4.763   2.075 -0.2478  0.2288 -0.0885
16006W        W31475   4.603   8.253  15.448  0.0166 -0.0227 -0.1394
16007W        W31476   5.503   8.118   4.022 -0.1651 -0.4417 -0.0254
16008W        W31477  17.806  10.633   3.781 -0.0198  0.1230  0.0912
16009W        W31478   0.279   3.056   0.460 -0.1041 -0.1128  0.1339
16010W        W31479  14.964  13.855   3.168 -0.2683  0.4160  0.2576
16011W        W31480  18.383  10.436  15.398 -0.3763 -0.2575  0.1240
16012W        W31481  16.424   6.274  13.112 -0.3683 -0.1019  0.2349
16013W        W31482  12.581  17.294   0.535  0.1566  0.3067 -0.4172
16014W        W31483   1.081   0.858  14.539 -0.5379  0.1675  0.3370
16015W        W31484   0.543   7.323   4.389  0.0118  0.1727 -0.2443
16016W        W31485  17.116   0.991   3.392  0.1137 -0.1202  0.2244
16017W        W31486   5.503  14.199   4.791 -0.0202  0.4859  0.2777
16018W        W31487  12.324   5.142   3.799  0.1208 -0.2051  0.0168
16019W        W31488   1.008  10.724   1.182 -0.2674  0.2637 -0.1845
16020W        W31489  17.360  12.617  13.489  0.0116 -0.1439  0.0021
16021W        W31490   4.405  14.976   3.534  0.0784 -0.0425 -0.0939
16022W        W31491  18.182  16.444  13.905 -0.0026  0.2147 -0.0957
16023W        W31492   0.920  17.744   2.367 -0.0364 -0.0702 -0.1136
16024W        W31493   7.855  13.202  11.720  0.1507 -0.1527 -0.0274
16025W        W31494   7.012   9.439   4.543 -0.0963  0.1862  0.0145
16026W        W31495   3.120  12.018   0.096  0.2447 -0.1002  0.1055
16027W        W31496   1.617  18.408  11.768  0.3477 -0.0429 -0.0425
16028W        W31497   5.806  16.714  14.303 -0.0577  0.2072 -0.0514
16029W        W31498  16.686  13.698  12.985  0.2379  0.0290 -0.4677
16030W        W31499  11.405  11.991  15.313  0.1354 -0.1483 -0.0191
16031W        W31500   1.591   8.749  12.933  0.2028 -0.0608  0.0819
16032W        W31501   3.113  16.025  15.538 -0.3193 -0.1297 -0.1027
16033W        W31502  18.134   9.415  10.786  0.1799  0.2998  0.0274
16034W        W31503   6.944   5.162   5.259  0.0847  0.1332  0.2070
16035W        W31504  12.180   5.008  12.222  0.0315 -0.0312  0.1064
16036W        W31505   6.032  13.134   1.169  0.1725  0.2938  0.2659
16037W        W31506   5.101  13.015  10.039 -0.2643  0.1228  0.0037
16038W        W31507  17.427   8.119   5.212  0.0840 -0.0877  0.1562
16039W        W31508   0.489   0.405   2.862  0.1792 -0.3840 -0.1391
16040W        W31509   2.581   7.983  10.967  0.2037 -0.3139 -0.0380
16041W        W31510  12.385   5.961   4.527 -0.0725 -0.0048  0.1547
16042W        W31511  18.630   0.037   1.663  0.2456 -0.2412 -0.2263
16043W        W31512  12.782   9.626  15.275 -0.0450 -0.0494  0.1153
16044W        W31513   6.948   9.795   1.999  0.4576  0.0799 -0.0176
16045W        W31514  10.887   1.630   3.412 -0.2229 -0.2089 -0.1110
16046W        W31515  13.816   8.368  14.976  0.0837  0.0089 -0.4135
16047W        W31516   7.904  15.388   0.283  0.3223 -0.1819 -0.1301
16048W        W31517  17.266   5.201   1.971  0.0141 -0.0120 -0.2915
16049W        W31518   8.885   7.121   0.393  0.0018  0.1067  0.0710
16050W        W31519  15.907   9.465  15.174 -0.0602 -0.2573  0.1049
16051W        W31520  12.147   2.166   4.265 -0.2546 -0.0192  0.1179
16052W        W31521  10.699  17.123  10.655 -0.1607  0.0064 -0.0445
16053W        W31522  11.353  18.586   4.116 -0.0188  0.0453  0.1870
16054W        W31523   0.010   1.807  12.271 -0.0915 -0.2820 -0.0047
16055W        W31524   7.833  18.003   9.793  0.0985 -0.1635 -0.1886
16056W        W31525  14.594  10.943  14.251  0.2082  0.1665  0.1514
16057W        W31526  17.915  14.399   4.276  0.3010  0.2045  0.1357
16058W        W31527  18.123   1.739   1.646 -0.2523  0.0696  0.0222
16059W        W31528   6.667   4.481  15.638 -0.0910  0.3020 -0.2786
16060W        W31529   4.685  11.120   1.170  0.0382  0.1866  0.1788
16061W        W31530  15.726  11.481  10.935  0.1088 -0.0282 -0.1122
16062W        W31531  12.862   3.681  14.765 -0.4502  0.1868 -0.1923
16063W        W31532  17.135  17.891   0.399  0.0814  0.1813 -0.1722
16064W        W31533   7.034   4.754   5.659  0.0077  0.0941 -0.0152
16065W        W31534   8.651  14.215   0.718  0.0051  0.1121  0.2421
16066W        W31535  16.246   5.835   3.221  0.1115 -0.0082 -0.3022
16067W        W31536   3.180  13.110  13.023  0.0695  0.1706  0.0599
16068W        W31537   7.216   2.813   3.255 -0.1540 -0.1724  0.1555
16069W        W31538   3.683  14.734   4.970 -0.0652 -0.0568 -0.2409
16070W        W31539  10.377   3.879  15.374  0.0773 -0.2855  0.4142
16071W        W31540  11.484  16.641  10.940  0.0616 -0.0968  0.4266
16072W        W31541   4.655   7.290  15.719 -0.0017  0.0366  0.2743
16073W        W31542  17.989  11.475   4.903 -0.1472  0.1090  0.1215
16074W        W31543   4.772  11.604  11.415  0.0876  0.3321  0.0854
16075W        W31544  12.644  10.525  15.623  0.2169  0.1249 -0.0064
16076W        W31545   8.649   8.334  15.323 -0.3844 -0.3028  0.4305
16077W        W31546   3.528   2.478  14.149 -0.1228 -0.1963 -0.0464
16078W        W31547  10.864   1.176  12.703  0.0473  0.0121  0.2936
16079W        W31548  17.845   6.815   3.389  0.2646 -0.0052  0.1944
16080W        W31549  10.842  12.096   0.899  0.1203 -0.2655  0.1783
16081W        W31550  18.120   5.162  12.033  0.2274 -0.1092 -0.1692
16082W        W31551   5.382   9.830   4.629 -0.0621 -0.1146 -0.2794
16083W        W31552  17.809   4.757  13.812 -0.0202 -0.2019  0.1799
16084W        W31553  11.874   1.508   5.230  0.0279 -0.0736  0.0644
16085W        W31554   4.411   2.733  13.913 -0.2233 -0.2627 -0.0935
16086W        W31555   3.166   6.667  12.903 -0.0774 -0.1385 -0.1089
16087W        W31556  14.311  15.732   0.542  0.1892  0.0122 -0.0548
16088W        W31557   1.257   6.183  11.403 -0.1495  0.0352 -0.3850
16089W        W31558  16.259   9.682  14.842 -0.1012  0.0204  0.0246
16090W        W31559  11.904   2.438  15.720  0.1716  0.1064 -0.0208
16091W        W31560  17.349  16.117   3.761  0.2139  0.0781  0.1295
16092W        W31561  14.926   7.558   0.486  0.0665  0.3999 -0.2741
16093W        W31562   6.989   6.672   0.613 -0.0710 -0.1206  0.0849
16094W        W31563   3.796   3.084   3.415  0.0960 -0.1534  0.0550
16095W        W31564  12.942  12.449   2.548 -0.1847 -0.4182  0.3978
16096W        W31565   2.481   8.862  13.395  0.0289 -0.2837 -0.3493
16097W        W31566   6.636   1.186  11.834 -0.3138  0.1146  0.1864
16098W        W31567   5.996  13.313   6.049  0.4214 -0.2358  0.2491
16099W        W31568   7.655   8.406   2.967  0.1199  0.3138  0.0799
16100W        W31569  12.006   7.491  11.128 -0.2949  0.1988  0.1984
16101W        W31570   3.975   6.360  10.749  0.3566  0.0523  0.1464
16102W        W31571   5.708  16.841   1.465  0.2489  0.2309 -0.5301
16103W        W31572   1.360  10.184   0.893 -0.0418  0.0923  0.1109
16104W        W31573  10.128   6.300   2.208 -0.0850 -0.0943  0.1193
16105W        W31574   7.941  12.516  13.932 -0.3182  0.1562  0.0349
16106W        W31575  11.883   5.519   0.433  0.5028  0.1570 -0.1418
16107W        W31576   7.927  18.065   2.188 -0.1724 -0.1084 -0.1866
16108W        W31577   7.309   6.997   2.314  0.0885 -0.0271 -0.2646
16109W        W31578  13.383  12.035  14.901  0.3332 -0.0484 -0.5197
16110W        W31579   9.904  14.431  10.114 -0.0236  0.1254  0.3147
16111W        W31580   6.108  17.104   3.026  0.0322 -0.3407  0.2267
16112W        W31581   6.256   0.079   3.957  0.0519  0.0778  0.0093
16113W        W31582  10.484   5.583   4.923  0.4111 -0.2090 -0.0713
16114W        W31583   5.380   1.212   4.649 -0.1533 -0.3312  0.3352
16115W        W31584  17.354   1.509  11.558 -0.0139  0.2424  0.5011
16116W        W31585  12.915   2.873   2.982 -0.0874 -0.1350  0.0255
16117W        W31586   8.990   7.049   3.443  0.0449  0.0016  0.2754
16118W        W31587   2.288   4.490   3.825 -0.0646 -0.0626 -0.1077
16119W        W31588  18.527  12.955   0.274  0.1523  0.0932 -0.2905
16120W        W31589  16.499   5.329   1.838  0.0711 -0.1171 -0.2800
16121W        W31590   4.541  13.654   5.017  0.0725 -0.1632 -0.0521
16122W        W31591  10.168  15.253   0.984  0.1074  0.1917  0.1186
16123W        W31592   8.264  10.132  12.509 -0.0020 -0.0844  0.1093
16124W        W31593   9.740   7.467  15.421 -0.2838 -0.0291  0.2480
16125W        W31594  16.734   6.997  10.759 -0.1166  0.3377  0.3107
16126W        W31595  17.166   5.275  15.570 -0.0935  0.0432  0.1430
16127W        W31596   4.575  11.111  11.313  0.3089  0.0386  0.0924
16128W        W31597  15.839   8.681   1.952 -0.3391  0.0084 -0.1209
16129W        W31598  17.459   1.579  13.957  0.0003 -0.0534  0.1309
16130W        W31599  15.278   3.399  14.698 -0.0634 -0.3838  0.0021
16131W        W31600  13.093   5.123  12.671  0.0682 -0.1077 -0.0348
16132W        W31601  15.672  15.435   3.513  0.1318  0.1855  0.0694
16133W        W31602   2.708  10.927  12.875  0.3637 -0.3733 -0.1036
16134W        W31603  15.070   3.522  15.173  0.0226  0.1333  0.0818
16135W        W31604   2.536  14.659   1.240 -0.1646 -0.3452  0.0534
16136W        W31605  10.826   9.728  14.208  0.0788 -0.0509  0.0736
16137W        W31606  14.521  13.347   4.926  0.2375 -0.1708 -0.0676
16138W        W31607  17.218  12.972  12.381 -0.0449 -0.0641  0.2223
16139W        W31608  14.550   9.109   3.546  0.2405  0.0165 -0.2325
16140W        W31609  13.318  15.755   1.211 -0.2459  0.1363 -0.3807
16141W        W31610   8.638  17.502   1.861 -0.0415  0.1196 -0.0602
16142W        W31611  14.370   9.516   2.809  0.1923  0.2344 -0.1901
16143W        W31612  13.019  18.392   3.796  0.0759  0.3675  0.1175
16144W        W31613  14.495   5.336   3.441 -0.2503  0.1913 -0.1463
16145W        W31614   8.632   8.323   5.744  0.0809  0.1151  0.3715
16146W        W31615   7.114   6.432   2.318  0.5843 -0.0245  0.0657
16147W        W31616  17.038   6.968  14.233 -0.0526 -0.2161  0.0079
16148W        W31617   7.399  15.633   2.335 -0.1306  0.1351 -0.1602
16149W        W31618  13.025  13.932   5.842 -0.0320  0.0384  0.2912
16150W        W31619   0.959   8.207   4.158  0.1786  0.0086 -0.1648
16151W        W31620   1.168   6.269  15.082 -0.0240  0.0630 -0.1365
16152W        W31621   8.426   1.896  14.504  0.1211 -0.1251 -0.0918
16153W        W31622   4.300   8.117   6.085  0.3809  0.3839 -0.1806
16154W        W31623  11.197   6.036  13.304  0.2992 -0.0000  0.0453
16155W        W31624   5.239   8.959   1.158  0.3225 -0.2392 -0.2864
16156W        W31625  12.222   0.370   4.695  0.4010 -0.0847 -0.1485
16157W        W31626   7.499  17.330   1.755 -0.2238  0.0706 -0.0559
16158W        W31627   2.359   3.769  13.622  0.0494  0.0979 -0.0370
16159W        W31628  10.760  11.975   4.185  0.2608 -0.1755  0.0076
16160W        W31629  15.612  17.368  13.972  0.2332  0.0588  0.0902
16161W        W31630  12.796  12.165  13.635  0.0892 -0.0441  0.0764
16162W        W31631  16.554   4.869  14.015 -0.0681  0.1846  0.0309
16163W        W31632   0.196  15.012   2.271  0.2906  0.2806 -0.4216
16164W        W31633   5.791  14.588  15.017 -0.0828  0.2521  0.0796
16165W        W31634  16.389   9.272  11.335  0.0736  0.4481  0.1851
16166W        W31635  17.508  16.499  14.075 -0.1097  0.1311  0.1229
16167W        W31636  12.141  11.016   1.875 -0.0330 -0.1289 -0.0285
16168W        W31637   8.088  11.488   2.807 -0.1935 -0.1247 -0.2374
16169W        W31638   4.375   4.506   3.754 -0.0394  0.1878 -0.0385
16170W        W31639  17.090  10.536  14.727 -0.1336  0.0229 -0.1119
16171W        W31640   9.319   8.090   4.591  0.2397 -0.2995  0.3168
16172W        W31641  18.005   6.189   3.914  0.3401 -0.0496  0.2436
16173W        W31642   4.401   5.323   1.913 -0.0266 -0.1386  0.1566
16174W        W31643   5.934  14.120  15.422  0.1847 -0.0344 -0.0165
16175W        W31644   7.126   3.162   2.692 -0.1592  0.1818 -0.0772
16176W        W31645   9.850   6.297  14.041 -0.2248  0.3598 -0.1541
16177W        W31646   0.936  14.383   5.813 -0.1903  0.1853  0.1511
16178W        W31647  11.588  11.112   4.849  0.0939 -0.0242 -0.3476
16179W        W31648   8.105  13.932  12.571  0.1296  0.4535 -0.0093
16180W        W31649  18.088   7.025   4.885 -0.1056 -0.0871 -0.1246
16181W        W31650   1.653   4.564  11.623 -0.3744 -0.1660  0.0221
16182W        W31651   1.900  14.213  12.991 -0.0358  0.0188 -0.1203
16183W        W31652   6.428   6.750   0.847 -0.2285  0.1080  0.0251
16184W        W31653  10.593   6.416  15.423  0.0041 -0.2996 -0.0117
16185W        W31654  10.216  12.846   3.874  0.1717  0.0865  0.1071
16186W        W31655  18.698  16.225  11.460 -0.2288  0.1060  0.3557
16187W        W31656   4.128   0.494  11.941  0.1958 -0.0988  0.2792
16188W        W31657  10.577  12.557  13.871  0.0752  0.0058 -0.0147
16189W        W31658  13.440  11.996   2.203  0.1154  0.1591  0.1034
16190W        W31659  15.824  11.469  11.460 -0.2153 -0.2931  0.2228
16191W        W31660   4.062   5.719  12.441  0.2775 -0.4423 -0.1487
16192W        W31661  10.750   5.101  12.589 -0.4513 -0.0534  0.2075
16193W        W31662   1.201  11.335  14.323 -0.2785  0.4388  0.3451
16194W        W31663  13.352   3.879  14.631 -0.1876  0.1752 -0.1738
16195W        W31664  18.354  10.922  11.090 -0.1248  0.1108  0.1122
16196W        W31665  14.774  17.169   4.252  0.3608  0.1811 -0.2849
16197W        W31666  14.418  15.456  15.038  0.0649 -0.2155 -0.0528
16198W        W31667   9.290   9.197  13.832  0.0072 -0.0283 -0.2714
16199W        W31668  18.360  14.711  14.325 -0.1171 -0.3470  0.0745
16200W        W31669   6.739   4.743   1.030 -0.0778 -0.0530 -0.2861
16201W        W31670   0.151  15.441   1.481 -0.0474  0.1101 -0.2988
16202W        W31671   0.419  10.239  14.912  0.1058 -0.3186 -0.0808
16203W        W31672   1.305  16.926  11.931 -0.3033 -0.0432 -0.0933
16204W        W31673   8.746   4.753   1.503  0.0310  0.1051 -0.0489
16205W        W31674  13.545   4.845  12.263  0.0024 -0.1919 -0.3333
16206W        W31675  13.787  11.262  13.912 -0.3666  0.2966  0.1978
16207W        W31676   4.641  14.915   2.455  0.1170  0.1026 -0.2427
16208W        W31677  15.382  16.205  14.312 -0.1187  0.2139 -0.0859
16209W        W31678  14.050  13.723  13.081 -0.0610 -0.2232 -0.4662
16210W        W31679  11.232   1.516  15.073  0.2125 -0.0734 -0.0303
16211W        W31680  12.024   5.088   0.029 -0.1496  0.2142 -0.0775
16212W        W31681  15.034  13.327   5.812  0.0264  0.3657  0.5276
16213W        W31682   3.577  12.203   5.100  0.2173 -0.0790 -0.0802
16214W        W31683  15.312   0.368   0.362 -0.1591 -0.0194 -0.2522
16215W        W31684   0.189  16.449   0.648  0.0386  0.0042 -0.2275
16216W        W31685  13.325   1.976   3.969 -0.1339  0.0214 -0.2453
16217W        W31686  12.839   4.603   1.023 -0.1764 -0.0571  0.1346
16218W        W31687   0.865  10.636  11.211 -0.0147  0.0863  0.0006
16219W        W31688   7.030  11.579  13.173  0.2322 -0.3505 -0.3245
16220W        W31689  10.626  11.297   0.772  0.1123 -0.1962 -0.0422
16221W        W31690   6.589   1.267   2.384  0.4661  0.1087 -0.0651
16222W        W31691  14.091   0.920  13.908 -0.0843  0.1791 -0.2143
16223W        W31692  15.812  10.274   0.660 -0.0628 -0.3937 -0.0154
16224W        W31693  11.124  10.093  11.794  0.0707 -0.0869  0.2136
16225W        W31694  13.386  13.801  11.894  0.2107  0.2800 -0.3363
16226W        W31695   1.223   8.927   1.122  0.0332  0.1279 -0.0864
16227W        W31696  18.312   2.818  13.254  0.0444 -0.0885 -0.3424
16228W        W31697   6.873   1.725  13.355  0.0507 -0.1799 -0.2947
16229W        W31698  11.592  11.051   0.327  0.0414  0.2762 -0.0230
16230W        W31699   7.456  14.808  13.410 -0.0220 -0.0782  0.2011
16231W        W31700  12.632   9.935   1.188  0.0675 -0.3115  0.0233
16232W        W31701  16.552  10.091  10.702  0.2061 -0.0369  0.0450
16233W        W31702  17.196  10.654   3.995 -0.0913  0.2476  0.1625
16234W        W31703  15.118  16.302   5.899 -0.1243 -0.1773 -0.0318
16235W        W31704  14.831  18.243  11.286 -0.0027 -0.0702  0.0785
16236W        W31705   1.381   0.818  14.085  0.2518 -0.2424 -0.2079
16237W        W31706   7.233  11.642   1.946  0.2341 -0.0059  0.3744
16238W        W31707  17.127  13.850   5.622 -0.0894  0.0215 -0.0135
16239W        W31708  11.322  16.281   4.676 -0.0976  0.0621  0.1636
16240W        W31709  14.717  16.932  15.459 -0.1284 -0.1076  0.1144
16241W        W31710   3.205   4.456   1.622  0.0469  0.0410 -0.0869
16242W        W31711  10.985   4.165  14.413  0.1157  0.1028  0.1576
16243W        W31712  14.486  17.022   4.699 -0.2100 -0.2135  0.3133
16244W        W31713   2.864  16.201  13.748  0.2092 -0.1325 -0.1055
16245W        W31714   4.887   8.134   0.523 -0.3456  0.1618 -0.3593
16246W        W31715  11.914  12.469   3.866  0.2369 -0.0718  0.1246
16247W        W31716  18.025  16.134   4.895  0.3511 -0.0557  0.1354
16248W        W31717   5.745  10.642   4.279  0.3159  0.0364  0.2186
16249W        W31718  15.349  12.922   0.695 -0.0814 -0.1137  0.2289
16250W        W31719   0.384   8.838  10.854  0.3993 -0.5258  0.2161
16251W        W31720   6.363   5.276   3.540 -0.0421 -0.1017  0.1505
16252W        W31721  13.676   6.590  13.848 -0.0232 -0.0039  0.2609
16253W        W31722   1.122  10.720  15.231 -0.2178  0.0116 -0.3158
16254W        W31723   3.719  10.371  11.176 -0.0017 -0.3835  0.3003
16255W        W31724   2.065   6.008  14.164 -0.3175  0.0591  0.2594
16256W        W31725  17.426   1.974   0.861 -0.1119  0.2153  0.1597
16257W        W31726   7.314   9.924  13.463 -0.1585  0.2141  0.1455
16258W        W31727   2.191   3.588  14.610  0.0440 -0.0298  0.2286
16259W        W31728   4.181  12.891   5.257 -0.0045  0.1792 -0.2137
16260W        W31729  12.792  16.095  15.404 -0.2059  0.4141 -0.2281
16261W        W31730  16.535   1.859   3.123  0.0778 -0.0177 -0.1035
16262W        W31731   1.470  16.260   4.089 -0.3300  0.1671  0.2676
16263W        W31732  15.102   8.757  15.302  0.0177  0.2711 -0.1915
16264W        W31733   0.058  11.899  11.367 -0.2333  0.1777  0.1550
16265W        W31734  14.981  11.502  11.688  0.1269 -0.0409  0.1433
16266W        W31735   0.680  10.490   4.882 -0.0747  0.0228 -0.0578
16267W        W31736   5.045   2.411  13.167 -0.2523  0.1668  0.2370
16268W        W31737   5.420  12.391   6.368  0.0782 -0.0175  0.0131
16269W        W31738  11.513  14.814   2.291  0.0120  0.2241 -0.2334
16270W        W31739  10.257  15.469   4.595 -0.3163  0.2716  0.1728
16271W        W31740  11.474   6.013   2.276  0.1353 -0.1133  0.0083
16272W        W31741   1.012   9.754  14.373 -0.0133 -0.0662 -0.1163
16273W        W31742  11.390   8.113   5.082  0.2053  0.1126  0.1256
16274W        W31743   9.873  15.959  14.256 -0.0246 -0.1732  0.0307
16275W        W31744   5.127  11.633   4.101 -0.1838 -0.2126 -0.0736
16276W        W31745  15.623  18.388  10.869  0.1895  0.1355 -0.2118
16277W        W31746   7.510  15.882  13.489  0.1625  0.2212 -0.3283
16278W        W31747   3.668   4.884  12.084  0.0059  0.1734  0.0701
16279W        W31748  15.779  15.900  13.462 -0.2612  0.1879  0.0098
16280W        W31749  11.425  12.099  13.430  0.0381 -0.1114  0.2345
16281W        W31750  11.382  12.438   3.115  0.1986 -0.2317  0.0909
16282W        W31751   2.358  18.423  15.669  0.0642  0.0329 -0.1054
16283W        W31752  15.939  15.097   4.417 -0.0635 -0.0634  0.0720
16284W        W31753   1.553   7.615  14.328  0.2261  0.2587  0.0071
16285W        W31754   5.771  10.806  13.606  0.1035  0.0840 -0.1908
16286W        W31755  16.392  18.004   1.798  0.2180  0.2440 -0.1566
16287W        W31756   8.641   6.417  12.720  0.0686  0.1400 -0.2416
16288W        W31757  14.792   1.556   2.066  0.1200 -0.2968  0.1666
16289W        W31758   8.649  11.430   5.843  0.1750 -0.0361 -0.3387
16290W        W31759   7.163  14.875  12.991  0.2108 -0.1864 -0.4263
16291W        W31760   3.895  16.642  13.667  0.1639 -0.0750 -0.0217
16292W        W31761  13.320  12.916   2.702 -0.0673 -0.0252 -0.3823
16293W        W31762   1.011   3.183   3.458 -0.0508  0.3265  0.1250
16294W        W31763  16.100  13.412   0.532 -0.2194 -0.1365  0.1177
16295W        W31764  13.627   8.414  11.375 -0.0914  0.3448 -0.1786
16296W        W31765  10.304  14.334   1.386 -0.4097 -0.2111  0.0796
16297W        W31766   5.110   9.439   6.318  0.0276 -0.0654  0.3045
16298W        W31767  11.586   6.082  12.001  0.2491  0.0118  0.1130
16299W        W31768  11.065  13.095  11.281 -0.0989  0.0162  0.1257
16300W        W31769   9.198  17.528  15.456  0.4110  0.0499 -0.0884
16301W        W31770  12.195   9.286  12.288  0.0641  0.3013 -0.2078
16302W        W31771  14.552   2.324  14.965  0.0973 -0.1458 -0.1784
16303W        W31772   6.633  11.702  14.687  0.0367  0.4060  0.1518
16304W        W31773  10.853  11.300  14.355 -0.3626 -0.0320  0.1103
16305W        W31774  13.304  11.980  11.789  0.0632 -0.1305 -0.1816
16306W        W31775   7.354   8.443   0.081 -0.1097  0.0212  0.0913
16307W        W31776   5.450  13.313  11.522  0.1214  0.0808  0.3624
16308W        W31777   4.019   8.158  12.172 -0.2733 -0.0767 -0.0141
16309W        W31778  15.878   5.888  15.179  0.2078 -0.1365 -0.2264
16310W        W31779  18.113  11.437   3.551  0.2237 -0.0042  0.0474
16311W        W31780   4.912  14.335  11.179  0.0758  0.1200  0.1873
16312W        W31781   0.079   6.577  12.415  0.0346  0.0380 -0.0330
16313W        W31782   8.809   4.582  10.878 -0.0050 -0.0453  0.1705
16314W        W31783  11.222  14.647  10.824 -0.2875  0.2739 -0.0659
16315W        W31784  14.914  17.823  15.500 -0.1045 -0.1173 -0.2351
16316W        W31785  15.999  17.380  13.632  0.0929 -0.3963  0.1456
16317W        W31786  18.646   7.364  12.043  0.1071 -0.3403 -0.2110
16318W        W31787  17.021   1.729   2.850 -0.1085 -0.3050 -0.0821
16319W        W31788  10.770   7.920  12.853 -0.0101  0.0872  0.0247
16320W        W31789   8.630   5.248   1.649 -0.2087 -0.0638  0.3128
16321W        W31790   0.094  12.272  12.460  0.2131 -0.1917 -0.1370
16322W        W31791  10.794  15.422  14.318 -0.1421 -0.0475  0.1349
16323W        W31792   6.722  12.949   5.877  0.2085 -0.1291  0.1499
16324W        W31793  18.433   9.961  14.089 -0.1057 -0.0051 -0.0167
16325W        W31794   3.998  11.587   3.792  0.0565  0.1154  0.1159
16326W        W31795   4.233  11.913   3.287  0.1101  0.1279 -0.1103
16327W        W31796   5.954   4.982  12.683  0.0497 -0.1011  0.1575
16328W        W31797  15.692   1.394  14.522 -0.3036 -0.1331 -0.1956
16329W        W31798   8.643  12.543  12.171  0.1356 -0.0118  0.0181
16330W        W31799   8.819   5.226   3.863  0.0744 -0.1420 -0.0167
16331W        W31800   3.180   7.154  15.582 -0.2363 -0.4223 -0.2782
16332W        W31801   4.189   2.393   2.251 -0.0537 -0.0150  0.1516
16333W        W31802  11.439  15.808   4.546 -0.4064 -0.0298  0.2549
16334W        W31803   6.417  15.386   3.309 -0.1045 -0.0381 -0.0474
16335W        W31804  18.103  13.199  15.353  0.0023 -0.0271 -0.1733
16336W        W31805  15.240  17.699   0.109  0.2019  0.1118  0.0319
16337W        W31806   3.904   8.238  15.008  0.0001  0.1417  0.4711
16338W        W31807   5.606  18.101   5.272 -0.2730  0.1440  0.0188
16339W        W31808  14.826  14.692  13.431  0.1812 -0.3298  0.1343
16340W        W31809   6.364  16.372   2.979 -0.0400  0.3418  0.1939
16341W        W31810   3.853   0.607  14.241  0.3184 -0.1790  0.0811
16342W        W31811   9.450   8.208   5.077 -0.0683  0.0118 -0.2682
16343W        W31812   3.890  11.932   1.446 -0.0682  0.0703 -0.0809
16344W        W31813   8.099   5.018   5.066  0.2725  0.1711  0.0590
16345W        W31814  11.668  18.239   3.538  0.0355 -0.0386  0.1174
16346W        W31815  12.230  15.736  15.435 -0.0005 -0.0655  0.0535
16347W        W31816   4.645  16.001  11.101  0.0222  0.1942 -0.2800
16348W        W31817   7.201  17.684   1.422 -0.2398  0.1553  0.1652
16349W        W31818  14.175  11.072   5.178 -0.2052 -0.1765  0.2009
16350W        W31819  13.138   4.769  13.059  0.0357  0.3392  0.1340
16351W        W31820  18.097   0.669   4.537  0.1346  0.2442 -0.2211
16352W        W31821   5.902  11.558   2.023 -0.1936  0.1104  0.1124
16353W        W31822  10.096   5.792  10.768  0.0638  0.0651 -0.3571
16354W        W31823   5.360  11.878   0.710  0.0334  0.0830  0.4519
16355W        W31824   2.042  14.889   3.382 -0.1254  0.4836  0.2429
16356W        W31825  14.902   2.221  10.460  0.3220 -0.1943  0.1459
16357W        W31826   3.466  17.884  14.445  0.0058  0.1718  0.3355
16358W        W31827   0.966  16.619  11.548  0.3946 -0.0124  0.1400
16359W        W31828  11.284   2.479   4.479 -0.1599  0.1621  0.2667
16360W        W31829   3.349   1.574  13.370 -0.2988 -0.3078 -0.0865
16361W        W31830  10.542   6.690  14.827 -0.1908  0.0277 -0.4535
16362W        W31831  10.921  15.282  12.198  0.1696  0.0339 -0.2205
16363W        W31832  17.301   5.976  11.392  0.1201  0.2533 -0.0118
16364W        W31833  12.048   6.090  14.960 -0.0602  0.3376 -0.0473
16365W        W31834  11.007   9.772   0.970 -0.2498  0.3047 -0.0799
16366W        W31835   9.987  15.277  12.119 -0.3146  0.2930 -0.0546
16367W        W31836   9.990  12.088  12.592 -0.1485  0.1933 -0.2557
16368W        W31837   9.716   3.794  12.562  0.4066 -0.3094 -0.0005
16369W        W31838   6.504   9.776  14.573  0.1019 -0.0429  0.1359
16370W        W31839  11.874   9.508   5.972 -0.0227  0.3689 -0.0738
16371W        W31840   7.353   0.560  15.391 -0.1849  0.2872 -0.0056
16372W        W31841   6.571   2.136   1.363 -0.2481 -0.0614  0.0567
16373W        W31842   8.098   7.274   1.007 -0.2628 -0.0566  0.0357
16374W        W31843  15.548  11.510  14.750 -0.0680  0.1357  0.2329
16375W        W31844  11.513  18.691   0.995 -0.1126  0.3901 -0.3074
16376W        W31845   1.657   9.194   5.318 -0.0424 -0.0509  0.2305
16377W        W31846   0.368  12.479   3.942  0.3089  0.1955  0.0584
16378W        W31847   7.249   4.729   4.576 -0.0630  0.2471  0.3837
16379W        W31848  11.784   3.444  10.517 -0.1052 -0.0015 -0.0336
16380W        W31849  15.052   6.455  15.144  0.1570  0.3609 -0.4098
16381W        W31850   9.796  16.094  13.300  0.0106  0.1375 -0.4134
16382W        W31851   2.652  10.623   2.394 -0.0614 -0.0225  0.1254
16383W        W31852   0.865   8.855   3.308 -0.1549  0.0722  0.1071
16384W        W31853   6.793   4.550  13.174 -0.1057  0.0225 -0.2396
16385W        W31854   5.819   4.333  11.769  0.1564  0.1840  0.2127
16386W        W31855  13.995  16.928   1.265 -0.1024 -0.2561  0.0759
16387W        W31856  12.795  12.284   4.439 -0.2738  0.0261 -0.3521
16388W        W31857  13.895   3.393   5.813  0.3952  0.0140 -0.1398
16389W        W31858   7.813  11.500  15.511  0.0711  0.0102  0.0540
16390W        W31859  15.282  12.207  14.620  0.1354  0.1723 -0.1683
16391W        W31860  11.417   1.005  12.933 -0.0132  0.1757  0.1767
16392W        W31861   1.953  10.714   3.142  0.2483  0.2923  0.0768
16393W        W31862   4.315  17.081  10.124  0.2152 -0.0817  0.1001
16394W        W31863  13.202  14.641  14.050  0.0394 -0.1939 -0.0129
16395W        W31864  10.428   8.318  14.728  0.1019 -0.0273 -0.1419
16396W        W31865  17.294   5.027   1.376 -0.0654 -0.1605  0.0651
16397W        W31866   7.128  14.927   1.584 -0.2360 -0.2207  0.0132
16398W        W31867  18.674   3.770   2.945  0.0385 -0.0454  0.2965
16399W        W31868   5.515   7.289  10.330  0.5080  0.1056  0.1151
16400W        W31869   6.683  12.247   0.801 -0.0250 -0.0388  0.3088
16401W        W31870  12.401  12.043  11.908 -0.1010  0.0067  0.1539
16402W        W31871  12.457   1.708   5.991  0.1577  0.1289 -0.0013
16403W        W31872  17.370   8.912  15.572 -0.0756  0.0328 -0.2137
16404W        W31873  14.954   3.354   0.668 -0.1941 -0.1095  0.1990
16405W        W31874   5.286  16.963   4.490 -0.2342 -0.3685 -0.1534
16406W        W31875   7.240   4.827   1.185  0.1376  0.0137  0.1049
16407W        W31876   8.516   0.973   0.432  0.0882 -0.1639 -0.3517
16408W        W31877   9.478  12.468   4.591  0.0096  0.0064  0.5435
16409W        W31878  11.520   4.143   0.917 -0.1882 -0.1145  0.3617
16410W        W31879  11.640  17.104   1.803  0.0261  0.1048 -0.3984
16411W        W31880   9.021   8.222  15.617  0.0967 -0.0095 -0.0512
16412W        W31881  13.624  12.135  14.290 -0.0215  0.1703  0.1514
16413W        W31882   8.997   3.904  15.172 -0.0337 -0.0061 -0.0292
16414W        W31883  11.467  17.474  12.688 -0.2247  0.0920 -0.0536
16415W        W31884  15.195   7.768   4.376 -0.0356 -0.3005  0.2331
16416W        W31885   5.492   2.547  11.055 -0.2111  0.0010 -0.1124
16417W        W31886  16.493  16.519  12.945 -0.0457  0.2267 -0.1564
16418W        W31887   2.332  18.043  10.239  0.1168 -0.1498  0.1252
16419W        W31888   4.327   4.996  10.946 -0.1899 -0.0125 -0.3056
16420W        W31889  18.271   0.615  14.805 -0.0576 -0.0196 -0.0475
16421W        W31890   8.780  13.387  12.552  0.1752  0.0768 -0.0749
16422W        W31891   7.310   8.557  10.336  0.0438  0.0493  0.4238
16423W        W31892  18.194  11.683  13.493  0.0987 -0.4743 -0.1916
16424W        W31893   4.055   1.477  13.800  0.0210 -0.0068  0.0419
16425W        W31894   4.772  16.208  13.345  0.1067 -0.1178 -0.0492
16426W        W31895   6.961   9.056   1.905 -0.2440 -0.2281  0.1798
16427W        W31896  12.177   1.155  13.473  0.0287  0.1949 -0.1303
16428W        W31897   3.643  13.155  12.826 -0.0235  0.2099 -0.0982
16429W        W31898   8.660  11.049   1.318 -0.0981  0.0812  0.0846
16430W        W31899  13.089  12.418  10.123 -0.0710 -0.0694  0.2074
16431W        W31900   0.730  14.784   2.173  0.5859  0.2596  0.0254
16432W        W31901   8.369  17.486   4.827 -0.2600  0.2049  0.2048
16433W        W31902  11.522   6.540   0.861  0.1653 -0.2744 -0.1305
16434W        W31903  17.661   0.513   4.614 -0.2223 -0.0915  0.1798
16435W        W31904   1.132  16.084  15.568  0.3274  0.1655 -0.1291
16436W        W31905   3.110   7.733   1.832 -0.0973 -0.0948  0.1842
16437W        W31906  15.515   5.762  12.464  0.0528  0.2492 -0.2701
16438W        W31907   2.154  10.694  11.497 -0.0243 -0.2280  0.0557
16439W        W31908  10.286   0.785  15.096 -0.0213  0.2276  0.0673
16440W        W31909  10.355   1.790  11.039  0.1836  0.0730  0.1261
16441W        W31910  11.820  10.301  12.228 -0.0522 -0.1841  0.2706
16442W        W31911  17.966   0.306  11.248 -0.1710 -0.0336 -0.1870
16443W        W31912   1.125   8.459  14.234  0.0382 -0.3565 -0.4965
16444W        W31913  14.050  17.635  10.763  0.2833 -0.0251  0.0032
16445W        W31914   3.624  16.382   4.242  0.1278 -0.2089 -0.0358
16446W        W31915   8.809  18.342  11.960 -0.0652  0.2481 -0.0630
16447W        W31916   6.913   1.459   0.479 -0.1157 -0.0209  0.0912
16448W        W31917   4.309   5.516  12.855 -0.3743  0.1773 -0.3322
16449W        W31918  14.749  10.407  14.357 -0.1364  0.2853  0.0216
16450W        W31919  17.077  10.881   1.934 -0.1833 -0.3441  0.0445
16451W        W31920   1.896  17.946  14.329  0.0194  0.0082  0.0497
16452W        W31921  12.453   1.516  12.003  0.1531 -0.1557  0.0392
16453W        W31922   4.119  12.028   4.944 -0.3774  0.2287 -0.0773
16454W        W31923   4.570  16.226  13.830 -0.1542  0.0754  0.1770
16455W        W31924  12.948   2.758   0.809 -0.1090 -0.3227  0.0352
16456W        W31925  12.436  11.271   2.375  0.5970 -0.1060  0.1529
16457W        W31926  11.990   8.654   4.477 -0.2537  0.0957 -0.1654
16458W        W31927  15.600  12.203   3.370  0.1793 -0.0135  0.1898
16459W        W31928   2.092   9.696   2.243 -0.1382  0.0701 -0.0708
16460W        W31929   0.578   9.523   2.586 -0.0750 -0.3397 -0.3328
16461W        W31930  15.028  15.299  14.402  0.0516  0.0102 -0.2976
16462W        W31931   7.929  17.778   2.603  0.0434  0.1250  0.1888
16463W        W31932   5.439   0.165  11.985  0.0215  0.1939 -0.2776
16464W        W31933  14.451  11.991   0.898 -0.3733 -0.0258 -0.2056
16465W        W31934   0.592  14.462  11.583 -0.2693 -0.0799  0.1051
16466W        W31935   3.840   9.535   5.539 -0.2042 -0.0225 -0.0123
16467W        W31936  16.493   9.422   4.649 -0.6134  0.2873 -0.1338
16468W        W31937   1.686   2.605  11.802 -0.2023 -0.0262  0.2843
16469W        W31938   4.065   1.571   3.106  0.1993 -0.2113 -0.0940
16470W        W31939  11.193  14.260  12.943  0.0401  0.1056  0.0289
16471W        W31940   8.730   9.841   2.005 -0.0013  0.2920  0.1665
16472W        W31941  15.563  15.573  14.979  0.1682  0.0838  0.1234
16473W        W31942  13.924  15.928   2.866  0.1666 -0.0346 -0.0258
16474W        W31943  11.890   7.665   1.466  0.0013  0.1329  0.1697
16475W        W31944   2.088  14.269   5.079 -0.0275  0.1350 -0.2884
16476W        W31945  16.223  13.787  10.249 -0.1050  0.1363 -0.0222
16477W        W31946   4.823   3.103  14.742 -0.1411 -0.0528  0.2685
16478W        W31947  14.862  17.315  11.137  0.1637  0.0104  0.3005
16479W        W31948  14.894  15.712  11.592  0.3157  0.0426  0.4086
16480W        W31949  10.173   1.290  13.216  0.0288 -0.0915 -0.1227
16481W        W31950   2.734   2.914  14.359  0.0717  0.2628  0.0538
16482W        W31951   6.071  11.152  14.958  0.0957  0.0572  0.0370
16483W        W31952   7.384  14.857   4.816 -0.2604 -0.1701 -0.1105
16484W        W31953  11.400   3.903  15.130  0.1958 -0.0156  0.0081
16485W        W31954  14.375  10.249  13.545 -0.3448  0.1880 -0.1869
16486W        W31955   0.168   8.117   1.238  0.0974 -0.0755  0.1159
16487W        W31956   2.996  17.097  14.735  0.0110  0.1380 -0.4067
16488W        W31957   3.269   4.491  13.622  0.4813  0.1330  0.1899
16489W        W31958   9.457   3.470  13.328 -0.1045  0.1359 -0.0450
16490W        W31959  12.556  17.096  12.610 -0.3105  0.0413  0.0380
16491W        W31960  14.690   2.545   2.489  0.0313  0.0845 -0.1086
16492W        W31961  18.435   0.455  10.761  0.1364  0.2771 -0.0889
16493W        W31962  18.306   5.345  10.986 -0.3884 -0.3580 -0.0063
16494W        W31963  11.692  11.734  11.518 -0.2364  0.1830  0.0332
16495W        W31964  12.282   6.819   3.538 -0.0591 -0.0259  0.0971
16496W        W31965  10.422   7.116   4.008 -0.0103 -0.0835 -0.1307
16497W        W31966   6.764   2.376  14.504 -0.1660  0.1217  0.1360
16498W        W31967  13.067   8.721  11.969  0.1271  0.4014 -0.0446
16499W        W31968   8.017  12.052   2.843 -0.0253  0.0615  0.0908
16500W        W31969  17.985   5.839  10.805  0.0745 -0.2425 -0.1917
16501W        W31970  18.366   6.616  14.004  0.0298 -0.1019  0.1298
16502W        W31971  13.018  13.627  12.576 -0.1102  0.1182 -0.0231
16503W        W31972  14.153   7.238   0.625  0.1379  0.0958 -0.2099
16504W        W31973  16.504   3.755   5.455 -0.0326 -0.0142  0.0360
16505W        W31974   4.306  15.742   1.758 -0.0475  0.1013  0.2580
16506W        W31975  16.652  10.583   1.225 -0.0275 -0.1509 -0.0179
16507W        W31976  11.198   8.954  14.660  0.0607 -0.0366 -0.0366
16508W        W31977   9.350   6.282   0.253 -0.2886 -0.0732 -0.0573
16509W        W31978   6.782  13.367   3.363 -0.3458  0.0999 -0.1645
16510W        W31979  16.109  11.817   5.064 -0.0124 -0.1304  0.2648
16511W        W31980   8.407  16.038   2.628 -0.2196 -0.2209  0.0572
16512W        W31981  10.896  17.177   1.476  0.1544 -0.1647  0.1207
16513W        W31982   6.948   7.558  11.480 -0.0725  0.0467 -0.2558
16514W        W31983   9.596  13.031  11.591  0.2965  0.0660  0.2427
16515W        W31984  11.128   3.263   2.333 -0.4376 -0.3624  0.1176
16516W        W31985   3.627   2.050  15.114 -0.3093  0.0648  0.1387
16517W        W31986   5.341  16.275   4.325  0.1259 -0.0557  0.2560
16518W        W31987   5.365   4.381   4.133  0.2867 -0.1210 -0.1794
16519W        W31988  16.523   0.157   1.912  0.2638  0.2169 -0.0505
16520W        W31989  17.894   9.124  12.952  0.0476  0.0852 -0.3403
16521W        W31990   3.799  10.175  15.726 -0.2255  0.3660 -0.0157
16522W        W31991  15.487   8.642   4.334 -0.1854  0.0447 -0.0567
16523W        W31992  10.962  15.215   2.999 -0.0809 -0.1843  0.0990
16524W        W31993  11.998   4.861   2.303 -0.0225  0.2305  0.0560
16525W        W31994   0.396  10.955  14.232  0.2949 -0.3452 -0.1539
16526W        W31995  11.803   3.864  11.173  0.0427 -0.0848  0.0919
16527W        W31996  14.324   4.353   2.323  0.1218  0.1506 -0.1553
16528W        W31997   5.174   0.198   2.014 -0.5351 -0.5969 -0.2225
16529W        W31998  16.636   0.896   3.567  0.1482  0.0807  0.1210
16530W        W31999   4.371   2.530  12.977 -0.0308  0.1781  0.0816
16531W        W32000   7.556  13.742  14.715  0.0776 -0.1349 -0.0196
16532W        W32001   0.392   7.791  12.787  0.3591  0.0464  0.3402
16533W        W32002  15.955   2.634  13.403  0.3925 -0.1908 -0.1090
16534W        W32003   0.400  17.017  13.897 -0.1070 -0.3718 -0.0325
16535W        W32004  17.528  10.440  12.731 -0.1871 -0.1743 -0.1282
16536W        W32005   1.099  18.194   4.453 -0.1644 -0.2720  0.0109
16537W        W32006   4.033  17.044  14.747  0.0521 -0.2134  0.0815
16538W        W32007   7.028  10.605   2.127 -0.1563  0.3414 -0.1944
16539W        W32008   1.656  12.907   2.552 -0.2710 -0.3059 -0.1817
16540W        W32009   1.532   6.875   2.141  0.2750  0.3395  0.2978
16541W        W32010  10.213   5.938  14.736 -0.3590 -0.0289  0.1574
16542W        W32011   7.400  14.648  13.908 -0.2879  0.1371  0.0380
16543W        W32012  14.491   0.621   9.482  0.2877  0.3566 -0.0752
16544W        W32013  13.250   3.497  12.775  0.3881 -0.3264 -0.0061
16545W        W32014   5.338  12.318   3.417 -0.0270 -0.1509  0.1710
16546W        W32015   1.944  14.728   5.225  0.0578  0.1211  0.0660
16547W        W32016   2.945  11.370   1.166 -0.0780 -0.2880 -0.1224
16548W        W32017  14.214   9.117   3.102  0.0196 -0.3397  0.1998
16549W        W32018   0.306  17.734   2.948 -0.0808 -0.3093  0.3110
16550W        W32019  14.867   5.511   0.752  0.0701  0.4145  0.3192
16551W        W32020   0.247   8.864  11.618 -0.3028 -0.0511 -0.0309
16552W        W32021  18.382   5.061   1.080 -0.1925  0.2822  0.2334
16553W        W32022  13.476   6.902   2.057  0.1265 -0.0788  0.1360
16554W        W32023  18.007  12.837   4.952 -0.2925  0.2136  0.3191
16555W        W32024  17.435   5.599  11.117 -0.1144  0.2521  0.0554
16556W        W32025  15.939  17.278   9.861  0.0226  0.1193 -0.1225
16557W        W32026   4.157   1.455   1.423 -0.1758  0.1952 -0.0062
16558W        W32027   7.051  15.775   1.104  0.3124 -0.2249  0.0463
16559W        W32028  15.649   4.430   0.826 -0.0093  0.0186 -0.0756
16560W        W32029  12.958   8.085   4.058 -0.3607  0.1692 -0.4124
16561W        W32030  15.728   7.126   1.287 -0.2489 -0.3617  0.2213
16562W        W32031   4.938  10.594   0.367 -0.0302 -0.1511 -0.0197
16563W        W32032  14.357  14.704   3.267 -0.3130  0.2603 -0.4036
16564W        W32033   1.478   9.020  15.614  0.1376  0.0272  0.0104
16565W        W32034  13.962   4.099   1.275 -0.1893  0.1068 -0.3347
16566W        W32035  15.384   0.080  10.578 -0.1273  0.0302 -0.3179
16567W        W32036  17.239   3.791  15.001 -0.1755 -0.2184  0.3277
16568W        W32037   3.207  12.211  15.414 -0.0000 -0.1349  0.0709
16569W        W32038   2.005   3.072   3.186 -0.0169 -0.2272 -0.0590
16570W        W32039   2.588   3.633   3.616  0.1989  0.1900 -0.0258
16571W        W32040   5.553  13.357   2.026 -0.0488 -0.2828 -0.2995
16572W        W32041   6.174   7.420   4.060  0.1592 -0.1325  0.2790
16573W        W32042   5.866   9.478   4.973  0.2445 -0.2176 -0.0803
16574W        W32043  16.689  16.104   3.032  0.1120 -0.1211  0.1373
16575W        W32044  15.891   7.339   2.788 -0.3133  0.1005 -0.2334
16576W        W32045  18.466  18.490   4.368  0.2910  0.2101 -0.2050
16577W        W32046   7.666   2.371   2.914 -0.0492  0.2049  0.3974
16578W        W32047  13.270  10.869   3.328  0.1296 -0.0103  0.1426
16579W        W32048  15.861   8.392   3.352 -0.0710 -0.4021 -0.1347
16580W        W32049  14.552   9.007   4.875 -0.1955 -0.2320 -0.0939
16581W        W32050  13.224   5.317  15.016  0.0627  0.0911  0.0393
16582W        W32051   7.075   2.109  11.073 -0.1269  0.1842  0.0993
16583W        W32052   6.779   9.773   4.833 -0.0849 -0.1664  0.1438
16584W        W32053   7.341  18.054  15.556 -0.0593 -0.0818 -0.1141
16585W        W32054   2.188   2.717   4.559 -0.0459  0.1106 -0.1196
16586W        W32055   4.163  16.670  13.236  0.1767  0.0281  0.1822
16587W        W32056  18.693  13.121   4.116  0.1082 -0.0849 -0.0165
16588W        W32057   3.652  13.287   5.149  0.0007 -0.0751 -0.2488
16589W        W32058   7.325  12.306  11.141  0.0009 -0.0098  0.2052
16590W        W32059  14.631   8.241   3.109 -0.2349 -0.0075 -0.2150
16591W        W32060   2.029  11.910  11.860 -0.1150  0.0507 -0.0398
16592W        W32061   3.291  14.362  13.115 -0.2327  0.1250  0.0003
16593W        W32062   7.639  14.181   0.635  0.0113  0.0828 -0.0127
16594W        W32063  17.198  18.401   9.828  0.1438  0.1342  0.0847
16595W        W32064  18.665   3.120   0.872 -0.1353 -0.2136  0.1209
16596W        W32065   6.240  10.983   6.476  0.3677  0.0132 -0.1582
16597W        W32066   0.049   7.317  14.062  0.2721  0.1764  0.0355
16598W        W32067  12.858   7.560   3.912  0.0178  0.2279 -0.0563
16599W        W32068  11.353  10.141   0.196  0.2976 -0.0339  0.0368
16600W        W32069  10.950   5.489  13.967  0.3519 -0.0697 -0.2346
16601W        W32070   1.767   5.289  13.353  0.2891  0.0356  0.0246
16602W        W32071   5.513   7.341   2.975 -0.0727  0.2982 -0.0996
16603W        W32072   3.310   0.664  14.919  0.1314 -0.1014  0.0821
16604W        W32073   8.494  18.655  13.732  0.0646  0.2010  0.1406
16605W        W32074  16.542   9.918  13.250 -0.0010  0.0830 -0.3308
16606W        W32075   1.443   8.036   6.038 -0.1483  0.0026  0.1774
16607W        W32076  13.414   1.812  15.719 -0.0008  0.0801 -0.0318
16608W        W32077   7.571   1.132   3.880 -0.3153  0.1430 -0.1514
16609W        W32078   1.261   0.644   1.716 -0.0536 -0.0512 -0.3016
16610W        W32079  15.959   2.668   0.292  0.1071 -0.0859  0.1344
16611W        W32080   6.608  11.994  11.389  0.0170  0.0464 -0.2069
16612W        W32081  15.286   7.233  11.988 -0.3367  0.0291 -0.0386
16613W        W32082   8.060   7.752   3.580  0.2073  0.3393  0.0001
16614W        W32083   6.814  15.741  11.718 -0.0835  0.0691 -0.3588
16615W        W32084   0.464   6.771  14.707  0.1460 -0.0493  0.0135
16616W        W32085   4.622   1.431  14.933  0.1175 -0.0818  0.2394
16617W        W32086   2.258  16.007   2.227 -0.3003 -0.1184 -0.0893
16618W        W32087  16.125   2.733  14.607  0.1068 -0.0469  0.1220
16619W        W32088  12.030   6.102   5.392  0.3320 -0.1637  0.0976
16620W        W32089  13.137   6.355  10.951  0.2164  0.1887  0.6326
16621W        W32090   6.379  15.085  14.084  0.1408  0.0820 -0.0307
16622W        W32091   7.718   5.882   3.537 -0.2552  0.0118  0.1550
16623W        W32092  10.214   7.341   5.200  0.0583 -0.1682  0.1813
16624W        W32093   6.503  17.504  15.627  0.1430 -0.1630  0.0757
16625W        W32094   2.717  16.787   0.338 -0.3610  0.2607 -0.0552
16626W        W32095  15.134  17.261  13.146  0.0362  0.5518 -0.1916
16627W        W32096   3.162  16.816   0.570 -0.1845 -0.3106 -0.1025
16628W        W32097   1.838  10.382  12.307 -0.0286 -0.1307 -0.1924
16629W        W32098  10.284  17.237  14.410 -0.2506  0.3246  0.0205
16630W        W32099  16.203  12.457  14.792  0.4458 -0.2744  0.2128
16631W        W32100   5.275  15.296   1.029 -0.1210  0.3078 -0.4035
16632W        W32101  17.105   9.398  10.905  0.2487 -0.1385 -0.0755
16633W        W32102   0.045   5.743  11.022 -0.0727 -0.0630 -0.2323
16634W        W32103   0.398   3.156   1.831  0.0423  0.1115  0.1302
16635W        W32104   2.496  14.724  13.239  0.1603  0.2837 -0.1933
16636W        W32105   3.690   0.427  14.677  0.0923  0.0385  0.0177
16637W        W32106  10.612   1.754   0.381  0.1023  0.1374 -0.1287
16638W        W32107   3.635   7.026  12.929  0.0356 -0.0724  0.3017
16639W        W32108   7.387  10.924  14.590 -0.0706  0.2908 -0.0650
16640W        W32109   0.925  15.120   3.147 -0.1377 -0.2023 -0.1075
16641W        W32110   0.908   7.934  11.824  0.1008 -0.1424  0.0195
16642W        W32111   8.668   5.543   3.439  0.1585  0.0740 -0.1405
16643W        W32112  14.637   3.864   1.572 -0.3828 -0.1914 -0.1421
16644W        W32113  14.744  11.983  14.127  0.1303 -0.1389  0.1179
16645W        W32114  13.158   4.558  11.344  0.1243 -0.2416  0.1186
16646W        W32115   1.744   7.450  11.215  0.0876  0.0535  0.1678
16647W        W32116   3.285   8.250   3.836 -0.0317  0.0205 -0.2703
16648W        W32117   1.231   3.957  14.176 -0.1064 -0.1500  0.1420
16649W        W32118  17.558  15.074  13.065 -0.2271 -0.0007  0.4416
16650W        W32119  12.332   0.429   5.760  0.2917  0.1331 -0.0738
16651W        W32120  14.569  15.620   5.085  0.2599 -0.0911 -0.1318
16652W        W32121  17.420   3.106  12.282 -0.3114  0.1330  0.0212
16653W        W32122  16.175  15.462  12.002 -0.3732  0.0459 -0.1619
16654W        W32123   7.043   0.382  14.841 -0.1334  0.2696  0.0724
16655W        W32124   9.961   5.604  12.485  0.0126 -0.0067 -0.4809
16656W        W32125   7.935   9.518   2.374 -0.0293 -0.0768  0.1859
16657W        W32126   8.288  13.618  10.400 -0.2447 -0.2005 -0.0052
16658W        W32127  15.159  10.530  13.685 -0.2054 -0.1130  0.1582
16659W        W32128  14.198   5.427   0.822 -0.0257 -0.1388  0.1111
16660W        W32129   6.035  15.553  14.940  0.1992  0.2033  0.3531
16661W        W32130  11.992   7.791   2.778  0.0116 -0.2902  0.0193
16662W        W32131  12.345  13.774   4.731 -0.0148 -0.0159  0.1395
16663W        W32132  15.871   3.874   1.645  0.0053  0.0232 -0.0752
16664W        W32133   0.409  13.032   2.532  0.4023 -0.0212  0.3289
16665W        W32134  15.465  12.798  15.279  0.1013 -0.0862 -0.1779
16666W        W32135   5.465  14.518   3.786  0.1815 -0.0445  0.0571
16667W        W32136   0.111   3.310   2.726  0.1323  0.0908  0.3148
16668W        W32137  18.015  17.361  13.078 -0.1197  0.1090 -0.0299
16669W        W32138   2.357  15.234   9.830 -0.1739  0.0304  0.0796
16670W        W32139   3.034   4.726  11.493  0.0299 -0.2893  0.0244
16671W        W32140  17.842   2.082   1.376 -0.1505 -0.2478 -0.1374
16672W        W32141  10.779  11.647   0.077 -0.0146  0.0252  0.2847
16673W        W32142   4.671   7.200   2.391 -0.0176  0.1153  0.2481
16674W        W32143   8.389   6.489  14.976 -0.2088 -0.2030  0.1465
16675W        W32144   4.358   5.464  11.750 -0.1318 -0.0163 -0.3615
16676W        W32145   6.105   0.478   1.438  0.0855 -0.1116 -0.0814
16677W        W32146   2.578  17.967   3.665 -0.2965 -0.0741  0.0298
16678W        W32147   6.758   0.002   3.866  0.0270  0.2463  0.1657
16679W        W32148   0.512   3.882   1.042  0.1008 -0.1457 -0.0943
16680W        W32149   1.892   7.186  15.128 -0.0998  0.1978  0.3663
16681W        W32150   7.959   6.312  14.013  0.0499 -0.0353 -0.3590
16682W        W32151  13.435  11.650  10.706  0.0148 -0.0568  0.0491
16683W        W32152   4.834  13.094   1.160  0.2016  0.0023 -0.3821
16684W        W32153   5.003   4.474   1.069 -0.2103  0.2101  0.1531
16685W        W32154  16.556   8.770  11.368  0.0636  0.0473  0.3883
16686W        W32155   6.310  14.943   4.017 -0.1781 -0.4478 -0.0217
16687W        W32156  14.331   7.428   1.299  0.1801 -0.0154  0.3508
16688W        W32157   8.130  10.295   1.138  0.2542  0.0623  0.0453
16689W        W32158   9.626   3.488  14.397  0.0633 -0.0058 -0.0243
16690W        W32159   6.263   2.573   2.461  0.0690 -0.1365  0.2214
16691W        W32160  12.339   2.110  11.345 -0.2742 -0.3221 -0.0934
16692W        W32161   2.442  16.288   1.796 -0.0386 -0.1350 -0.2321
16693W        W32162  10.673   0.254   5.455  0.3486 -0.0098 -0.0694
16694W        W32163   9.865   0.791  12.515 -0.2050  0.4465 -0.3598
16695W        W32164   2.552  13.246  11.660  0.2130  0.4032 -0.1210
16696W        W32165   4.314  13.604  12.582 -0.1563 -0.0679  0.0695
16697W        W32166  15.757   5.415   2.019  0.2823 -0.0784 -0.2869
16698W        W32167   1.316   8.235  11.309 -0.2897 -0.1105 -0.0905
16699W        W32168   0.217  18.431   0.600  0.0609  0.0744  0.0251
16700W        W32169  10.240   4.029  13.463 -0.0343 -0.1160  0.0180
16701W        W32170   2.483   9.307   2.488  0.0615  0.0415 -0.2114
16702W        W32171  18.358  13.538   1.058  0.1707 -0.2367  0.0714
16703W        W32172   2.590  18.091  13.676 -0.0503  0.2140  0.1534
16704W        W32173  14.813   2.429   4.727  0.1344 -0.1408  0.0351
16705W        W32174   4.894   1.438  13.526  0.1496  0.2097 -0.0031
16706W        W32175   2.770  17.765  11.656 -0.2059  0.1415 -0.1545
16707W        W32176   0.484  17.798  11.275 -0.1542 -0.2505  0.2337
16708W        W32177   9.270  15.630   5.602 -0.0389  0.0075 -0.1566
16709W        W32178   1.295   0.338   4.017  0.0909 -0.2721  0.4255
16710W        W32179  14.970  15.857   4.235  0.0448  0.1308 -0.0211
16711W        W32180   9.083  13.132  11.417 -0.1422  0.1011  0.0634
16712W        W32181   0.975  13.815  11.751 -0.1540  0.0420 -0.0450
16713W        W32182  13.172  15.261   0.593  0.3045 -0.0005  0.0569
16714W        W32183   5.354  14.361  10.875 -0.3220 -0.0137 -0.1054
16715W        W32184  14.313   4.453  14.837  0.0685  0.0056 -0.3045
16716W        W32185  12.930  16.331  11.318  0.2410 -0.4786 -0.1232
16717W        W32186   6.653  11.692   3.746  0.3031 -0.1613  0.1544
16718W        W32187   5.370   8.607  13.813  0.1007 -0.1214  0.1491
16719W        W32188   2.791  12.143   1.040  0.3983 -0.0118 -0.1559
16720W        W32189   4.134  15.645   0.015 -0.0971  0.1167  0.2273
16721W        W32190   6.258  17.007  11.527  0.1529  0.2828  0.1369
16722W        W32191  14.953  13.347   2.879  0.1097 -0.1550 -0.0217
16723W        W32192  15.946  16.723   0.772  0.0900  0.3321  0.1483
16724W        W32193   7.121   6.204   1.375  0.1301  0.1005 -0.1727
16725W        W32194  12.668   9.590  12.488  0.3574  0.0020 -0.1643
16726W        W32195   3.035   4.176  12.722 -0.2428  0.2043 -0.1724
16727W        W32196   3.671  13.422  11.358 -0.2080 -0.2567 -0.2145
16728W        W32197   3.670  10.567   4.244  0.2412 -0.2749 -0.3999
16729W        W32198  10.135  12.003   5.157 -0.0103 -0.0720  0.1526
16730W        W32199  15.381  17.451  14.925 -0.3366 -0.0995  0.4521
16731W        W32200  15.177  18.525   2.403  0.0673  0.1632  0.1060
16732W        W32201  16.485  17.176  14.982 -0.2416  0.0617  0.1239
16733W        W32202  11.353   4.836   0.858  0.2687 -0.0077  0.0615
16734W        W32203  10.969  17.226   0.939 -0.0207 -0.4903 -0.1253
16735W        W32204   4.532   3.758   3.929 -0.0347 -0.0456  0.2322
16736W        W32205   7.997  18.072  15.415  0.0677 -0.0036  0.0883
16737W        W32206   7.828   5.393   5.239  0.2673 -0.0494 -0.3929
16738W        W32207   6.034   7.902   1.467 -0.1312  0.0012 -0.1468
16739W        W32208   2.664  13.785   3.284  0.1492  0.1988 -0.2111
16740W        W32209  12.422   0.387   2.001  0.3039 -0.4465 -0.2988
16741W        W32210   6.572   1.042   1.509  0.1045 -0.2991  0.1338
16742W        W32211   5.485  16.284  12.229  0.0067 -0.1039  0.2510
16743W        W32212   8.198   6.924   0.120 -0.2780  0.1649  0.1944
16744W        W32213   7.903  15.601  12.037  0.2376 -0.0396 -0.0379
16745W        W32214   1.715   4.109  14.136 -0.2406 -0.0636  0.0554
16746W        W32215   8.400   9.516  15.697 -0.0250  0.1525 -0.0705
16747W        W32216   0.519   6.132  11.584  0.2529  0.2793 -0.1239
16748W        W32217  11.361   5.326   0.600 -0.0071 -0.1434 -0.1671
16749W        W32218   2.674   3.363   0.527 -0.0378  0.1563 -0.0147
16750W        W32219   9.852   9.774   2.246 -0.1979 -0.0368  0.6215
16751W        W32220   6.556  13.037   2.829  0.1450 -0.0031  0.1660
16752W        W32221   7.362   9.312   3.696 -0.2962 -0.2075 -0.0123
16753W        W32222   9.990  18.548   4.298  0.1201 -0.1809  0.0852
16754W        W32223  16.276   6.973   4.295 -0.2614  0.2420  0.1947
16755W        W32224   3.680   8.568   0.409  0.1708  0.1122 -0.1086
16756W        W32225  15.464   4.175   1.655  0.1993 -0.1368 -0.0317
16757W        W32226  12.439   0.124   5.111  0.1129 -0.0924 -0.3553
16758W        W32227   5.265  16.487  10.435  0.2530  0.2838  0.0821
16759W        W32228  18.209   1.814   3.539  0.3281 -0.0487 -0.0791
16760W        W32229   6.868   5.756   1.792  0.0418 -0.1012 -0.0981
16761W        W32230  16.137  10.764   0.717  0.2500 -0.1638  0.3037
16762W        W32231  10.379   2.586   1.790 -0.0129 -0.1424 -0.2514
16763W        W32232   6.680   4.592  11.429  0.0700 -0.1493  0.1207
16764W        W32233  10.135   8.199   9.994 -0.2111  0.0730  0.1944
16765W        W32234  15.369  17.058  10.626 -0.0885 -0.0275  0.3445
16766W        W32235   1.105   5.757   3.426  0.1668 -0.0071  0.0485
16767W        W32236  15.453   2.200   2.189  0.1800  0.0295  0.4586
16768W        W32237  16.204  15.745   0.739  0.0706 -0.0663 -0.1036
16769W        W32238  14.445   0.014  14.434  0.0373  0.2230 -0.2187
16770W        W32239  12.937  16.982   5.311 -0.3601 -0.2466  0.3632
16771W        W32240   8.377  13.103  14.622 -0.0171  0.0176  0.2741
16772W        W32241  18.625  12.669   4.389 -0.2489 -0.2266  0.2728
16773W        W32242  18.467   3.155  10.671 -0.0268 -0.0569  0.0423
16774W        W32243  16.212   0.621   4.844 -0.2935  0.0795 -0.4413
16775W        W32244   0.164  18.074   2.357  0.0472  0.1764 -0.1077
16776W        W32245   7.387   2.331  15.256  0.0046 -0.0617 -0.1898
16777W        W32246  17.469  16.361  11.107 -0.0295 -0.1898  0.2301
16778W        W32247   3.712   3.807   5.233 -0.3256 -0.1248 -0.2221
16779W        W32248   6.234  18.055   4.628 -0.2670 -0.0665  0.1574
16780W        W32249  12.272  12.299  14.018  0.2084 -0.3806  0.0115
16781W        W32250  10.914   4.659  12.974 -0.0836  0.1568 -0.0615
16782W        W32251   6.962   0.803  12.719  0.0964  0.1217  0.1527
16783W        W32252   3.275   8.643  14.068 -0.4234  0.1073 -0.1140
16784W        W32253   5.251   6.632   3.542  0.4238 -0.0859 -0.2416
16785W        W32254   2.007  12.566  14.739 -0.0021  0.2014 -0.0989
16786W        W32255  15.670  16.011  11.312 -0.0199 -0.2429 -0.1308
16787W        W32256   2.295  12.974  14.640 -0.3082 -0.4051 -0.0313
16788W        W32257  15.871   3.206   2.822  0.0511  0.0745 -0.3508
16789W        W32258  14.155   2.186   0.652  0.0300 -0.1817 -0.0010
16790W        W32259  13.642   2.196  12.516  0.1036 -0.1438 -0.4376
16791W        W32260  10.059  17.525   4.497  0.2084  0.2217 -0.1157
16792W        W32261   4.632  14.343  12.079 -0.1774  0.1501 -0.0697
16793W        W32262   8.273  10.307   2.607  0.0506  0.0539 -0.3108
16794W        W32263  16.845   4.299  10.154  0.0352 -0.0156 -0.0835
16795W        W32264   8.646  18.691  11.234  0.0833  0.1680 -0.0851
16796W        W32265   3.969   4.575  13.113  0.1409  0.0354  0.1731
16797W        W32266   0.722   4.311  14.297 -0.1882  0.0523 -0.0250
16798W        W32267   3.118  16.621   3.638  0.3723  0.0405 -0.1547
16799W        W32268   0.064  17.583   2.103  0.3040 -0.1898 -0.0749
16800W        W32269  11.681   5.275  13.241 -0.0133 -0.0648 -0.1088
16801W        W32270  16.752   2.346  10.599  0.1009 -0.0921 -0.1479
16802W        W32271   6.446  13.627   5.332  0.0809  0.0888  0.2430
16803W        W32272   5.913  15.714   2.654 -0.0685  0.1540 -0.0089
16804W        W32273   9.845   3.756  14.852  0.1699  0.0004  0.0477
16805W        W32274   7.537   5.448  13.503  0.1939 -0.4520  0.2160
16806W        W32275  15.873  11.961  13.263  0.0833  0.1411  0.0585
16807W        W32276   0.176   0.702   0.991  0.0120 -0.1818  0.2220
16808W        W32277   8.877   1.255   5.054  0.0786 -0.1505  0.1758
16809W        W32278   3.606  14.897  15.214  0.0176  0.0302 -0.1583
16810W        W32279  17.434  18.443   2.990  0.1507 -0.0751 -0.4710
16811W        W32280  14.176  17.359  13.492  0.2232 -0.1815  0.4322
16812W        W32281   7.667  11.986   5.417  0.1092  0.0839  0.3987
16813W        W32282  16.955   4.176  12.415  0.2061  0.0529 -0.2509
16814W        W32283  14.581   6.419   0.695  0.0367 -0.2713 -0.0762
16815W        W32284  12.907   3.314  11.960  0.1644  0.0859 -0.1296
16816W        W32285  17.451   4.123  15.522  0.1111  0.2069  0.1485
16817W        W32286  10.550   7.341   1.180 -0.2170 -0.0304 -0.2479
16818W        W32287   3.933   7.483  13.034  0.1999 -0.0541  0.2330
16819W        W32288  14.219   2.869   0.095 -0.3350  0.0742  0.3185
16820W        W32289  16.043  13.211  14.010  0.0628  0.0917  0.0908
16821W        W32290  17.868  13.949   2.610 -0.3775 -0.1625 -0.0699
16822W        W32291   6.855   9.625   5.291  0.0377  0.1823  0.2021
16823W        W32292   4.599  17.854   3.959  0.2856 -0.2635 -0.2613
16824W        W32293  17.070   6.611   4.296 -0.0684  0.0996 -0.0588
16825W        W32294  12.363  14.316   5.217  0.1834  0.0835 -0.3314
16826W        W32295  13.759   5.584   4.669  0.0370  0.2999 -0.0357
16827W        W32296   9.194   8.605  13.174  0.1636 -0.1751 -0.2827
16828W        W32297  17.892   4.561   3.039  0.0471  0.0324  0.0091
16829W        W32298  17.982  17.523   2.816 -0.2793  0.2484 -0.1651
16830W        W32299   0.695   8.074  14.319  0.0341  0.0907 -0.3795
16831W        W32300  17.629   4.392   2.181  0.1629 -0.0652 -0.1085
16832W        W32301  13.954   9.068  13.592 -0.0559  0.1534 -0.2070
16833W        W32302   3.931   3.533  12.562  0.1868  0.2181  0.1272
16834W        W32303   8.528   5.659  12.367  0.0364  0.2513  0.1769
16835W        W32304   5.787  13.049  11.851  0.2259 -0.1569 -0.3699
16836W        W32305   0.565  16.187   3.883 -0.1466 -0.2497  0.1204
16837W        W32306  16.709   7.128  13.435  0.3634 -0.0187  0.3094
16838W        W32307   4.146   6.114  12.063  0.0404  0.0781 -0.1135
16839W        W32308  18.245  10.045  10.905  0.3019 -0.0196 -0.0063
16840W        W32309   3.382  14.511   1.486 -0.0155 -0.1723  0.0210
16841W        W32310   6.509  11.525  15.163 -0.0733  0.1011 -0.0314
16842W        W32311  15.093   0.688  12.787 -0.1615  0.0535 -0.1960
16843W        W32312  14.655  14.810   0.705  0.5110  0.0791 -0.2810
16844W        W32313   4.869   9.438   5.119 -0.1195  0.3649  0.0125
16845W        W32314   3.630  16.260  14.171 -0.2126  0.2206  0.3130
16846W        W32315   2.818  12.704   3.135 -0.0563 -0.1502  0.1136
16847W        W32316   0.420   7.625   1.842 -0.1930 -0.3434  0.0751
16848W        W32317  16.409   5.886  11.108  0.3087 -0.1233  0.0951
16849W        W32318   5.392  15.283   0.540  0.0205  0.2866  0.1325
16850W        W32319   0.862   0.903   5.397 -0.1556  0.0874  0.0354
16851W        W32320   2.037   1.810   3.898 -0.3022 -0.0251 -0.0807
16852W        W32321   5.467   9.862   1.630  0.3577 -0.2523  0.1336
16853W        W32322   4.360  17.437  14.788 -0.0065  0.4106  0.1771
16854W        W32323   3.240  14.498  11.264 -0.3743  0.0271 -0.0850
16855W        W32324  13.360   7.921  15.096 -0.1559  0.0031  0.3877
16856W        W32325  10.205  16.748  11.559 -0.0606  0.1173  0.2654
16857W        W32326   3.114   7.344  14.716 -0.0406 -0.0076  0.0330
16858W        W32327   6.755  17.095   0.105 -0.0188 -0.1625 -0.0872
16859W        W32328  15.281   9.535   1.400 -0.3659 -0.2362  0.1722
16860W        W32329  11.273  15.580   2.659 -0.0241 -0.0932  0.0968
16861W        W32330   5.629  12.869   2.686  0.1610  0.1600  0.0341
16862W        W32331   2.018  16.133  15.055  0.0671  0.2868  0.1794
16863W        W32332  14.730   6.253  10.380 -0.2430 -0.0760 -0.0664
16864W        W32333  10.341  12.247   2.656 -0.3436  0.3894  0.1404
16865W        W32334   6.624  18.175   3.881 -0.1541 -0.2115 -0.0637
16866W        W32335  17.058  13.992  15.424  0.0451 -0.1233 -0.0522
16867W        W32336   9.527   6.485   0.693 -0.0612  0.0747 -0.0038
16868W        W32337  18.456   9.991  13.575  0.2826  0.0429 -0.0570
16869W        W32338  11.974   0.839  13.163  0.2583  0.0776  0.2119
16870W        W32339  16.608  13.854  11.063 -0.1571  0.2371  0.2339
16871W        W32340   2.525  14.867   3.539 -0.1621  0.0076 -0.1258
16872W        W32341   2.113   6.488   5.414 -0.1620 -0.0470  0.1887
16873W        W32342   6.709   1.880  14.286  0.0372  0.1064 -0.1990
16874W        W32343   1.223   3.409  14.420 -0.0397  0.2193  0.2168
16875W        W32344  10.506   7.964  13.922 -0.2380  0.1603  0.1695
16876W        W32345   5.610   9.010  10.551 -0.0249  0.0340  0.0754
16877W        W32346   2.492  14.106  12.911 -0.1813 -0.1093 -0.0807
16878W        W32347  12.130  11.356  15.376  0.5621 -0.3730  0.4755
16879W        W32348  17.034  16.429  12.834  0.2698  0.1400  0.0917
16880W        W32349   9.718   6.571  15.390 -0.1299 -0.0135 -0.0248
16881W        W32350  13.699   9.842  13.222  0.2968  0.2842  0.0605
16882W        W32351   8.199   3.171   4.607 -0.1872  0.1102  0.0660
16883W        W32352   1.022  11.718  13.015  0.0930 -0.4129 -0.1075
16884W        W32353  18.667  10.816  11.450  0.2812  0.2323 -0.4856
16885W        W32354   1.274  12.470   2.482 -0.2776  0.2244  0.0555
16886W        W32355  16.534   1.824  12.611  0.1558 -0.3521  0.3417
16887W        W32356   1.916  15.165  14.222  0.0341 -0.0020  0.0673
16888W        W32357  13.080   4.771  15.642 -0.2134 -0.1097 -0.0444
16889W        W32358  18.500   1.045  12.365 -0.2509 -0.0255  0.2083
16890W        W32359   2.703  16.068  11.651  0.2095 -0.2890  0.1872
16891W        W32360   8.901  10.345   2.282 -0.1682 -0.1886 -0.1371
16892W        W32361   0.918  18.491   3.409 -0.0240  0.2173  0.0826
16893W        W32362   4.608   1.361   1.707 -0.4216  0.1801  0.0249
16894W        W32363   4.169   2.525   5.207  0.0183 -0.3499 -0.0963
16895W        W32364   8.396  13.651   3.095 -0.0489  0.2079  0.2263
16896W        W32365  16.696   4.580   2.462 -0.0176 -0.2836  0.1210
16897W        W32366  11.434  17.913  15.783 -0.2558  0.2966  0.1651
16898W        W32367  10.135   8.778   1.283  0.1071  0.0118 -0.2078
16899W        W32368   1.556   3.133   2.906 -0.2609  0.1068 -0.0304
16900W        W32369   4.013  15.183  11.029  0.1169  0.1233 -0.0007
16901W        W32370  13.631   9.847   0.450 -0.2908 -0.2005  0.1371
16902W        W32371   1.044  14.024   3.130  0.0813  0.2324  0.1020
16903W        W32372   3.695   2.786   1.753  0.0916 -0.4492  0.2677
16904W        W32373  18.224   7.366  14.288  0.2072 -0.1411  0.1111
16905W        W32374  13.956   6.179  13.877 -0.3501  0.2123  0.0913
16906W        W32375   0.249   4.038  11.578  0.2359 -0.1867  0.0525
16907W        W32376   5.713   7.513   4.951 -0.0182 -0.0167  0.2464
16908W        W32377  18.311  13.655   1.605 -0.0516  0.2618  0.1522
16909W        W32378  15.180   7.191  13.017 -0.1738  0.1127  0.2199
16910W        W32379  15.851  12.864   2.708  0.1262  0.1544 -0.1809
16911W        W32380   8.610  16.399  14.663  0.3578 -0.0782 -0.1549
16912W        W32381   2.006   3.259   1.793 -0.1778 -0.1070 -0.0889
16913W        W32382  14.091  14.652   4.734  0.3458  0.0899 -0.1592
16914W        W32383   5.290  10.422   0.757 -0.0657 -0.0209  0.0015
16915W        W32384  10.651  16.817   0.194  0.0788 -0.0828  0.1694
16916W        W32385  15.279   6.869  11.620 -0.3038 -0.1016  0.1489
16917W        W32386   7.029  11.056   5.489 -0.0059  0.3445  0.1290
16918W        W32387   0.446   1.894   4.685  0.2971 -0.1010 -0.2269
16919W        W32388  13.899  16.736   3.344  0.1990 -0.2942 -0.0358
16920W        W32389  13.728  12.654   3.111  0.1927 -0.0325 -0.0171
16921W        W32390   4.998  16.424   9.924 -0.0563 -0.1146  0.1080
16922W        W32391  15.870   2.310   2.383  0.0670  0.2274 -0.0917
16923W        W32392  11.284  15.226  11.330  0.1320  0.1427  0.2605
16924W        W32393  10.498   9.946  14.565  0.0961 -0.5330  0.0785
16925W        W32394  15.920   3.659   2.675  0.6101 -0.0613  0.0183
16926W        W32395   7.178   4.259   4.329  0.1061 -0.3191  0.0162
16927W        W32396   5.956   6.340   1.305  0.2530  0.1462  0.0462
16928W        W32397  16.858  11.544   0.693 -0.1934  0.3036 -0.2228
16929W        W32398   7.877  18.122   4.400 -0.1758  0.1041 -0.2051
16930W        W32399   0.219   2.649   1.845 -0.1480 -0.1938  0.2724
16931W        W32400   1.580   5.270   1.482 -0.1626  0.0150  0.0869
16932W        W32401   3.721   5.163  14.603  0.1582  0.2481  0.2977
16933W        W32402  14.046   7.033  15.423  0.1660 -0.1149  0.0728
16934W        W32403   4.616   3.313   4.289  0.2686  0.1436 -0.0090
16935W        W32404   6.663  12.741  13.569 -0.2154  0.0186  0.1165
16936W        W32405   3.933   6.050   3.148 -0.0330 -0.1615 -0.1188
16937W        W32406  10.674  12.931   5.555  0.1613 -0.3070 -0.0356
16938W        W32407  16.328   4.650   5.503 -0.0948  0.5421 -0.2548
16939W        W32408   2.513   9.792  14.602  0.0534 -0.0353  0.1206
16940W        W32409   5.153  16.937   2.353 -0.2362 -0.1847 -0.0586
16941W        W32410  10.084   9.536  13.988 -0.2857 -0.1106  0.2090
16942W        W32411  18.483   1.443   3.719 -0.1044  0.0066 -0.1353
16943W        W32412   7.230  12.019  12.059  0.2847  0.1377  0.0480
16944W        W32413   2.254   4.767  15.096  0.3683 -0.1146  0.3323
16945W        W32414   5.378   0.477  13.322  0.2410  0.1945  0.1820
16946W        W32415   0.673   3.303  12.346  0.0825 -0.2959 -0.1620
16947W        W32416   2.931   7.292   2.846  0.3339  0.3225  0.5549
16948W        W32417   6.870   0.803  14.545  0.2932 -0.1251 -0.1093
16949W        W32418  16.507  13.392  10.194 -0.0093  0.1494 -0.0569
16950W        W32419  13.008   5.080   3.068  0.0578  0.1393  0.0317
16951W        W32420   5.068  17.403  10.879 -0.1113 -0.0458  0.0314
16952W        W32421   6.139  18.486   0.331  0.1632  0.1427 -0.0736
16953W        W32422  17.847   1.840   2.191 -0.0582  0.0584 -0.0514
16954W        W32423   2.498  10.578  12.525 -0.0771  0.3646  0.3444
16955W        W32424   9.442   0.319  11.714 -0.0484 -0.0408  0.2278
16956W        W32425   1.244   7.611  12.608 -0.1532  0.0646 -0.1122
16957W        W32426  12.764   7.121   1.454  0.1825 -0.3025 -0.0090
16958W        W32427   5.035   6.490   4.026 -0.1214  0.1260  0.0870
16959W        W32428   6.744  13.824   0.022  0.0995 -0.0212  0.2208
16960W        W32429   7.494  18.401   4.336 -0.0917  0.1012 -0.1410
16961W        W32430  15.623  15.914   2.082 -0.0066 -0.0483 -0.0450
16962W        W32431   9.443  17.595   3.647  0.2696  0.0393 -0.1414
16963W        W32432  15.119  10.312   3.065  0.0658 -0.0698  0.0850
16964W        W32433   1.861  15.255   2.948  0.0398  0.0274 -0.0056
16965W        W32434   4.632  16.784   9.711  0.0724 -0.2082 -0.0526
16966W        W32435  17.032  17.939  10.354 -0.1178 -0.0856  0.0256
16967W        W32436   8.062  13.619  13.107  0.1743  0.2197  0.2130
16968W        W32437   9.018  17.564  10.132 -0.0778  0.1264 -0.0417
16969W        W32438   0.399   6.020   0.366 -0.1007 -0.2283 -0.2478
16970W        W32439  10.413   0.907  13.453  0.1171  0.0846 -0.0499
16971W        W32440  15.294  12.337   4.617 -0.1864 -0.0924 -0.1839
16972W        W32441  18.476   3.803   5.229 -0.0721  0.1525 -0.2551
16973W        W32442  15.285   4.304  11.079  0.0322 -0.3504  0.3506
16974W        W32443  15.695   6.135   4.395  0.5248  0.2690 -0.1091
16975W        W32444  11.107  11.112   1.144 -0.1235 -0.1214 -0.2938
16976W        W32445   1.935  13.275  12.351 -0.1896 -0.3219  0.0193
16977W        W32446  11.147   2.619   3.821  0.1284  0.0600  0.1204
16978W        W32447   5.810  14.102  10.859 -0.1111 -0.2037 -0.0388
16979W        W32448  14.368   2.249   1.492 -0.2179  0.0900  0.3002
16980W        W32449   2.872  15.670  12.612  0.3587  0.1494 -0.0842
16981W        W32450   7.563  16.945   2.378 -0.1602  0.1683  0.0297
16982W        W32451   1.016   2.667   3.413 -0.3550  0.2082  0.0059
16983W        W32452  18.639  15.108   2.698  0.2541  0.0211 -0.1002
16984W        W32453   3.693   8.183  15.560 -0.3176 -0.0248  0.1665
16985W        W32454  15.459  10.473  11.543 -0.2941  0.0797  0.2562
16986W        W32455  14.542   1.190  13.108 -0.1686  0.0155 -0.1450
16987W        W32456   9.828   2.103  11.930 -0.1831 -0.1461 -0.3329
16988W        W32457  11.553   3.306   2.841 -0.1435  0.0839 -0.2457
16989W        W32458  11.390  17.041   4.155 -0.0302 -0.4462  0.0760
16990W        W32459  12.189  14.636  15.317 -0.0925  0.1287  0.0192
16991W        W32460   9.776   2.125  10.584 -0.0821 -0.0839  0.1905
16992W        W32461   1.575  15.176   3.426 -0.1511  0.1641  0.0307
16993W        W32462   3.946  16.566  12.681 -0.1186  0.2800 -0.0911
16994W        W32463  18.304   1.377   3.118  0.2048  0.2478  0.1429
16995W        W32464  11.878   4.999  15.027 -0.0862 -0.2469 -0.1616
16996W        W32465   4.976   8.446   4.352  0.1946 -0.0953  0.1739
16997W        W32466  10.899   6.480   4.522  0.2329 -0.0772 -0.0447
16998W        W32467  17.429   5.647  14.242  0.2808 -0.0353  0.1552
16999W        W32468   9.238   7.977  14.876 -0.2220 -0.0460  0.0053
17000W        W32469   3.805   4.225   4.701  0.3250 -0.0750 -0.1238
17001W        W32470   4.822  15.246   3.601 -0.0934 -0.1507 -0.0136
17002W        W32471   2.482  18.410   1.857  0.3414 -0.0383  0.0318
17003W        W32472   0.667   5.426   3.059  0.0899 -0.2176  0.0876
17004W        W32473  10.605  17.438  13.396 -0.0339 -0.2362  0.2486
17005W        W32474  12.615  15.792  11.933 -0.1087  0.1992  0.0046
17006W        W32475   8.729  10.368  14.860  0.1402  0.4027  0.1594
17007W        W32476   3.070  14.308  10.337 -0.0021  0.0052 -0.3289
17008W        W32477  18.167  14.778   5.973  0.0202  0.0190 -0.2962
17009W        W32478   8.100   9.975   4.731 -0.1874 -0.0553  0.0355
17010W        W32479  12.914   0.995   2.394 -0.3341 -0.0172  0.1216
17011W        W32480  10.010   0.750   5.786  0.0373 -0.1739 -0.0733
17012W        W32481   5.483   7.376  15.438 -0.0553  0.0734 -0.1581
17013W        W32482  14.389   5.572   4.367  0.1767 -0.5766  0.0264
17014W        W32483  13.055  16.628   4.278  0.0057  0.0993 -0.0328
17015W        W32484   9.559   6.562  12.821  0.0672  0.1351 -0.2928
17016W        W32485   4.947   9.745  12.642  0.0566 -0.1052 -0.2515
17017W        W32486  16.869   5.538  14.347 -0.3880 -0.0226 -0.1361
17018W        W32487   8.340  11.739   4.310 -0.1607 -0.0213  0.1078
17019W        W32488   6.353  13.643   0.259  0.2328  0.2356 -0.0967
17020W        W32489  18.282   6.270  13.641 -0.1110 -0.0309 -0.1357
17021W        W32490  14.845  10.271   4.413 -0.2225 -0.0558 -0.1993
17022W        W32491  12.123  11.701  13.307 -0.1855 -0.0846  0.2117
17023W        W32492  12.629  11.364  15.277  0.4512  0.1201 -0.0683
17024W        W32493   6.139   3.429  15.715 -0.0769  0.3791 -0.0026
17025W        W32494   2.365   5.403   5.219  0.1703  0.1688  0.1889
17026W        W32495   7.547   9.031  15.572 -0.1321  0.1690 -0.0667
17027W        W32496  12.320  11.029  11.751  0.2768  0.0926 -0.0945
17028W        W32497   4.284   9.456  11.902 -0.1890 -0.2579  0.2580
17029W        W32498   7.105  15.975   4.143  0.0996  0.1605  0.2081
17030W        W32499   9.852   8.054   0.377  0.0381  0.1327  0.1176
17031W        W32500   0.149   9.207   2.730  0.2203  0.1587 -0.2086
17032W        W32501  15.695   3.955   0.698 -0.0135 -0.1157  0.2134
17033W        W32502  15.446  10.026   3.329 -0.2852  0.2762  0.0102
17034W        W32503  16.883   5.635  12.832  0.2072  0.0821  0.2306
17035W        W32504  11.017  14.289   0.372 -0.1899  0.0019  0.2321
17036W        W32505   7.294   1.209   5.079  0.1494  0.2829  0.0636
17037W        W32506   1.047   2.209   2.297  0.0264 -0.2443 -0.0746
17038W        W32507  14.045   0.280  13.149  0.1490  0.1170 -0.1573
17039W        W32508  13.163   4.686   2.208 -0.3579  0.0372  0.3773
17040W        W32509  11.413   4.719   5.077 -0.2739 -0.2427  0.2181
17041W        W32510   5.997  10.494  13.937 -0.1318 -0.0063  0.2100
17042W        W32511   9.508  13.394  14.208  0.0104 -0.0460  0.1117
17043W        W32512  16.249   2.367  11.594 -0.1037  0.3240  0.1311
17044W        W32513   7.654   1.566   2.608  0.2542  0.0052  0.2789
17045W        W32514   8.314   1.540  14.141 -0.1149  0.2068 -0.3305
17046W        W32515   2.584   7.062  11.454  0.1302  0.0764  0.3362
17047W        W32516  14.644  16.920  10.412  0.0577 -0.2394 -0.0665
17048W        W32517   6.222  14.413  12.435  0.2680  0.1126  0.1394
17049W        W32518   7.426   9.686   2.236  0.1153  0.2081 -0.0334
17050W        W32519   3.255  18.231   0.696 -0.0959  0.0616 -0.0351
17051W        W32520   9.303  11.636   5.352 -0.1557 -0.1088 -0.2870
17052W        W32521  18.549  10.546  12.760 -0.1096 -0.0062  0.1901
17053W        W32522  18.230   1.455  13.042  0.0069 -0.2876 -0.0146
17054W        W32523   0.094  13.619  11.981 -0.0725  0.1913  0.1327
17055W        W32524  11.624   9.899   4.624  0.1331 -0.2415  0.0182
17056W        W32525  10.914  13.846   4.307  0.1345 -0.2520 -0.1140
17057W        W32526  10.190  13.965   2.494 -0.2824 -0.2994 -0.1789
17058W        W32527  12.631  14.629  14.107 -0.2526 -0.3455 -0.0135
17059W        W32528   5.841   3.813   3.267  0.0972 -0.1073 -0.0952
17060W        W32529  17.132  13.248   3.936  0.1600 -0.0095 -0.3407
17061W        W32530  12.898   1.993   0.025  0.4762  0.2578 -0.2920
17062W        W32531  13.484   8.797   5.959  0.2990 -0.0414  0.2180
17063W        W32532   9.446  14.547  11.606 -0.2371  0.0969  0.3471
17064W        W32533   4.848   8.432   0.099  0.0877 -0.2217 -0.1575
17065W        W32534  13.811   9.619  11.845 -0.3234 -0.1107 -0.4045
17066W        W32535   6.860  16.205  11.778 -0.1987 -0.0568 -0.4392
17067W        W32536  10.226  14.803   2.585  0.0205 -0.2362  0.1167
17068W        W32537  17.431   7.110   2.271  0.1897 -0.1330 -0.0218
17069W        W32538   0.123   5.959  10.563 -0.2150  0.0953 -0.1864
17070W        W32539  17.874   0.061  13.501  0.0080  0.0471  0.3972
17071W        W32540   1.470  17.184   1.311  0.1363  0.0180 -0.1427
17072W        W32541  11.248   4.382   2.015 -0.0895  0.0542  0.1249
17073W        W32542  12.571   5.250   3.360 -0.0939 -0.0784  0.1430
17074W        W32543  15.061  12.808   5.806 -0.2963  0.1469 -0.0930
17075W        W32544   6.164  16.116  13.030  0.3690  0.1019  0.3232
17076W        W32545   9.488   3.972   3.266  0.2309  0.0343 -0.2871
17077W        W32546   1.570  13.950   3.684  0.0423  0.0462  0.1059
17078W        W32547   5.293   0.003  11.191 -0.0361  0.3536  0.0635
17079W        W32548   1.067   3.755   9.880 -0.1473  0.0989  0.2168
17080W        W32549  10.139  14.324  11.535 -0.0239 -0.1756  0.0198
17081W        W32550   0.622   8.343   4.995  0.2975 -0.0706  0.1531
17082W        W32551  17.744   9.659  15.422 -0.1446  0.0527  0.1265
17083W        W32552   1.266   8.360  10.825  0.1900  0.1049  0.1235
17084W        W32553  11.656  10.838  11.057 -0.5058 -0.2334 -0.2317
17085W        W32554   0.729   7.448   3.590 -0.0446 -0.1842  0.1348
17086W        W32555  18.479   5.590  11.429  0.1430  0.0750 -0.2199
17087W        W32556  13.331   7.965  12.650  0.2824 -0.4262  0.2443
17088W        W32557  17.023   8.426   3.808  0.0683  0.2358 -0.2441
17089W        W32558   0.617   0.529   2.267 -0.1375 -0.2715 -0.0837
17090W        W32559  17.401  17.113  14.981 -0.6079  0.0812 -0.3526
17091W        W32560  16.654  14.051  14.517 -0.3710 -0.2453 -0.1949
17092W        W32561   8.217   2.316  15.473 -0.1049  0.2333  0.4337
17093W        W32562   5.788   4.844  11.629 -0.1054 -0.2924 -0.0054
17094W        W32563  11.755   6.827   3.379  0.1343 -0.2363 -0.1326
17095W        W32564   0.168   2.900   2.964  0.0450  0.0164  0.0447
17096W        W32565   3.170  10.032   1.462 -0.1851 -0.1728 -0.1510
17097W        W32566  15.416  15.686   1.599 -0.3147 -0.1338  0.2282
17098W        W32567  10.996  11.566   0.502  0.0400  0.0389 -0.2178
17099W        W32568   3.760   5.509  10.895  0.2931  0.0710 -0.2857
17100W        W32569   5.204  10.955   0.860  0.1303 -0.0699  0.3286
17101W        W32570   1.892  10.900  12.118  0.1167  0.0216 -0.3193
17102W        W32571   8.402  12.204  13.919  0.2876 -0.1821 -0.0470
17103W        W32572  18.559  15.664  14.072 -0.0410  0.0489 -0.1767
17104W        W32573   3.349   4.842   5.184  0.1635 -0.1543  0.2160
17105W        W32574   3.949   4.936  15.350  0.0991  0.1030  0.1741
17106W        W32575   6.623  18.187  11.169  0.0242  0.1043 -0.2384
17107W        W32576   0.979   9.006  15.705 -0.2934  0.0302 -0.1606
17108W        W32577   1.887  17.852   0.199 -0.1395  0.2469  0.1907
17109W        W32578  12.764  16.659   2.442  0.2330 -0.2002  0.1927
17110W        W32579  18.284  14.830   5.281  0.1134 -0.2254  0.0398
17111W        W32580   2.349   5.320   2.229  0.2501 -0.1012  0.1029
17112W        W32581  12.680  10.620   1.626  0.2581 -0.0276  0.0350
17113W        W32582  13.495  14.442  13.717  0.2074 -0.2140 -0.2233
17114W        W32583  17.644  15.239   1.542 -0.0271  0.0048 -0.1492
17115W        W32584  13.529  11.496   1.063 -0.1677  0.0997 -0.2316
17116W        W32585   4.832  18.390   2.177  0.1504  0.1644  0.4168
17117W        W32586   5.013   8.588   0.799 -0.0122 -0.0858  0.1886
17118W        W32587   7.605  14.665   0.970 -0.1824  0.1377 -0.0667
17119W        W32588   1.703  11.056  13.072 -0.0549  0.0987 -0.4991
17120W        W32589  13.039  12.794   3.065  0.1055  0.1354 -0.0389
17121W        W32590   4.314  12.816   3.258  0.1204 -0.1388 -0.0788
17122W        W32591   7.766   7.984   1.455 -0.3169  0.2577  0.2509
17123W        W32592  11.498  16.127  13.617 -0.3221 -0.2814 -0.2143
17124W        W32593  12.017  17.802   0.151  0.3331 -0.0007  0.0935
17125W        W32594   1.659  12.509   4.055  0.1047 -0.3468  0.0246
17126W        W32595  11.605   6.343   2.613  0.0737 -0.0815 -0.1602
17127W        W32596   1.107   5.544  12.746 -0.1033 -0.1632 -0.1053
17128W        W32597   7.774  14.978  13.811  0.1515 -0.0785  0.0281
17129W        W32598   6.135  11.300  15.470 -0.1557  0.0160 -0.0039
17130W        W32599  13.628   8.885  13.279 -0.0166  0.2730 -0.1004
17131W        W32600  14.128   6.412   2.552 -0.2179  0.0749  0.2220
17132W        W32601   2.074   1.305  15.093  0.2248 -0.1970  0.0709
17133W        W32602   7.568  11.277   1.970 -0.4060 -0.0905  0.0934
17134W        W32603   6.815  13.586   1.686  0.0574 -0.3185 -0.0136
17135W        W32604   0.413   6.867  10.258  0.1220  0.2972  0.0711
17136W        W32605   7.827   4.151   2.837 -0.0635  0.2003 -0.2475
17137W        W32606   0.281  11.204   4.361 -0.0803  0.2576 -0.0682
17138W        W32607  15.174   8.692  11.948 -0.3457  0.1792 -0.0621
17139W        W32608  18.226   8.950  15.547 -0.3227  0.4716 -0.0302
17140W        W32609   4.932   7.201  10.629 -0.0474 -0.0163 -0.3212
17141W        W32610   6.655   7.696   0.807  0.0838  0.3007  0.0405
17142W        W32611  10.752   4.086  14.806  0.1000 -0.0224  0.1966
17143W        W32612  15.905   6.573   3.392  0.2362 -0.1851  0.0126
17144W        W32613   8.568   0.483  10.906  0.3789  0.2218  0.3418
17145W        W32614   0.689  13.664  14.146 -0.0092 -0.1717  0.2222
17146W        W32615  11.317   2.839   3.340  0.0533  0.0889  0.2977
17147W        W32616  15.063  17.365  15.624  0.0219 -0.4663  0.2712
17148W        W32617  13.508   3.953   0.907  0.4926 -0.2513  0.2585
17149W        W32618   5.321   8.327   4.987  0.1907 -0.1496  0.0736
17150W        W32619   0.614  11.556  12.085  0.0761 -0.3102 -0.1370
17151W        W32620   4.564  10.208  14.609 -0.0724  0.1970 -0.3021
17152W        W32621   0.784  14.625  15.128  0.0846  0.0229 -0.0337
17153W        W32622  16.385   0.939  14.122 -0.1565 -0.3165 -0.2995
17154W        W32623   5.801  14.681   4.760 -0.1325  0.4860  0.2074
17155W        W32624   1.534   8.231   0.907 -0.1531 -0.1365  0.0137
17156W        W32625   7.243   8.675   0.674  0.3013  0.1484  0.2782
17157W        W32626  15.669  16.406   1.883 -0.0935  0.2340 -0.1727
17158W        W32627   9.648   4.751   1.753 -0.1497 -0.0019 -0.0076
17159W        W32628   7.928  10.744   0.536 -0.0631  0.1581  0.0139
17160W        W32629   8.764   4.716   3.892  0.0227 -0.0897  0.2797
17161W        W32630   4.277   8.130   1.311 -0.3251  0.0899 -0.1194
17162W        W32631   0.498   7.155   2.076  0.0241 -0.2428 -0.1153
17163W        W32632   6.861   2.344   3.653  0.1270 -0.1651  0.2199
17164W        W32633  13.352  17.894   4.993 -0.1007  0.0129  0.2835
17165W        W32634  18.307   1.528  15.173  0.1259  0.0036  0.2695
17166W        W32635  14.016   8.262  14.558 -0.1097 -0.0929 -0.1565
17167W        W32636  18.210  12.898   5.425 -0.1973  0.1002  0.1529
17168W        W32637   4.153   2.962  13.583 -0.0850  0.3468  0.2280
17169W        W32638   7.554   2.064  14.304 -0.1220  0.1325 -0.0381
17170W        W32639   4.575  18.546  11.815  0.1994  0.3919 -0.0019
17171W        W32640   9.699  14.530  13.506  0.0534  0.0430 -0.1743
17172W        W32641   6.240   7.076   3.596 -0.1175  0.1197 -0.1832
17173W        W32642  11.342   1.428   4.621  0.0956  0.4453 -0.2643
17174W        W32643   9.259  15.112   3.913 -0.1310 -0.2920  0.1846
17175W        W32644   9.987   3.315  12.446  0.2030  0.1675  0.2722
17176W        W32645   4.683  14.491   3.118  0.0093  0.0710 -0.2045
17177W        W32646   2.447   5.818   2.464 -0.3630 -0.0753  0.1921
17178W        W32647  13.044   6.187  13.197 -0.0269 -0.0791  0.0228
17179W        W32648   0.740   7.065  12.025  0.0719 -0.4096  0.1467
17180W        W32649   8.908   6.427  11.767 -0.0580 -0.2748 -0.0155
17181W        W32650   9.927  15.328  13.076 -0.0217  0.0412 -0.0853
17182W        W32651  13.233   6.771   3.254  0.0781 -0.0701 -0.0275
17183W        W32652   8.197   7.963  15.485 -0.0551  0.1470 -0.4811
17184W        W32653   5.014  17.072  14.298  0.0026  0.2458  0.1316
17185W        W32654   4.675  12.469  11.233 -0.2428 -0.2317 -0.1911
17186W        W32655  18.100  11.969  10.581 -0.1793  0.0553 -0.1108
17187W        W32656   6.859   9.166   0.578  0.0394 -0.1252 -0.2644
17188W        W32657   1.775   5.842  13.422 -0.0123 -0.0138 -0.0896
17189W        W32658  11.785  14.783   0.411 -0.0333  0.0031  0.0096
17190W        W32659  16.471   1.043   1.463  0.3815  0.1951  0.0226
17191W        W32660  12.833  13.131   3.827  0.0996 -0.1870  0.0269
17192W        W32661   9.085   6.281   0.727  0.2051 -0.1507 -0.2665
17193W        W32662   6.748   2.801   2.530 -0.0608 -0.0689  0.1659
17194W        W32663  15.271   9.976   1.932  0.1977  0.0305 -0.1753
17195W        W32664  11.729  14.658   6.162  0.1257 -0.3538 -0.1400
17196W        W32665   8.804  16.369  15.066  0.1051  0.2751 -0.0347
17197W        W32666   4.771   0.972   1.939  0.0305  0.0287 -0.0370
17198W        W32667  12.849   0.620   2.813 -0.5122  0.2268  0.2368
17199W        W32668  17.727   3.066   5.022 -0.4701 -0.0206 -0.0899
17200W        W32669  14.624  14.499   2.923 -0.2253  0.0813 -0.1289
17201W        W32670  14.412   7.610   1.978 -0.3343 -0.1361  0.2345
17202W        W32671  17.919  14.490  15.102  0.0033 -0.0453 -0.2468
17203W        W32672   5.353   4.458  14.044 -0.0393 -0.0264 -0.0395
17204W        W32673   2.114  13.830  13.281  0.1556 -0.0477  0.0749
17205W        W32674  18.284  13.626   2.979  0.2735 -0.1473 -0.1613
17206W        W32675  11.685   6.098   3.978 -0.0676  0.0064  0.1385
17207W        W32676  13.531   3.293  12.360 -0.3291 -0.1218 -0.1950
17208W        W32677  14.386   0.172   4.314 -0.0899 -0.1261 -0.0646
17209W        W32678   6.986  18.659   0.737 -0.3453 -0.3039 -0.0976
17210W        W32679  18.523   6.934  14.353 -0.0975 -0.0579  0.1363
17211W        W32680   9.868  15.128  12.595  0.0789 -0.1507  0.1183
17212W        W32681  10.147   0.712   3.565 -0.2439 -0.1008 -0.2038
17213W        W32682   5.312  14.470   1.373  0.0322  0.1510 -0.2454
17214W        W32683  15.497  13.883  13.580  0.3668  0.1573  0.0229
17215W        W32684   4.140  16.105  10.403  0.1047 -0.0668  0.0128
17216W        W32685   3.423  18.450  14.147 -0.1473 -0.1426 -0.2011
17217W        W32686   5.759  16.070   3.666  0.1959 -0.0256 -0.1289
17218W        W32687   8.537   3.864  14.261 -0.1717 -0.0167  0.0890
17219W        W32688  16.260   3.273   2.342 -0.2251 -0.1141  0.2159
17220W        W32689   6.002   6.639   1.685  0.3218  0.1873  0.1159
17221W        W32690  12.837   5.655   0.398  0.1490 -0.0290 -0.3176
17222W        W32691  15.712  12.711  11.503  0.4235  0.1136 -0.2190
17223W        W32692  17.686   8.431  15.034  0.1663  0.3014  0.2770
17224W        W32693   9.515  16.885  13.939  0.0654  0.3005  0.1090
17225W        W32694  12.316  12.282  10.453  0.3498 -0.1187  0.5312
17226W        W32695  12.672  16.929  11.630  0.0689  0.1720  0.0471
17227W        W32696  13.913  14.588  15.089 -0.1341 -0.1062 -0.0866
17228W        W32697  14.834   4.937  12.097  0.0224  0.1802 -0.1362
17229W        W32698   9.309  12.347   5.057 -0.0585 -0.0117 -0.0427
17230W        W32699  11.481   2.044   0.825  0.0246  0.0782  0.0026
17231W        W32700   3.700   1.378  11.613 -0.0402  0.0949 -0.0999
17232W        W32701   0.987   6.891  11.619 -0.2174 -0.1228  0.1482
17233W        W32702  18.680   4.764  14.260 -0.2044  0.0340  0.2932
17234W        W32703   7.633   2.713  10.765 -0.1085 -0.1279  0.0390
17235W        W32704  12.641  16.222  12.911 -0.2054  0.2457 -0.0279
17236W        W32705  10.007  18.610   2.105 -0.0830 -0.1156  0.2031
17237W        W32706  18.195  16.230   5.400  0.4187  0.2219  0.0872
17238W        W32707   9.292  13.877   2.755  0.0202 -0.1916  0.0772
17239W        W32708  11.035   6.050  11.006 -0.1023  0.0855 -0.2428
17240W        W32709  10.150   3.698  14.422  0.0908 -0.0492 -0.2309
17241W        W32710  10.061  11.469   3.804  0.0542 -0.1020 -0.1907
17242W        W32711   3.034   8.854  12.064 -0.0949  0.1478  0.0160
17243W        W32712   6.004   2.554  14.633 -0.0655 -0.0632  0.2098
17244W        W32713  17.527   4.522   3.855 -0.2276 -0.2296  0.2454
17245W        W32714   4.006   7.685   0.740 -0.1220 -0.2606  0.1742
17246W        W32715  11.754  18.390   4.757  0.1651 -0.0738 -0.0895
17247W        W32716  13.964   8.666   5.772  0.0742 -0.2875  0.5016
17248W        W32717   7.257   5.018  12.746  0.1230  0.1351 -0.2449
17249W        W32718  12.010   0.535  13.585  0.1308 -0.3987 -0.2649
17250W        W32719   6.770   2.220   9.428  0.3312 -0.0944  0.1420
17251W        W32720  14.559   1.297  11.204  0.1116 -0.0488 -0.1404
17252W        W32721   9.925  13.791  15.589  0.1679 -0.2053  0.1264
17253W        W32722  10.053   6.297  11.628  0.0264 -0.0254 -0.0608
17254W        W32723   6.354  17.223  14.735 -0.0639 -0.0484 -0.0512
17255W        W32724  16.066  13.893   3.204 -0.0382  0.1222  0.1030
17256W        W32725  11.988  13.010   0.178 -0.1661 -0.1083  0.2118
17257W        W32726  15.609  11.130   5.163  0.1960  0.0272  0.5420
17258W        W32727  18.144   7.363  10.095 -0.0767 -0.1863 -0.0885
17259W        W32728  17.367  15.855  11.314  0.0651  0.1234 -0.2129
17260W        W32729   0.064  10.583  10.814 -0.0481  0.4559 -0.1055
17261W        W32730   5.063   6.595  14.354  0.0958  0.1061 -0.2516
17262W        W32731   3.535   4.920   4.146  0.0111  0.1163 -0.0959
17263W        W32732   9.090  11.385  15.313 -0.0277 -0.3470  0.0203
17264W        W32733   4.044  15.753  13.652 -0.1138 -0.0008  0.1386
17265W        W32734   6.206  14.592  15.233 -0.0235 -0.2260 -0.1699
17266W        W32735   7.468  11.210  13.611  0.0640  0.0664  0.0844
17267W        W32736  14.858   4.256  13.452  0.0292  0.1394  0.0600
17268W        W32737   3.849   4.616   4.408 -0.0326 -0.1697  0.1415
17269W        W32738   2.893   8.301   2.995  0.1176 -0.0339 -0.0747
17270W        W32739   2.851   4.271  14.020  0.1022  0.1016  0.3487
17271W        W32740   2.302  16.676  13.252  0.0380 -0.1933  0.0650
17272W        W32741  18.013  10.377  13.432 -0.1699 -0.2935  0.1484
17273W        W32742  16.677   9.790  15.700 -0.0627  0.0545 -0.1540
17274W        W32743   8.121   9.553  14.582  0.0091  0.0416 -0.1162
17275W        W32744   4.911  10.557   5.887 -0.0292  0.1842  0.0659
17276W        W32745  15.644  12.173   4.223  0.0048 -0.6378 -0.1345
17277W        W32746  14.637   0.234   1.560 -0.2064 -0.0699 -0.1171
17278W        W32747  12.087  13.908   2.050  0.1458 -0.1761 -0.1571
17279W        W32748   1.255   1.844  12.058 -0.2780 -0.1125 -0.1749
17280W        W32749   5.819  15.250   2.360  0.1204 -0.1493  0.2638
17281W        W32750  17.054  10.717   0.842  0.1474  0.3160 -0.2701
17282W        W32751   9.811   1.935  12.552  0.2366 -0.1321 -0.0111
17283W        W32752  11.179   4.197   4.445  0.0824  0.1623  0.0433
17284W        W32753  11.494   9.424   3.836 -0.0502  0.0901  0.0648
17285W        W32754   0.452   3.493   1.416 -0.0596 -0.3012  0.0757
17286W        W32755  14.527  12.563  12.953  0.1513  0.0285 -0.1420
17287W        W32756   4.269   1.741  12.836  0.0285  0.0332  0.3663
17288W        W32757   2.820  12.807  13.688  0.1195  0.0531  0.1839
17289W        W32758  14.952   1.116  13.581 -0.3348  0.0077 -0.0863
17290W        W32759   7.866  18.201  11.131 -0.3718 -0.1805  0.1407
17291W        W32760   7.257   7.624   3.187  0.0312 -0.0403 -0.0135
17292W        W32761  18.489   4.659  13.184  0.1749  0.2120 -0.0027
17293W        W32762  15.055   8.264  15.241  0.2279  0.0672  0.0505
17294W        W32763  14.276   4.385  11.618 -0.0575 -0.2728 -0.0259
17295W        W32764   9.130  15.428  11.466  0.2096  0.0822 -0.2662
17296W        W32765   3.067  14.549  12.374  0.0255  0.0054 -0.0187
17297W        W32766   4.658   5.147   2.390  0.1260 -0.1991  0.0495
17298W        W32767   9.566  15.683  13.115 -0.1015 -0.2684  0.0867
17299W        W32768  15.097  15.583   5.303 -0.1680  0.1874 -0.0890
17300W        W32769   2.865  18.670   3.286 -0.0179  0.1881 -0.2379
17301W        W32770  15.041   1.829   0.546 -0.1988 -0.1897 -0.0631
17302W        W32771   8.413  11.752  14.091  0.1856 -0.1971  0.0419
17303W        W32772  14.254   9.903  11.860 -0.2229 -0.1262  0.1491
17304W        W32773  13.317  16.528   2.423  0.0834 -0.1896  0.0377
17305W        W32774   4.055  11.117   3.693  0.2098  0.0319 -0.0981
17306W        W32775   2.228   1.288   4.710 -0.0416  0.2148  0.0965
17307W        W32776   0.475  14.271  12.614  0.1365 -0.2911 -0.1966
17308W        W32777   7.382  15.556  12.260 -0.2605  0.2251  0.0276
17309W        W32778   7.064   5.233  15.435 -0.3103 -0.1855 -0.1430
17310W        W32779   9.727   8.670   1.910 -0.0815 -0.4251  0.1684
17311W        W32780  15.161   4.593   4.496  0.2100  0.0032 -0.0063
17312W        W32781  18.674  11.979   1.357  0.2002 -0.0727  0.0817
17313W        W32782  11.994  16.556   1.841  0.0686  0.0374 -0.1429
17314W        W32783  15.020  11.083  14.508  0.0569 -0.1593 -0.1793
17315W        W32784   2.332   3.520  15.418  0.0819  0.1952 -0.5783
17316W        W32785   5.799   5.594   3.024  0.0746 -0.0127 -0.0505
17317W        W32786   2.217  12.696   2.224 -0.0101  0.0719  0.0196
17318W        W32787  16.567  17.562   4.577 -0.0632 -0.1783  0.0161
17319W        W32788   3.417   3.927   3.840  0.3865 -0.3048 -0.1435
17320W        W32789  12.424   3.108  14.988  0.1163  0.0614  0.0484
17321W        W32790   3.387   9.101  15.429  0.0727 -0.0139  0.1998
17322W        W32791  15.155   3.342  13.200  0.1322 -0.4329  0.1268
17323W        W32792  16.363   3.639  14.635  0.0057 -0.1164  0.0445
17324W        W32793   2.410   2.956   2.817  0.0878  0.0414  0.1036
17325W        W32794   9.211  12.884   0.578 -0.2037 -0.0594  0.0744
17326W        W32795  12.864  15.615   1.558 -0.3548 -0.2075  0.1354
17327W        W32796  15.831   0.973  11.728  0.1653 -0.1563  0.0905
17328W        W32797   8.435  14.023   3.429  0.1266  0.1559  0.0580
17329W        W32798   5.834   2.231  11.694  0.1278 -0.0559  0.2783
17330W        W32799   4.229  16.933   1.934  0.0099 -0.0933 -0.3014
17331W        W32800   6.090   8.577  11.625  0.0666  0.2420  0.2706
17332W        W32801   1.200   2.319   1.753  0.1779  0.0843 -0.1431
17333W        W32802   8.677   1.755   2.085  0.1596 -0.1055 -0.2069
17334W        W32803   9.858  18.079  13.305  0.0923  0.0335 -0.0718
17335W        W32804  11.018   6.545  14.355 -0.1589 -0.1479 -0.1152
17336W        W32805   3.494   2.086  10.980  0.1553 -0.0017 -0.0415
17337W        W32806   7.047  12.380  12.742  0.1960  0.0018  0.0770
17338W        W32807   0.983  14.715  10.581  0.0725 -0.0159  0.2996
17339W        W32808   5.115  13.414  12.748  0.0491 -0.2842  0.0734
17340W        W32809  14.098   0.533  15.461 -0.2130 -0.2188  0.2097
17341W        W32810  17.513  17.467  12.189 -0.1711 -0.2274 -0.0705
17342W        W32811   0.355   2.443   5.412 -0.0374 -0.1026 -0.1281
17343W        W32812  18.202   7.496   4.675  0.0128  0.1083 -0.0750
17344W        W32813   7.236  17.433  12.165  0.1525 -0.3226 -0.2996
17345W        W32814   7.623   2.387   0.443 -0.5689 -0.0514 -0.1109
17346W        W32815  11.592   2.464   4.078 -0.2938 -0.1164 -0.2727
17347W        W32816   0.193   2.709  12.632 -0.0133  0.2228 -0.2197
17348W        W32817  14.911   5.517   3.729 -0.2351  0.1563  0.3118
17349W        W32818  13.409  14.589   2.980  0.1738  0.2320 -0.0733
17350W        W32819   0.829   8.359  13.833  0.3159 -0.1365  0.0046
17351W        W32820  16.899  16.653  12.457  0.2773  0.3823  0.2639
17352W        W32821   4.803   7.859  15.070  0.1973 -0.1687 -0.1121
17353W        W32822  15.982  14.504   2.944 -0.1201 -0.2130 -0.2550
17354W        W32823  16.914  14.403   2.384 -0.2182 -0.2364  0.1356
17355W        W32824   3.320  18.033  11.640 -0.0465  0.0080  0.0322
17356W        W32825   3.507  11.231   5.232  0.3214 -0.2191  0.0724
17357W        W32826  12.665   8.400   0.239  0.2851  0.2372 -0.2531
17358W        W32827  17.904  14.382   1.747  0.0618 -0.2080  0.1194
17359W        W32828  11.165   0.249   3.807 -0.0159  0.0463 -0.1194
17360W        W32829   2.305   9.934   3.148  0.2177  0.0376  0.1632
17361W        W32830   8.346  14.450  13.311 -0.0702  0.1257 -0.1439
17362W        W32831  17.510   0.461  11.201  0.2263 -0.2372  0.2630
17363W        W32832  12.985  13.037   0.053 -0.0276  0.1774  0.1248
17364W        W32833   7.982   9.865   0.715 -0.0191 -0.0449 -0.1303
17365W        W32834  15.035   3.487  11.022 -0.0154  0.3137 -0.1321
17366W        W32835  11.807  12.887  11.327 -0.1514 -0.1842 -0.2372
17367W        W32836   7.816   7.376   0.048 -0.0986  0.1659  0.2829
17368W        W32837  14.708  11.382   3.580  0.1397 -0.3215  0.1489
17369W        W32838   8.825  14.475  12.651  0.0674  0.0976  0.0095
17370W        W32839   5.905   7.854   3.802 -0.1167 -0.1981 -0.1167
17371W        W32840  13.024  18.312  13.170 -0.2218  0.3666  0.1201
17372W        W32841   7.850  10.659   3.763 -0.0868 -0.1610 -0.1103
17373W        W32842   8.902  10.458  10.831 -0.1636  0.1106  0.0007
17374W        W32843  10.625   1.133   4.408  0.2317  0.0972 -0.1143
17375W        W32844   5.694   6.045  14.724  0.2028  0.0421  0.0676
17376W        W32845  16.975  16.909  11.572 -0.0477  0.0870  0.1723
17377W        W32846   1.780   1.791  14.144 -0.0539  0.1698 -0.1449
17378W        W32847  12.679  15.449   0.418  0.0718 -0.1111 -0.0801
17379W        W32848   2.695   0.377  13.637  0.3007  0.0499 -0.0183
17380W        W32849  15.252   8.706   5.360 -0.5686  0.1386 -0.0408
17381W        W32850   8.423  14.267  12.797  0.1827 -0.3640 -0.0288
17382W        W32851   4.163   1.603   0.039  0.0865  0.2993 -0.0160
17383W        W32852   2.466  14.653   5.094 -0.0807 -0.1474 -0.3101
17384W        W32853   1.080   5.925   1.875  0.0590 -0.0182 -0.1025
17385W        W32854  13.828  17.318   5.583 -0.2732  0.3090  0.2751
17386W        W32855  18.040  17.008  11.492 -0.0408 -0.2275 -0.0904
17387W        W32856  11.840   6.541  14.894  0.0597 -0.2790 -0.1935
17388W        W32857   3.446   4.622  10.873 -0.1106 -0.0865  0.5452
17389W        W32858  16.829   5.549   4.538  0.1901 -0.0008  0.0990
17390W        W32859   1.432   6.859   5.617  0.3763 -0.2744  0.1892
17391W        W32860   2.384  16.689   0.656  0.0126  0.0444 -0.2619
17392W        W32861  11.163   3.690  13.664  0.0821  0.0768  0.3389
17393W        W32862  10.195   4.898  14.249  0.1137  0.2336  0.2955
17394W        W32863   7.923  15.056   4.949  0.0755  0.0628  0.2657
17395W        W32864  15.898  11.132  14.057 -0.2070  0.0274 -0.1329
17396W        W32865  10.401  11.978  12.938 -0.0836 -0.2277 -0.0156
17397W        W32866   7.427   6.451  14.989 -0.1582 -0.2818  0.0151
17398W        W32867  11.270   4.975  13.096 -0.1222  0.2742  0.0689
17399W        W32868  16.196   4.519  14.107  0.3975  0.0455 -0.3696
17400W        W32869  18.213  11.190  14.525  0.1710  0.1952 -0.1180
17401W        W32870   2.112   7.584   2.964  0.1087  0.0211  0.2581
17402W        W32871  12.084  10.711  12.294 -0.0810 -0.2916 -0.2969
17403W        W32872   9.494  17.969  14.566 -0.1019 -0.1577 -0.1059
17404W        W32873  13.674  17.507  13.671 -0.2800 -0.1031  0.2535
17405W        W32874   2.706   0.593  10.344 -0.0440 -0.0612  0.2409
17406W        W32875  13.919   5.424  10.694  0.1755 -0.0958  0.1108
17407W        W32876   2.853   6.538  15.035 -0.1918  0.2963 -0.0034
17408W        W32877   8.780   6.395  15.752 -0.1541  0.1572 -0.1342
17409W        W32878  16.430  10.747   2.181  0.4436 -0.1105  0.2105
17410W        W32879  16.582  13.778   4.162 -0.0139  0.0870 -0.0258
17411W        W32880  12.705   1.210   4.121  0.3904 -0.1844 -0.1877
17412W        W32881  13.635  17.274  10.790 -0.1127  0.4236  0.3880
17413W        W32882   8.318  10.301   3.498  0.5518  0.0684  0.0716
17414W        W32883  11.349  17.267   1.281  0.2988  0.2525  0.1588
17415W        W32884   6.726   6.094   4.933 -0.0065 -0.0021  0.0848
17416W        W32885   9.401  14.303   0.981  0.0887 -0.2976 -0.1347
17417W        W32886  17.731   2.460   4.569 -0.0805  0.0318 -0.1055
17418W        W32887  10.736   7.922   4.761  0.0520 -0.0286  0.0833
17419W        W32888   1.173  13.750  14.016 -0.0672  0.4469  0.2551
17420W        W32889  14.369   0.774  14.626 -0.2709 -0.0529 -0.1175
17421W        W32890   8.188   2.797  10.741  0.0433 -0.3569 -0.2644
17422W        W32891   2.247  18.270   1.409 -0.0572  0.1695 -0.1317
17423W        W32892  10.029   4.251  11.437  0.1402  0.2618  0.2092
17424W        W32893  12.044   4.094   1.015 -0.0114  0.0925  0.0072
17425W        W32894   4.877  11.101  15.677  0.1843 -0.0465  0.1657
17426W        W32895  16.795   3.554   0.921 -0.1426  0.0019 -0.0758
17427W        W32896   9.030   2.217   2.706 -0.1903  0.3008 -0.1792
17428W        W32897   6.684  10.361  13.255  0.5394 -0.1566 -0.0458
17429W        W32898  10.781  16.634   1.108  0.0788  0.0555 -0.1671
17430W        W32899  14.298   3.478  14.732  0.0207 -0.0358 -0.2176
17431W        W32900  15.149   5.444   2.561 -0.0260  0.4126  0.1864
17432W        W32901  16.253  10.844  15.064 -0.2258  0.0556 -0.0759
17433W        W32902  13.905  16.811  15.191  0.2193  0.1791  0.2329
17434W        W32903  11.956  13.811  13.234 -0.0275  0.4066 -0.1326
17435W        W32904  12.681  14.693  10.840 -0.2294  0.2178  0.0231
17436W        W32905  13.960   4.818  12.584 -0.3953 -0.2391 -0.2050
17437W        W32906   1.643   5.958   4.904  0.1597 -0.0533 -0.0269
17438W        W32907   0.842  11.599   1.428 -0.2886 -0.1021  0.2352
17439W        W32908  13.648   1.565  11.166 -0.0769 -0.1392 -0.1034
17440W        W32909  15.210   0.070  15.758  0.2602  0.1867 -0.0320
17441W        W32910   5.732   9.524  12.044  0.3257 -0.0137 -0.0413
17442W        W32911   1.998   4.789   4.047 -0.0402 -0.0459 -0.1993
17443W        W32912   8.594   1.417  12.288 -0.1738 -0.2562 -0.2702
17444W        W32913  15.099  11.042   5.075  0.1211  0.0879  0.2686
17445W        W32914   2.273  10.380   4.259 -0.0779 -0.0620 -0.0807
17446W        W32915   8.631   5.185  12.269 -0.4166  0.0082  0.0709
17447W        W32916   5.852   8.873   0.685  0.0480 -0.2871 -0.0739
17448W        W32917   6.552   8.852   5.442  0.0378 -0.2598 -0.1651
17449W        W32918  12.261  11.134  10.897  0.0220  0.0669  0.0436
17450W        W32919   4.978  12.940   4.714  0.1171 -0.0709  0.2092
17451W        W32920   0.230  10.986   3.006  0.0355 -0.2633 -0.1065
17452W        W32921   8.447   5.934   1.627 -0.1132  0.3325  0.2890
17453W        W32922  15.340   5.818  15.095  0.1039 -0.3687  0.0325
17454W        W32923   1.057  10.274  15.774  0.0725  0.0094  0.0970
17455W        W32924   1.511  16.093   0.530 -0.0985 -0.0074 -0.2914
17456W        W32925   2.925   6.071   5.348  0.0445  0.2808  0.0449
17457W        W32926   4.076   9.101   2.539  0.0857  0.1192 -0.3615
17458W        W32927   2.696   1.182   4.547 -0.2498  0.1652  0.0154
17459W        W32928   7.368   9.563   4.158  0.4148  0.2445 -0.0597
17460W        W32929   9.318  12.640   4.143  0.0214  0.0485  0.0161
17461W        W32930   9.704   2.487   6.190 -0.0165 -0.0267  0.0251
17462W        W32931   1.191   2.186  11.138  0.0140 -0.0060 -0.2377
17463W        W32932  15.756   9.463   9.557  0.1315  0.2140  0.5431
17464W        W32933   3.184   2.755   4.378 -0.2620  0.0512 -0.2145
17465W        W32934  14.848  17.347  10.648 -0.1076 -0.1397 -0.1513
17466W        W32935   4.650   2.954  10.102 -0.1959 -0.2118 -0.1485
17467W        W32936  17.902  18.310   3.354 -0.3879  0.4765 -0.4743
17468W        W32937   5.217   4.785   4.374 -0.2184  0.5259  0.0801
17469W        W32938   1.056   3.356  15.307 -0.0330  0.2098  0.2669
17470W        W32939  14.818  11.553   5.587  0.3023  0.2485  0.1520
17471W        W32940  13.069  17.488   0.426 -0.3666  0.0827  0.1363
17472W        W32941   8.700  13.521   5.318 -0.2518  0.3068  0.1283
17473W        W32942   0.724   0.907   2.820 -0.2223  0.2659 -0.0331
17474W        W32943   7.736   8.186  12.412 -0.0754 -0.0465  0.2401
17475W        W32944   5.722   3.531  12.655 -0.0008 -0.1949 -0.1163
17476W        W32945  18.029   4.032   2.915  0.2332  0.0628 -0.1896
17477W        W32946  15.149   3.591   5.352  0.2298  0.2294 -0.2241
17478W        W32947   2.365  11.014   0.776 -0.2266  0.1069  0.3550
17479W        W32948   8.140   5.369   1.390 -0.0717 -0.0904 -0.1242
17480W        W32949  13.691   8.260  12.772  0.1364  0.2141  0.1199
17481W        W32950  17.326  14.520  15.334 -0.2300  0.0395 -0.0242
17482W        W32951  15.823   3.998   3.500  0.0174  0.0760 -0.4131
17483W        W32952   0.370   5.843   3.958  0.0890  0.1978  0.0304
17484W        W32953  12.397   9.710  14.530  0.0600 -0.0964 -0.1837
17485W        W32954   9.925   5.382  11.127 -0.4989 -0.1407  0.1351
17486W        W32955   1.582   6.230  14.128 -0.0439 -0.3433  0.3219
17487W        W32956  12.603  16.388   0.643 -0.2313  0.2753  0.4063
17488W        W32957   5.732  11.236  13.496  0.0816  0.1664 -0.0847
17489W        W32958   1.066  13.391  14.317  0.0640 -0.1021  0.1797
17490W        W32959  12.616   0.320  14.710 -0.0522 -0.2752  0.0905
17491W        W32960   4.518   8.283  14.991 -0.1024 -0.0870 -0.3705
17492W        W32961  17.074   6.673   3.759  0.0369 -0.1211 -0.3289
17493W        W32962   1.275  13.097   3.412 -0.0950 -0.0393 -0.1480
17494W        W32963   8.705  17.039  11.903  0.0078 -0.1701 -0.2832
17495W        W32964   2.951  12.048   3.622  0.2997 -0.2671  0.3491
17496W        W32965  18.417  16.201   4.133 -0.0904 -0.3236 -0.0547
17497W        W32966  15.721  13.819  11.486 -0.0368  0.0617  0.3803
17498W        W32967  14.066  18.122  10.557  0.0716 -0.0056 -0.2045
17499W        W32968  11.874   0.920  10.422  0.1384 -0.5323  0.0105
17500W        W32969   6.297  10.359   2.574 -0.2431  0.0621  0.2321
17501W        W32970  16.102  17.748   3.484 -0.4936 -0.0565 -0.4771
17502W        W32971   1.603   9.998   2.220  0.2952  0.2819 -0.1137
17503W        W32972   9.613   7.494  10.942  0.1775  0.1269  0.0987
17504W        W32973  11.933  10.355   5.816 -0.1437  0.0062 -0.1470
17505W        W32974  13.252  18.040   0.629 -0.1173 -0.0253  0.1664
17506W        W32975  15.338   3.499  12.719  0.0240  0.2122  0.1906
17507W        W32976  17.887   1.705   3.170 -0.2976 -0.2581 -0.3594
17508W        W32977   6.385   1.609   4.563 -0.2286  0.2292  0.0255
17509W        W32978  15.690   7.753  13.738  0.0122  0.0404  0.0490
17510W        W32979  13.701   7.231   5.040 -0.3995 -0.0405 -0.0695
17511W        W32980  14.179  10.170  12.278  0.0388  0.4021  0.0403
17512W        W32981   7.992  14.599  10.176  0.1145  0.4744 -0.0576
17513W        W32982   0.565   9.322  11.579  0.1772 -0.0868 -0.2762
17514W        W32983   0.186   1.402  14.007 -0.0256 -0.3254 -0.0804
17515W        W32984  10.071   8.132   3.149 -0.1068 -0.0120  0.3825
17516W        W32985  10.754  13.085  12.992  0.1402 -0.0968  0.2160
17517W        W32986  10.482  11.440  12.933 -0.1918  0.0206  0.0440
17518W        W32987  13.004  15.646   3.005 -0.0807  0.0200  0.1233
17519W        W32988   0.383  14.253  11.085 -0.0725 -0.4753 -0.0865
17520W        W32989  12.881   8.099   3.113 -0.2582 -0.3076 -0.1092
17521W        W32990   7.745   5.068  10.335  0.3161 -0.2409  0.1935
17522W        W32991   9.934  13.949  13.657  0.3626  0.0343 -0.2824
17523W        W32992  12.441   9.634   0.011 -0.2461 -0.0133  0.1576
17524W        W32993  16.778   3.304  13.867 -0.1986  0.1781  0.1202
17525W        W32994  14.530  17.818  13.476 -0.2456 -0.2974 -0.1063
17526W        W32995   4.924   8.038   2.917 -0.1951 -0.1042 -0.0154
17527W        W32996  14.342  14.073  14.902 -0.2375 -0.1977  0.2299
17528W        W32997  15.053   1.995  14.945 -0.1220 -0.1508 -0.1086
17529W        W32998  17.529   4.657   2.696 -0.0531 -0.0534  0.0803
17530W        W32999  17.413  12.190   1.918 -0.0000 -0.0859  0.0292
17531W        W33000   7.086  18.573  12.948 -0.1340  0.1744  0.2479
17532W        W33001  17.978   3.525  11.483  0.3463  0.0930 -0.3055
17533W        W33002   2.911  10.357  10.928 -0.3246  0.1518  0.1015
17534W        W33003   3.628  11.750  11.289 -0.4922  0.2665  0.2561
17535W        W33004   5.310   5.570   2.804  0.2992 -0.1569  0.1639
17536W        W33005   3.805   5.668  12.869 -0.3078  0.3803 -0.1926
17537W        W33006   0.743   2.425  13.428  0.1545 -0.3846  0.0682
17538W        W33007  17.927  11.821   2.020 -0.3230  0.0884  0.0902
17539W        W33008  17.882  15.379  12.781 -0.0013  0.1830 -0.0487
17540W        W33009   2.037  11.717   2.936 -0.1057  0.0478 -0.4304
17541W        W33010   0.603  10.501   0.217 -0.0163  0.2302  0.1693
17542W        W33011   9.015  14.228   0.036  0.2434  0.1247  0.0848
17543W        W33012  15.870   9.024   0.823  0.0598 -0.0079  0.4514
17544W        W33013   2.717  13.160  13.252  0.0691  0.0226  0.2435
17545W        W33014   9.457  14.978  13.784 -0.0754 -0.0947  0.4100
17546W        W33015   7.485  12.212   0.641 -0.1620 -0.0581  0.2067
17547W        W33016  12.083  13.289  15.122  0.2614  0.0060  0.0953
17548W        W33017   0.569  14.683  15.603 -0.1128 -0.2009  0.1564
17549W        W33018  15.478   4.548  10.679  0.0723 -0.1910 -0.1923
17550W        W33019  14.407  17.354   0.556 -0.1175  0.4587 -0.0850
17551W        W33020   8.676  15.911  14.700 -0.2938  0.0884 -0.0778
17552W        W33021  12.225  14.393   3.482  0.0822  0.5276  0.0055
17553W        W33022   3.868   4.718   4.925 -0.1035 -0.2613  0.1203
17554W        W33023  17.957   2.594  15.521  0.0541  0.2082 -0.0188
17555W        W33024  18.030   9.176   5.290  0.0210 -0.1356  0.1145
17556W        W33025   6.527   4.936  12.510  0.0409  0.0142 -0.0374
17557W        W33026   7.413  15.794  14.916 -0.0921  0.1733  0.3499
17558W        W33027  16.579   3.008  10.653  0.0553  0.0204  0.2777
17559W        W33028   0.561   9.999  14.016  0.2723 -0.0490  0.0142
17560W        W33029  16.875  17.540  14.499  0.0218  0.0047  0.1276
17561W        W33030   5.409   8.154   3.110  0.0219 -0.0331  0.1823
17562W        W33031  10.598  11.856   4.882 -0.1744  0.0360  0.1908
17563W        W33032   3.281  18.569  10.990 -0.4668  0.1050 -0.1489
17564W        W33033   2.370  11.035  12.380  0.2892  0.1605  0.2421
17565W        W33034   1.745  12.810   0.544  0.0521  0.0631  0.2575
17566W        W33035  13.301   2.341   0.097  0.1255 -0.2099 -0.2023
17567W        W33036  18.062  10.689  14.420 -0.5652 -0.2496  0.0194
17568W        W33037  17.874   4.260  11.477  0.0712 -0.0929 -0.0996
17569W        W33038  12.901   3.170  14.806  0.1566 -0.0494  0.2812
17570W        W33039  11.088   1.709   1.259  0.2046 -0.2865  0.3240
17571W        W33040   8.495   3.529   4.420 -0.1086  0.1862  0.1339
17572W        W33041   3.912   7.297   3.966 -0.1451 -0.1297  0.0190
17573W        W33042   4.548   1.842   2.223 -0.0580 -0.0367 -0.0135
17574W        W33043   4.038   4.309   1.291  0.2842  0.1796 -0.1761
17575W        W33044  16.194   2.740   4.574 -0.2063  0.1892  0.2899
17576W        W33045   7.088   8.655   5.051 -0.0958  0.2375  0.1150
17577W        W33046   7.538  14.145   5.089 -0.0263  0.1790 -0.0604
17578W        W33047  11.097   8.258   4.632 -0.0200  0.2457  0.3416
17579W        W33048   4.536   6.300  10.122 -0.1985 -0.2487  0.0048
17580W        W33049   3.878  12.880  10.631 -0.0759  0.1018 -0.1472
17581W        W33050   3.606  16.859  11.573 -0.0026  0.2252  0.1043
17582W        W33051   7.567   0.200  14.143 -0.1034  0.2234  0.0307
17583W        W33052  12.973   9.765   4.314 -0.2754 -0.0280  0.1081
17584W        W33053  12.117   9.292   2.138 -0.1304  0.0265  0.1212
17585W        W33054   8.912  13.283   0.397 -0.0336  0.1979 -0.3148
17586W        W33055   8.743  15.303  14.968 -0.2650  0.0737  0.0983
17587W        W33056  11.067   6.091   3.331  0.0601 -0.4510 -0.1541
17588W        W33057   1.615   8.773   3.993 -0.0706 -0.0229 -0.0944
17589W        W33058   1.325  11.949   1.977  0.2787 -0.0154 -0.0245
17590W        W33059   0.505  13.817   3.317 -0.0126  0.1146  0.1067
17591W        W33060   1.056   3.265   4.716  0.0798 -0.0230  0.1555
17592W        W33061   3.172  15.389  14.652 -0.0598  0.0388 -0.6122
17593W        W33062   2.784   6.260   0.264  0.2045  0.0270  0.0589
17594W        W33063   5.846  14.657   2.485 -0.3733  0.0119 -0.0020
17595W        W33064   1.958  16.628  13.596  0.0215  0.0462 -0.0433
17596W        W33065   4.442  11.005   4.021 -0.2434 -0.3216  0.1693
17597W        W33066   6.488   4.647  13.577 -0.2015  0.1393 -0.0502
17598W        W33067   8.950  17.125   2.044  0.2513  0.4612 -0.2003
17599W        W33068  17.040  12.508   2.045  0.0854 -0.1122 -0.1237
17600W        W33069   6.041  13.819   4.172  0.3354  0.1845  0.1750
17601W        W33070  15.627  13.489  11.084  0.0581  0.3262 -0.2651
17602W        W33071   1.731   1.837  10.824  0.0639 -0.0002  0.2589
17603W        W33072  12.568   1.919   3.375 -0.3012 -0.1028  0.0615
17604W        W33073  10.846  16.611  14.559  0.0377 -0.3577  0.1347
17605W        W33074   2.500   1.514   2.777 -0.1053 -0.1922 -0.2782
17606W        W33075   3.186   1.754   3.046  0.1560  0.1306 -0.1907
17607W        W33076   4.720   9.496  13.064  0.0956 -0.1035 -0.0312
17608W        W33077  17.831   2.059  15.438  0.1202  0.5024  0.4349
17609W        W33078  10.913   5.685  11.354  0.2814  0.2621 -0.0067
17610W        W33079  11.141  17.055  12.712 -0.1617 -0.3691  0.1184
17611W        W33080   2.921  16.432   5.288  0.2642 -0.2780 -0.1210
17612W        W33081   0.234  14.605  15.222  0.0144 -0.0012  0.2021
17613W        W33082   5.450   6.515   1.217  0.0731 -0.2059  0.2558
17614W        W33083  16.734   8.570   3.349  0.2884  0.4173  0.3199
17615W        W33084  18.320   4.483  14.479  0.0170  0.1336  0.2827
17616W        W33085   4.151   9.880  13.681 -0.2166  0.0507 -0.0295
17617W        W33086   0.150   7.247  11.113 -0.1022 -0.3296  0.4543
17618W        W33087   2.862  15.682  14.029 -0.0590 -0.0537 -0.1005
17619W        W33088  10.092   7.945  15.299  0.2707 -0.1686  0.0599
17620W        W33089  17.465  13.930   0.239 -0.2327  0.2806  0.1814
17621W        W33090   6.853   8.366   3.750 -0.0840 -0.0275 -0.2163
17622W        W33091   1.017   1.455   0.527  0.3121 -0.2015 -0.3449
17623W        W33092  15.310  17.593   3.018 -0.1950 -0.0034 -0.3326
17624W        W33093  15.506  10.528   2.099 -0.1588 -0.0870 -0.0439
17625W        W33094  13.445  13.278   0.728 -0.0665  0.2664  0.0504
17626W        W33095   0.114  10.905  13.017  0.0368  0.0037  0.1001
17627W        W33096  17.680  12.237  12.211 -0.2658 -0.1891 -0.1875
17628W        W33097   9.245   4.570   1.498 -0.0117 -0.3223  0.1169
17629W        W33098  15.224   4.234  15.283  0.1684  0.0517 -0.2230
17630W        W33099  16.086  14.345   0.186  0.2683 -0.3499 -0.2218
17631W        W33100  15.085   9.804   0.909  0.3163  0.0422 -0.2019
17632W        W33101   5.412  10.325   4.694  0.2287  0.1022  0.0251
17633W        W33102   9.211  14.049  11.721  0.1516 -0.0391  0.1465
17634W        W33103   0.156  17.997   0.358 -0.1204 -0.1264 -0.0549
17635W        W33104  17.449   1.651  10.104 -0.0234  0.5928 -0.1049
17636W        W33105  10.661   4.134  11.543 -0.1046  0.0058  0.1465
17637W        W33106  18.468  15.531  15.465  0.1752 -0.1914 -0.0292
17638W        W33107   4.823   1.842  15.778 -0.1651  0.1057 -0.3270
17639W        W33108  16.604  11.894  15.752 -0.0237 -0.2126  0.1701
17640W        W33109  16.805  14.598   1.346 -0.0495  0.1234 -0.1449
17641W        W33110   7.001   9.399   1.194 -0.0224  0.0812 -0.0681
17642W        W33111   7.238   5.684  14.169  0.0716 -0.0554  0.1821
17643W        W33112   4.535   6.504   3.807  0.3488 -0.0924  0.0348
17644W        W33113  12.441   3.126   5.071 -0.1085 -0.2389  0.0872
17645W        W33114  17.759   1.458  14.957  0.1823 -0.0662  0.0671
17646W        W33115   6.521   4.837   2.311  0.0859  0.2291  0.2037
17647W        W33116  17.093   2.466   0.656  0.1632  0.0318 -0.0568
17648W        W33117   7.657   5.418   3.286  0.1748 -0.3429  0.2688
17649W        W33118  18.607   2.840  11.039 -0.1257  0.0921 -0.0556
17650W        W33119  11.679   0.910   0.483 -0.2536 -0.1456  0.1003
17651W        W33120   2.798   9.594   3.916  0.2160 -0.0346 -0.0777
17652W        W33121   3.623   2.895  13.882  0.1420 -0.3617  0.0581
17653W        W33122  15.386  10.880   5.544  0.0223  0.0212  0.0113
17654W        W33123   1.649  17.766  15.105 -0.0826 -0.2819 -0.0551
17655W        W33124  11.530   8.876   3.813  0.0968  0.0614  0.1567
17656W        W33125   6.049   6.961   0.543  0.0135 -0.0360 -0.0567
17657W        W33126   1.292  16.811   3.675  0.0864  0.1520 -0.5009
17658W        W33127   0.078   3.598  10.852  0.0552  0.2554  0.3095
17659W        W33128  16.403  18.068   4.741  0.2747 -0.0231  0.1604
17660W        W33129   1.968  14.857   0.609 -0.2734  0.1347  0.1442
17661W        W33130  16.917  13.181   3.472 -0.0906  0.0190 -0.2542
17662W        W33131   8.693   5.669   2.109  0.1544 -0.0399 -0.2198
17663W        W33132   7.963   8.607  14.257  0.1459 -0.0700 -0.0831
17664W        W33133   6.415   1.307   1.870  0.1401 -0.1701 -0.1546
17665W        W33134   7.472  11.404  15.067 -0.0430 -0.1867  0.2236
17666W        W33135   7.531  12.968   6.092  0.2806  0.0076 -0.3020
17667W        W33136   3.988  14.179   3.796 -0.1060  0.1018 -0.0244
17668W        W33137   6.843  16.853  14.936 -0.0148  0.1926 -0.3883
17669W        W33138  13.287  17.593   4.080 -0.0917 -0.2743  0.0566
17670W        W33139   7.154  17.735   0.603 -0.0149 -0.3242  0.0726
17671W        W33140  12.785  17.079  10.477 -0.1250 -0.0106 -0.1454
17672W        W33141   2.422   3.100   1.046 -0.1761  0.2924 -0.3228
17673W        W33142   2.566  18.465  14.073  0.0403 -0.3108 -0.0674
17674W        W33143   9.920  18.569  13.447 -0.1808 -0.0079 -0.0031
17675W        W33144   8.579  13.820   1.732 -0.0934 -0.2782  0.0692
17676W        W33145  13.982   2.035  11.427  0.0643 -0.2294 -0.1551
17677W        W33146  17.277  16.890  13.324  0.4119  0.3009  0.2402
17678W        W33147  10.079   2.482   2.666  0.2788 -0.0302 -0.1194
17679W        W33148   3.892   0.767   3.967  0.1696  0.1235  0.1986
17680W        W33149  14.153   9.488  13.311  0.0508 -0.1389  0.1162
17681W        W33150  11.904  11.991  12.060  0.0412 -0.1094  0.0732
17682W        W33151   3.112   0.395   0.391  0.0310  0.2351 -0.1165
17683W        W33152  10.421   3.466   1.335  0.1001 -0.2125 -0.0818
17684W        W33153   7.089   2.673  11.487 -0.4469 -0.2616 -0.0346
17685W        W33154  16.744  13.786   4.719  0.1083 -0.0144  0.1615
17686W        W33155  13.519  11.805   0.670 -0.4082 -0.4232 -0.1588
17687W        W33156  10.162   8.124   5.160 -0.0875  0.1091  0.1451
17688W        W33157   0.973  12.104  13.832  0.1213  0.0770 -0.1168
17689W        W33158   4.289   3.888   2.450 -0.0639 -0.1295 -0.3440
17690W        W33159   7.385   0.296   2.983 -0.1933 -0.1355 -0.1727
17691W        W33160   8.784  16.313  11.251 -0.2797 -0.1558 -0.2002
17692W        W33161   1.330   8.447   2.281  0.1732  0.0137 -0.0795
17693W        W33162  16.059  14.081  12.934 -0.0187  0.2237  0.0318
17694W        W33163   6.772  10.581  11.796  0.0215 -0.1736 -0.2543
17695W        W33164   2.342  12.009   0.820  0.3112 -0.0824 -0.2411
17696W        W33165   3.751   2.492   3.052  0.2335 -0.3456  0.1698
17697W        W33166   9.296   5.488   4.188 -0.0070  0.1249  0.0672
17698W        W33167   1.797   9.398   3.914 -0.1535  0.1639 -0.1116
17699W        W33168   4.506   3.143   3.859  0.0063  0.0868 -0.1273
17700W        W33169   4.954  12.643   2.581  0.0731  0.0841 -0.0569
17701W        W33170  11.795   8.942   0.614 -0.3328  0.1603  0.0007
17702W        W33171   2.718  14.193   4.289  0.0247 -0.2439 -0.2632
17703W        W33172  10.544  15.763   0.396 -0.1437  0.3126  0.0164
17704W        W33173   1.449   7.837   0.516 -0.1101 -0.0181 -0.2175
17705W        W33174  14.992  10.105  10.495  0.3053  0.1382  0.1582
17706W        W33175   3.424   9.155   1.413  0.4234 -0.4015  0.2272
17707W        W33176  16.111   6.091  14.312  0.0938  0.1748 -0.2647
17708W        W33177  13.085  15.091  15.353 -0.1379  0.0451  0.1843
17709W        W33178  14.242  14.729  12.373  0.0285 -0.1972  0.0925
17710W        W33179  12.269   4.562  13.137 -0.1133 -0.1897  0.0485
17711W        W33180  13.006   6.555   4.620  0.1989 -0.1695 -0.2449
17712W        W33181   9.756   5.362   0.859  0.0442 -0.0299 -0.1376
17713W        W33182   9.469  16.518  12.076 -0.0222  0.2259 -0.1395
17714W        W33183   9.718   7.035   1.548  0.1911 -0.1017  0.2808
17715W        W33184   0.805  14.745   0.230 -0.1391  0.1324  0.0801
17716W        W33185   1.964  12.398   3.665  0.2021  0.0482  0.0805
17717W        W33186   4.505  14.478  11.583  0.1257 -0.0041 -0.1483
17718W        W33187   6.070   6.238   3.547  0.1027  0.2625 -0.2568
17719W        W33188   7.687   3.164   1.052  0.1810  0.1634 -0.2851
17720W        W33189   9.773   2.969   2.354 -0.1254  0.0339  0.1105
17721W        W33190  11.875  10.198   4.275 -0.2430 -0.0107  0.1261
17722W        W33191   2.511  10.337   1.117  0.1401  0.1396 -0.0037
17723W        W33192  15.686   3.615   3.090 -0.2965 -0.2394 -0.0757
17724W        W33193  18.369   8.250   1.100 -0.3258  0.0465  0.1898
17725W        W33194   2.832   4.145   0.020 -0.1610 -0.1127  0.2998
17726W        W33195   1.865   0.733   2.451  0.2758  0.0620  0.2971
17727W        W33196  14.864  17.192  11.637 -0.1943  0.1226 -0.3258
17728W        W33197   7.154   7.570   3.934  0.0944  0.0558  0.1161
17729W        W33198   6.190  13.957  14.568 -0.1013 -0.2279  0.0913
17730W        W33199   0.089   4.335   2.423 -0.2510 -0.1086  0.1132
17731W        W33200   1.714  10.037   5.791  0.1458  0.1425  0.0846
17732W        W33201   2.461  14.574   4.531  0.0841 -0.1273  0.0560
17733W        W33202  17.657  15.168  14.551  0.0129  0.4536 -0.1173
17734W        W33203  14.938  16.618  11.283  0.0431  0.1047 -0.0431
17735W        W33204  16.585   6.747  14.865 -0.0539 -0.3203 -0.0618
17736W        W33205   2.779   2.083  14.477  0.0477  0.5293  0.3253
17737W        W33206   3.804   7.350  12.574  0.2562 -0.1669  0.2179
17738W        W33207   4.977  11.238  14.497 -0.2834 -0.0693 -0.1079
17739W        W33208   6.272   8.575  15.676  0.1671  0.0324  0.1089
17740W        W33209   7.525  10.825  12.692 -0.0350  0.1910  0.2053
17741W        W33210   5.545   5.323  12.691 -0.0968  0.0847 -0.2525
17742W        W33211  17.204   5.275  11.442  0.0268  0.0927  0.0297
17743W        W33212  13.223  17.944   2.926 -0.3692 -0.1023 -0.1755
17744W        W33213   8.383  15.330  12.678 -0.2655 -0.0341  0.1374
17745W        W33214   7.544   4.618   2.143 -0.0786 -0.1829  0.0840
17746W        W33215  12.263  11.568  14.231  0.1528 -0.2047  0.4761
17747W        W33216   4.183   2.504   0.255 -0.1955 -0.1104 -0.0937
17748W        W33217  12.281  17.091  14.467  0.0239  0.0550  0.0850
17749W        W33218  17.013   1.221   2.755  0.2643  0.2105  0.0082
17750W        W33219  10.492   1.709  12.341  0.3725  0.0747  0.2509
17751W        W33220  13.480  16.145   5.157  0.1465  0.0331  0.2080
17752W        W33221  13.315   2.058  14.370  0.0359 -0.1271  0.1162
17753W        W33222  10.250  14.821  12.414 -0.2542 -0.0519  0.0375
17754W        W33223   6.495  16.769  15.629 -0.1354 -0.0798 -0.1757
17755W        W33224   4.757   8.953  11.578  0.1588 -0.1581 -0.0802
17756W        W33225  13.105  17.118  12.548  0.1895  0.1376  0.1244
17757W        W33226   4.140  15.591  10.761  0.0801  0.1142 -0.6514
17758W        W33227  18.589   3.895  14.791 -0.2845  0.4625 -0.3862
17759W        W33228   7.309   7.764   4.886 -0.1928  0.0452 -0.2523
17760W        W33229   1.153  12.991   2.229  0.3518  0.4808  0.1016
17761W        W33230  12.215  18.107   4.845  0.0696  0.0524 -0.1182
17762W        W33231   3.867  12.692  11.977  0.0491 -0.0663  0.1513
17763W        W33232   4.783   9.262   0.084 -0.0149 -0.1875 -0.4248
17764W        W33233  14.137   6.339  14.683  0.1199  0.2726  0.1559
17765W        W33234   5.627  10.931   5.468 -0.1469 -0.2669  0.2662
17766W        W33235  16.586  16.009  15.746 -0.0529  0.0557  0.0149
17767W        W33236  10.377  10.198   4.343 -0.1910 -0.3396 -0.1386
17768W        W33237  17.725  14.388   0.259  0.1357  0.0169  0.0728
17769W        W33238  15.210   7.848   3.657  0.3527 -0.0485  0.2273
17770W        W33239  10.011  10.152   5.311 -0.0676  0.1739  0.1611
17771W        W33240  11.834  17.742  13.504  0.1038 -0.0390 -0.0945
17772W        W33241   8.009   6.128   3.943 -0.2392  0.0579  0.1480
17773W        W33242  15.726  11.798  15.145  0.2700 -0.1572  0.1336
17774W        W33243  10.209   6.739  13.577  0.0803 -0.2203 -0.0795
17775W        W33244  17.239   9.650   2.102 -0.0230  0.2096 -0.0962
17776W        W33245  15.728   2.483  11.999 -0.0904  0.2090 -0.0650
17777W        W33246  18.390  12.463  10.826  0.1144  0.0174 -0.1671
17778W        W33247  13.257   9.619  15.410 -0.2259  0.6397 -0.0575
17779W        W33248   5.801  11.971   3.289 -0.3625  0.2685  0.2873
17780W        W33249  18.308  17.332  13.551  0.1396  0.0589  0.0566
17781W        W33250  13.020   6.522  12.662  0.0063 -0.1522 -0.0913
17782W        W33251  10.474  11.222  15.065  0.0937  0.0577 -0.0726
17783W        W33252  15.330   1.052   4.382  0.1386  0.0963 -0.0787
17784W        W33253   5.829  14.198   5.371  0.0641 -0.1378 -0.2275
17785W        W33254  11.402  18.101  15.327  0.0411  0.1462 -0.2121
17786W        W33255  17.373  10.816  14.004  0.0499  0.1251  0.1198
17787W        W33256  15.050   2.681   2.945 -0.2536 -0.3870 -0.1523
17788W        W33257  13.910   5.586   2.826  0.0122  0.0539 -0.0295
17789W        W33258   1.417  13.682  15.608 -0.4047  0.1909 -0.2586
17790W        W33259  12.073  10.551   0.263  0.0973 -0.0027  0.1973
17791W        W33260  17.042   9.243  14.470  0.0229 -0.1671  0.0169
17792W        W33261   2.025  12.441  11.936  0.3549 -0.2245 -0.2770
17793W        W33262  11.357   6.698   5.168 -0.1904  0.3566 -0.0579
17794W        W33263  10.011  14.908   5.295 -0.0824  0.2332 -0.3544
17795W        W33264   0.010   5.308   3.327 -0.2612 -0.0829  0.1381
17796W        W33265   2.238  14.825  14.220  0.0492  0.4004  0.0218
17797W        W33266   4.154   4.222  14.786  0.2643  0.1898 -0.0575
17798W        W33267  11.289   8.852  10.501  0.0402  0.0221 -0.4478
17799W        W33268  13.834  12.242  12.681 -0.0325 -0.0599 -0.3365
17800W        W33269   1.288  10.807  14.684 -0.1362  0.0681 -0.0710
17801W        W33270  16.607   0.086   0.482  0.3641 -0.0924  0.0982
17802W        W33271  12.181   4.850  12.704 -0.2096  0.3165 -0.1164
17803W        W33272   0.886   4.251  10.695 -0.2515  0.1948  0.2154
17804W        W33273  14.523  18.431  12.119  0.2758  0.0688  0.1961
17805W        W33274   0.248   2.892  15.190 -0.1731  0.0853 -0.0199
17806W        W33275  16.397  13.923   0.426 -0.1507 -0.0906  0.0977
17807W        W33276  12.582  18.452  10.357  0.0136 -0.1930  0.0267
17808W        W33277  18.374   7.783  11.090 -0.0548 -0.0524  0.0360
17809W        W33278  16.271   0.410   0.280  0.3001  0.2516 -0.1406
17810W        W33279   5.776   2.915   3.201 -0.0347  0.0729 -0.3425
17811W        W33280   7.441  11.830  14.250  0.0295  0.0108  0.2376
17812W        W33281   6.828   0.590  15.283 -0.0477 -0.0108 -0.0444
17813W        W33282  15.788  13.385   3.829  0.0909 -0.1926 -0.1206
17814W        W33283  14.662  15.768   4.612  0.6075  0.0772  0.3451
17815W        W33284  11.525   5.238   1.146  0.2732  0.0644 -0.1266
17816W        W33285   1.574   2.081   2.112  0.0500 -0.0982 -0.0559
17817W        W33286   0.063  18.307   4.050  0.1592 -0.1167  0.2297
17818W        W33287   6.907   0.137  12.480  0.0108 -0.1259  0.0170
17819W        W33288  12.164   9.235   0.766 -0.2134 -0.1510 -0.2708
17820W        W33289  13.875  17.374  15.155 -0.2492 -0.1961  0.0177
17821W        W33290   3.070   3.685  12.877  0.1642 -0.1163 -0.1499
17822W        W33291   6.928   0.088   3.344  0.0106 -0.2234  0.0295
17823W        W33292   8.741  12.512   1.712  0.0337  0.0832  0.4402
17824W        W33293   0.772  11.958   5.612  0.2169  0.0863 -0.0672
17825W        W33294  11.305   7.053  12.757  0.3036 -0.3761 -0.1236
17826W        W33295  14.507  11.577  12.185  0.1697 -0.1507  0.1098
17827W        W33296  15.389   3.853  11.822  0.0576  0.1372 -0.0102
17828W        W33297   5.958  14.940   0.428 -0.1618 -0.0050 -0.0822
17829W        W33298  12.337   2.793   3.320 -0.0184  0.0109 -0.1466
17830W        W33299  15.673   0.531  12.543 -0.0243 -0.1995 -0.2097
17831W        W33300   3.390   6.283  15.252 -0.0358  0.1441  0.1379
17832W        W33301  16.186  15.267   1.579 -0.1614  0.2093  0.5630
17833W        W33302   9.456   7.827   2.578 -0.1010 -0.1104 -0.1744
17834W        W33303  13.058   7.396   1.126  0.1894 -0.1677  0.1349
17835W        W33304   5.210   0.081  15.707 -0.0870 -0.4774  0.2951
17836W        W33305  17.461   1.426   0.989  0.0025 -0.0752 -0.2393
17837W        W33306  17.665   2.899   2.415  0.3144 -0.0451  0.0329
17838W        W33307   8.456   3.995   4.158 -0.1676 -0.0686 -0.0050
17839W        W33308   4.797   8.433  11.780 -0.0095  0.1757  0.0592
17840W        W33309  17.815  14.588  13.377 -0.2180 -0.1813  0.0093
17841W        W33310   6.939  17.487  11.626 -0.0439 -0.0676 -0.0562
17842W        W33311  11.241  13.665   5.461 -0.1865  0.2721 -0.2439
17843W        W33312  11.612   1.864  13.454  0.2617 -0.1179  0.1314
17844W        W33313   0.857   8.806   5.666  0.0216 -0.1390 -0.1757
17845W        W33314   7.199   8.257  12.285  0.1828  0.1317  0.1127
17846W        W33315  14.019  17.504  12.330  0.4010 -0.3166  0.0676
17847W        W33316   0.492   3.529  10.617  0.0083 -0.1369  0.0410
17848W        W33317  14.776   8.392   5.411  0.1699  0.1930 -0.1833
17849W        W33318  14.226   2.890  11.545 -0.1843 -0.0021  0.2297
17850W        W33319  11.977   5.760  12.963  0.2008 -0.4883  0.0594
17851W        W33320   5.700  16.189  10.480  0.1952  0.0954 -0.0389
17852W        W33321  10.835   1.581   4.432  0.0755 -0.2995  0.0043
17853W        W33322   2.585  15.515  12.955 -0.2678 -0.2351 -0.3386
17854W        W33323   3.163   3.209   4.148 -0.0305 -0.1649  0.3604
17855W        W33324  13.045  10.593   4.677  0.0899  0.0794  0.0474
17856W        W33325   8.337  15.192   3.317  0.0883 -0.4683 -0.2366
17857W        W33326   2.649  13.484   2.139 -0.0340 -0.1648 -0.0404
17858W        W33327   4.611   9.949   1.731  0.1504  0.1119  0.2604
17859W        W33328   1.513   9.549  14.610 -0.0405  0.0437 -0.1781
17860W        W33329   7.605   5.465   4.579  0.1374 -0.2422  0.1192
17861W        W33330   1.109  14.339  11.647 -0.0492  0.5662 -0.2181
17862W        W33331  17.015  11.463   1.917  0.1495  0.0198 -0.2568
17863W        W33332  13.321   4.592  12.619  0.0806 -0.0672 -0.1592
17864W        W33333   9.387   8.870  10.949  0.0475 -0.0444 -0.0069
17865W        W33334  14.487   0.388  11.699  0.2233 -0.1506  0.0023
17866W        W33335  17.197  18.258   0.107  0.2215  0.1969 -0.2146
17867W        W33336   8.709  10.294  12.961  0.1753 -0.1517 -0.2873
17868W        W33337  12.915  10.670  11.342  0.0029  0.0195  0.0422
17869W        W33338   7.887  12.840  12.679 -0.0795 -0.0513 -0.0553
17870W        W33339  11.462  10.898   9.678 -0.1253  0.1182 -0.3385
17871W        W33340   8.453   8.340   5.241  0.0024 -0.3062 -0.2652
17872W        W33341   3.270  15.427  13.615  0.0771  0.2000 -0.1635
17873W        W33342   8.817  12.068   2.618 -0.1040 -0.0320 -0.2229
17874W        W33343   8.689  12.595   5.976 -0.2596 -0.1022  0.2309
17875W        W33344   9.811  10.992   4.327 -0.2234  0.7661  0.2522
17876W        W33345   8.030   6.806   3.062 -0.0097  0.2334  0.0413
17877W        W33346  18.376   8.283  12.221  0.1975 -0.0420  0.2009
17878W        W33347  12.788   2.858   3.583 -0.1655  0.1015 -0.2763
17879W        W33348  14.817   4.222  14.593  0.1418  0.1647 -0.4158
17880W        W33349   9.209   5.496  14.582 -0.2830 -0.4220 -0.2125
17881W        W33350   1.896   9.616  13.862 -0.0988 -0.0316 -0.1264
17882W        W33351  14.325  14.044  10.335  0.0445  0.5294 -0.3585
17883W        W33352   5.038   3.013   0.672 -0.3116  0.0747  0.0806
17884W        W33353   8.331  15.885   0.598  0.0074 -0.2676 -0.0546
17885W        W33354   7.308   6.501   1.049  0.1434 -0.0038 -0.0742
17886W        W33355   5.424  13.407   4.739 -0.2552 -0.1308 -0.5896
17887W        W33356   3.324  15.874   2.971 -0.0398  0.0803  0.0881
17888W        W33357  17.431  17.510   0.490 -0.1202  0.2628  0.0648
17889W        W33358  17.724  18.502   2.063 -0.1880 -0.0642 -0.0566
17890W        W33359   1.311   5.214   0.159 -0.1777  0.1518  0.0534
17891W        W33360   1.431   9.886  15.665 -0.3378 -0.2757 -0.0887
17892W        W33361  17.618   1.252  15.388 -0.3312 -0.2769  0.0930
17893W        W33362  17.195   7.346  11.363  0.0462  0.2116 -0.0307
17894W        W33363   7.670   8.550  13.760  0.0925  0.2284 -0.0718
17895W        W33364   6.788  16.256   3.234 -0.0808 -0.1565  0.0482
17896W        W33365  14.660   0.829  15.260 -0.3354 -0.1767 -0.0155
17897W        W33366   7.661   5.015  14.691  0.1237  0.0822  0.1023
17898W        W33367  15.040   5.311  14.925 -0.1424  0.0799 -0.1684
17899W        W33368   2.004  17.277  10.667 -0.1823 -0.1532  0.0682
17900W        W33369   1.037   9.772   0.159 -0.1056 -0.0629  0.2645
17901W        W33370   3.601   9.165  12.075 -0.0483 -0.1113 -0.1531
17902W        W33371   9.576   9.450   1.534 -0.1948 -0.0047 -0.0328
17903W        W33372  16.808   9.868   0.379 -0.0650 -0.1804 -0.3339
17904W        W33373   2.323  11.396  13.630 -0.1642 -0.0936 -0.0846
17905W        W33374  13.972   2.144   2.869  0.0721 -0.0471 -0.0038
17906W        W33375  17.288   0.762  15.755 -0.3427 -0.1501 -0.2409
17907W        W33376  11.520  13.276  12.008 -0.0192 -0.1455 -0.0157
17908W        W33377   8.454  15.663  13.021 -0.0726 -0.0493  0.2763
17909W        W33378   3.709   8.659   6.718 -0.3716  0.0592 -0.0241
17910W        W33379  18.000  16.062  13.585  0.0518 -0.1703 -0.0604
17911W        W33380  12.678   1.039  13.562  0.4517  0.0637  0.0926
17912W        W33381   0.168   3.221  10.281 -0.1659  0.5413 -0.1667
17913W        W33382  11.585  17.516  15.220  0.2471 -0.2799 -0.1546
17914W        W33383  12.700   5.049   1.313  0.1672  0.0880 -0.2801
17915W        W33384  11.324  10.321   4.451  0.0763  0.0901  0.0545
17916W        W33385   6.056  13.340   1.950  0.2089  0.0212  0.2742
17917W        W33386  18.086   5.178  13.727  0.0296  0.1985 -0.1871
17918W        W33387  11.425   7.889   1.520 -0.1064  0.1453  0.1171
17919W        W33388   4.055   4.756   2.416 -0.1537 -0.3125  0.0030
17920W        W33389  18.415  17.645   3.684 -0.1313 -0.0260 -0.1852
17921W        W33390  17.432   0.617   3.340  0.0440 -0.3466 -0.1116
17922W        W33391  16.711  14.159  15.759  0.2322  0.1783  0.1974
17923W        W33392  13.611  15.359   1.377  0.0937  0.0601 -0.1024
17924W        W33393  17.730   5.463  12.151  0.0375  0.0670  0.0032
17925W        W33394  14.458   7.096  15.115  0.3262  0.0724  0.1229
17926W        W33395   7.955   8.901   3.083 -0.0193 -0.0321 -0.0939
17927W        W33396  16.296   7.624   0.528 -0.1140  0.2436 -0.2267
17928W        W33397   7.771  10.228   3.487 -0.3861  0.0058  0.2216
17929W        W33398  13.147   6.893  13.974  0.2310 -0.0597 -0.1217
17930W        W33399  15.714  16.856  14.167 -0.2101  0.2136  0.3246
17931W        W33400   9.239  10.078   3.885  0.4566 -0.0201 -0.0928
17932W        W33401   3.503   0.944  14.549  0.0453 -0.0717 -0.2048
17933W        W33402   6.112  17.783   3.167 -0.0680  0.0656 -0.2053
17934W        W33403   5.018   4.393  15.001  0.0154 -0.0176 -0.0687
17935W        W33404  13.964   3.374  12.603  0.0334  0.0652  0.1914
17936W        W33405  15.499   0.928  12.266 -0.1509 -0.2461  0.2064
17937W        W33406   7.495  16.296  15.317 -0.0003  0.0331  0.1728
17938W        W33407  17.828  13.985  12.571 -0.0811 -0.0405  0.0047
17939W        W33408  17.414   3.422  11.398  0.3619 -0.3061  0.2412
17940W        W33409   1.508  16.805  13.452  0.0758 -0.2436 -0.0047
17941W        W33410  14.741   2.939   3.331  0.0699 -0.1614  0.2232
17942W        W33411  17.895  12.911   2.117 -0.0702  0.2274 -0.0195
17943W        W33412  11.768  15.069  12.513 -0.0350  0.0023 -0.1420
17944W        W33413  17.190  16.804   1.210  0.3888 -0.0292  0.0213
17945W        W33414  13.204   2.799  13.166 -0.2043 -0.1016 -0.4072
17946W        W33415   8.632  17.829   3.007 -0.0966 -0.1017  0.0009
17947W        W33416  13.873  14.178  14.067 -0.0487 -0.1031 -0.1797
17948W        W33417   2.740   9.978  13.886 -0.1005 -0.2650 -0.1941
17949W        W33418   4.613   2.295   5.465  0.5291  0.2630 -0.1756
17950W        W33419   2.186   6.179   4.236 -0.0389  0.0681  0.0274
17951W        W33420  11.937  12.815   9.855 -0.2501 -0.1968  0.3350
17952W        W33421  16.113   1.688  11.021 -0.5684 -0.3947 -0.0325
17953W        W33422   5.041   2.270  14.300  0.0909  0.0220  0.4127
17954W        W33423  15.062  10.673   4.741  0.0342 -0.0168  0.2690
17955W        W33424  11.794  12.923  11.845  0.0406  0.0340 -0.4282
17956W        W33425  11.437  15.420  14.982  0.0000  0.2512  0.1085
17957W        W33426  16.071  11.187  11.200 -0.0012 -0.3914 -0.4166
17958W        W33427  13.193   3.757   3.548 -0.3368 -0.0576  0.0192
17959W        W33428  13.391  15.818  12.990 -0.2073 -0.0222  0.1980
17960W        W33429   6.602  13.951   4.898 -0.1354  0.1938 -0.2395
17961W        W33430   3.086  17.009  15.275  0.0148 -0.1067 -0.1194
17962W        W33431   5.620   3.572  13.517 -0.1268  0.5386  0.0531
17963W        W33432  17.410   3.559  15.428  0.2615 -0.1961 -0.0900
17964W        W33433  12.161   6.957   2.584 -0.1252 -0.0235 -0.2204
17965W        W33434   1.193   0.371   1.227  0.1224  0.2901 -0.0565
17966W        W33435   5.479  14.002  10.539  0.0030  0.0589 -0.0829
17967W        W33436  10.434   3.580   1.889  0.0268 -0.0587  0.0413
17968W        W33437  18.434   2.348   0.828 -0.0227  0.1777 -0.1825
17969W        W33438   1.109   8.813  11.690  0.1471  0.1385  0.1255
17970W        W33439  17.925   3.115   2.790 -0.0298 -0.0526  0.0306
17971W        W33440   6.944  15.055   3.302 -0.0780 -0.4526 -0.0523
17972W        W33441  16.614   4.284   3.764  0.0672  0.1270 -0.1138
17973W        W33442   3.047  18.414  15.491  0.1409  0.4774 -0.2097
17974W        W33443   3.621   2.466   4.620  0.0674 -0.1121  0.0694
17975W        W33444   8.121   5.797   1.106  0.0553  0.5233 -0.0123
17976W        W33445   1.419  17.806   0.304  0.2900 -0.0827 -0.4439
17977W        W33446   2.540  11.111   3.483 -0.1869  0.0011 -0.1314
17978W        W33447  11.318   5.810   1.808  0.0756  0.4374  0.3397
17979W        W33448   4.197   3.544  15.567 -0.2849  0.1925  0.2434
17980W        W33449  10.015   4.497  13.206  0.1149  0.1946 -0.0282
17981W        W33450  16.272   3.618  12.993 -0.1729 -0.0991 -0.0442
17982W        W33451  10.051   4.886   2.657  0.0362  0.4240  0.0705
17983W        W33452   5.195   2.073   4.168 -0.0093 -0.0759  0.2522
17984W        W33453  10.081   4.161   5.124 -0.0932  0.0328  0.1446
17985W        W33454  18.151   8.668  11.259 -0.1247  0.0983 -0.0250
17986W        W33455   6.568  13.199  14.364  0.0352 -0.0402 -0.2388
17987W        W33456  16.733  13.768   9.838 -0.3306  0.3055  0.1034
17988W        W33457   6.679   0.491  13.991  0.0873 -0.0740 -0.0113
17989W        W33458  16.029   9.019  11.529 -0.0773  0.0251 -0.1093
17990W        W33459  14.977  14.440  11.679  0.2325  0.0751 -0.3325
17991W        W33460  17.615  12.647  10.095 -0.1597 -0.1840  0.2490
17992W        W33461  15.297   3.090  12.363 -0.2074 -0.0736 -0.0954
17993W        W33462  14.746  14.971   2.165 -0.1249 -0.4792 -0.0066
17994W        W33463   9.869  18.133  11.520 -0.4662  0.3313  0.0452
17995W        W33464   0.882  17.165  14.144  0.1696  0.3536 -0.1595
17996W        W33465  16.344   8.313   3.161  0.1036  0.0449 -0.2474
17997W        W33466  12.273   2.605   5.312 -0.0928  0.0662 -0.1048
17998W        W33467  11.484   7.556  11.122 -0.2117  0.2593 -0.3023
17999W        W33468  14.495  10.837  10.039  0.1585 -0.0916 -0.1268
18000W        W33469  10.443   3.626   3.473  0.3328  0.0141  0.2226
18001W        W33470  16.111   6.490   1.349 -0.0518 -0.1288  0.0621
18002W        W33471  17.924   5.454  14.225 -0.0343  0.1578  0.0619
18003W        W33472  17.255   0.506  11.719  0.0891 -0.1737  0.1040
18004W        W33473  14.778  12.588   1.508 -0.0928 -0.1744 -0.0668
18005W        W33474   8.829   5.535  11.805 -0.2317  0.2447 -0.3858
18006W        W33475  18.422  15.512   2.495 -0.1231 -0.5074 -0.2137
18007W        W33476   2.311  10.437  13.531 -0.1990 -0.1888 -0.0228
18008W        W33477  17.282  12.997   3.180 -0.0556  0.1852 -0.1737
18009W        W33478  14.079   4.973  13.082  0.0023  0.0837 -0.0454
18010W        W33479   6.202  11.067  13.623  0.1078  0.1246  0.3252
18011W        W33480  16.814  17.411   1.415 -0.0318  0.1231  0.1621
18012W        W33481   8.954   8.928  13.495 -0.2821  0.2480 -0.1053
18013W        W33482   7.835   4.705   1.735  0.4504  0.1286 -0.0602
18014W        W33483   0.871  10.531  14.826  0.1074 -0.0410 -0.2450
18015W        W33484   2.221  14.619  11.466 -0.2005  0.1866  0.0338
18016W        W33485   8.684  13.907  12.479  0.2971  0.1334  0.2236
18017W        W33486  12.608   4.459   4.615  0.0704 -0.3087 -0.0883
18018W        W33487  15.685  13.959   1.894  0.0161  0.1885 -0.2403
18019W        W33488   8.983  16.890  11.401  0.2464 -0.1068 -0.1188
18020W        W33489   8.945  16.328   3.855  0.1291 -0.0200  0.1227
18021W        W33490  13.461  17.005   4.978  0.0302 -0.0202 -0.0228
18022W        W33491  11.698   4.787  15.491  0.0204  0.2314 -0.1670
18023W        W33492   2.122  11.624  13.187 -0.0930  0.2164  0.2274
18024W        W33493   7.464   6.826   0.521 -0.1289 -0.1619 -0.4259
18025W        W33494   2.529  13.038   2.943  0.1237  0.0165 -0.0915
18026W        W33495   2.116   9.179  15.056  0.1769  0.0045  0.0652
18027W        W33496  16.722   4.843   5.667 -0.1348 -0.1163 -0.0689
18028W        W33497   2.786   0.291   2.055 -0.0807 -0.0086  0.1388
18029W        W33498  12.023  17.628   5.104  0.0897 -0.3682 -0.4269
18030W        W33499   7.678   8.626  12.015 -0.1679  0.1574  0.0293
18031W        W33500  16.560  10.762   1.689  0.3807 -0.2278 -0.1663
18032W        W33501   2.485  10.902   3.017  0.1820 -0.1822 -0.2415
18033W        W33502   3.377  12.611   2.198  0.0893  0.2923  0.0628
18034W        W33503   1.323   6.315  10.855  0.1352  0.0018 -0.0304
18035W        W33504   0.409  11.844  14.672  0.1689 -0.3925 -0.2604
18036W        W33505   5.409   2.715  13.410 -0.2353  0.0020  0.0376
18037W        W33506  13.537   8.858   4.950 -0.1623  0.1744  0.0688
18038W        W33507   3.150   5.237  14.809  0.1536  0.1230 -0.1139
18039W        W33508  16.216  17.965   0.020  0.2577 -0.0453  0.2920
18040W        W33509   0.558   2.572   3.521  0.3485 -0.0345  0.0479
18041W        W33510  15.319   8.413   0.353  0.0017 -0.3229  0.4949
18042W        W33511  12.186   6.831   1.960 -0.0253 -0.3073  0.2860
18043W        W33512  17.301  14.476  13.414 -0.3355  0.1202  0.2027
18044W        W33513   6.977   3.098   5.434  0.2193  0.0223 -0.1560
18045W        W33514  10.348  13.925  13.296  0.0819 -0.0086  0.0947
18046W        W33515  12.429  12.579   2.598 -0.4174  0.5326  0.1033
18047W        W33516   8.324  10.583  14.683  0.3932 -0.0183  0.0394
18048W        W33517  11.645   1.750   1.239  0.0516  0.1185  0.0681
18049W        W33518   1.911  12.817  12.800  0.1927  0.2004  0.4038
18050W        W33519  11.116  15.773  12.950 -0.0338  0.0126  0.2508
18051W        W33520  13.115   6.994   5.578 -0.0505 -0.4877 -0.3093
18052W        W33521  12.310   1.433   1.852  0.2228 -0.0617  0.1784
18053W        W33522   0.983   8.218   3.214  0.2196 -0.1271  0.0857
18054W        W33523  17.171  12.704   0.014 -0.0166 -0.2422 -0.0791
18055W        W33524   0.805   7.704  10.342 -0.0459  0.3525  0.1178
18056W        W33525   8.295   7.608   4.953  0.2097 -0.0977 -0.0036
18057W        W33526  16.440  13.356  12.045  0.4052 -0.2808  0.1716
18058W        W33527  17.267  11.044   4.343  0.1393  0.0841 -0.0027
18059W        W33528   5.896   3.387   1.148 -0.1617  0.3159  0.2326
18060W        W33529   8.521   9.085  14.403 -0.5585 -0.0626  0.0027
18061W        W33530   1.349   3.872   3.877 -0.0646  0.4491  0.1703
18062W        W33531  18.259   7.533  11.812 -0.0653  0.0269  0.0475
18063W        W33532  14.116   0.440   5.069  0.0558  0.0090 -0.0599
18064W        W33533  16.350  15.122   4.112  0.3333 -0.1061 -0.0169
18065W        W33534  12.015   1.653  14.174 -0.0402  0.0599 -0.1849
18066W        W33535  16.029  16.391  10.215 -0.0322 -0.1890  0.1769
18067W        W33536  10.239   1.651   5.864 -0.1333  0.2079 -0.1926
18068W        W33537   5.995   8.243  15.073 -0.0911 -0.1848  0.3105
18069W        W33538   7.615   5.655  11.328 -0.2543  0.1608  0.0311
18070W        W33539  10.310  15.088  14.258 -0.1503 -0.3055 -0.2212
18071W        W33540  18.652   0.015  14.166  0.2083  0.0944  0.3715
18072W        W33541   3.078  16.041   2.530  0.0441  0.3589  0.3040
18073W        W33542   7.684   6.911   1.319 -0.0211 -0.0396  0.0713
18074W        W33543  13.211   2.300  11.813  0.0180  0.0078 -0.2229
18075W        W33544  16.828  10.471   2.056 -0.1762  0.4502  0.2866
18076W        W33545  12.339  15.621   4.031  0.1291 -0.0391 -0.0408
18077W        W33546  11.068  15.659  11.381 -0.0984 -0.1656  0.0957
18078W        W33547  12.295  10.602   3.535  0.1563  0.1055  0.1391
18079W        W33548   9.646  10.441  14.195  0.0834  0.2594 -0.2657
18080W        W33549   5.787  16.378   4.189  0.2342 -0.2558  0.2077
18081W        W33550  17.226   3.175   5.093  0.1409  0.1534  0.0035
18082W        W33551  14.500   6.313   5.744  0.4214  0.0719  0.2191
18083W        W33552   1.707   9.379   2.058 -0.2025 -0.2297  0.0755
18084W        W33553   9.222   3.664   0.398 -0.2339  0.2571 -0.0945
18085W        W33554   5.706  16.526   1.053 -0.2048  0.2916 -0.2695
18086W        W33555  13.134  17.130   0.084 -0.0947 -0.1065  0.0987
18087W        W33556   5.190  12.015   4.696 -0.1379  0.2401  0.0727
18088W        W33557   1.676   9.924  12.537 -0.1905  0.3185 -0.0987
18089W        W33558   9.785  14.072  12.527  0.2836  0.0060 -0.0691
18090W        W33559   9.358  14.685   1.337 -0.3173 -0.2004 -0.0423
18091W        W33560   1.716   2.556  11.337 -0.1594 -0.4744  0.3930
18092W        W33561   9.124   3.337   0.723  0.2679  0.1254  0.2299
18093W        W33562   4.301  16.575  10.331 -0.1321 -0.3357  0.0915
18094W        W33563   7.398   2.954   5.792  0.2010 -0.1732  0.1791
18095W        W33564   3.447   9.489   2.305 -0.2016 -0.0150 -0.2083
18096W        W33565   9.658   9.895  10.538 -0.0656  0.0355  0.1429
18097W        W33566  17.127   9.685  14.874  0.0380 -0.3492  0.3308
18098W        W33567   0.827   4.125   0.636 -0.2407  0.0143  0.0412
18099W        W33568  13.165  10.111   4.649 -0.3105  0.0532 -0.0521
18100W        W33569   2.281  12.788  11.047 -0.2914 -0.0678 -0.4440
18101W        W33570   8.767   4.454   5.380 -0.2727 -0.2575 -0.2861
18102W        W33571  12.077  15.002  10.790  0.2237 -0.2736 -0.4564
18103W        W33572  15.040   8.809   4.392  0.0267  0.3133  0.2703
18104W        W33573  16.665   3.305  13.374  0.2153 -0.0886 -0.0118
18105W        W33574  15.992  18.624   0.477  0.1892  0.2432  0.1288
18106W        W33575  14.820  14.261  15.537 -0.3930  0.0008  0.4731
18107W        W33576  18.513   3.306   3.254 -0.0098 -0.1307 -0.0179
18108W        W33577   7.630   0.313   3.841 -0.2453  0.3892  0.0943
18109W        W33578  12.100  11.034   4.273 -0.0718 -0.0789  0.0438
18110W        W33579   1.491  11.973   4.866 -0.0014 -0.1751 -0.1685
18111W        W33580   1.146   4.657   4.342 -0.1905 -0.0378  0.0862
18112W        W33581  11.348   6.529   3.072 -0.4263  0.1157  0.1194
18113W        W33582  14.468   1.223   4.075 -0.3382 -0.2152  0.0793
18114W        W33583  16.451   5.500  11.977 -0.0580 -0.4548 -0.3314
18115W        W33584  18.492   0.134   0.187  0.0297  0.1976  0.4764
18116W        W33585  15.783  14.781   3.434 -0.0724  0.1493 -0.1197
18117W        W33586  17.798  13.316  11.707 -0.1999 -0.0124 -0.1463
18118W        W33587  11.870  16.338   0.017 -0.2406  0.3899 -0.0819
18119W        W33588   2.040  18.191   1.982  0.0944 -0.0396  0.0376
18120W        W33589  15.230  10.291   4.137 -0.3035 -0.1111  0.2556
18121W        W33590   0.723   2.265   0.454  0.2295  0.1566  0.1724
18122W        W33591  14.329   3.791  10.664 -0.1085 -0.2338 -0.3832
18123W        W33592   8.265   9.567   4.170  0.1689  0.2628  0.2584
18124W        W33593  13.019   0.395   5.548 -0.3129 -0.1017 -0.0638
18125W        W33594  14.668  11.216  13.473 -0.0100 -0.3563  0.0035
18126W        W33595   3.504   0.329  10.106 -0.2816 -0.1368  0.0004
18127W        W33596  12.058  13.436   4.439  0.0464  0.0591 -0.2156
18128W        W33597   7.614  11.733  12.222  0.1593 -0.0506 -0.3505
18129W        W33598  16.054   4.969   2.713 -0.1877 -0.1251  0.1377
18130W        W33599   5.855  16.282   1.961 -0.0218 -0.0432 -0.2477
18131W        W33600  13.357  11.589  12.951  0.0514  0.0116 -0.2404
18132W        W33601   5.854  11.287  12.184 -0.0683 -0.2338 -0.0478
18133W        W33602   8.756   0.652   0.079  0.6133 -0.2720 -0.2025
18134W        W33603   0.368   3.631  12.729  0.0787 -0.3645 -0.0062
18135W        W33604  11.770  12.482  12.134  0.0058  0.2143  0.0325
18136W        W33605  12.051   5.448   3.505 -0.4775  0.4548 -0.2488
18137W        W33606   2.442  17.051  10.668 -0.0354 -0.1776 -0.3334
18138W        W33607   3.785   3.228   1.431 -0.1534 -0.2079 -0.1201
18139W        W33608  12.749   0.548  11.506 -0.0194 -0.0672 -0.0992
18140W        W33609  14.777   3.770   3.920 -0.3534 -0.1709  0.2036
18141W        W33610  17.159   1.057  15.322  0.1249 -0.1636 -0.2988
18142W        W33611  17.552   7.210  15.068  0.0310 -0.3642 -0.0738
18143W        W33612   0.467   3.411   2.315  0.0371  0.1412 -0.0853
18144W        W33613  13.485  10.331   1.268 -0.0335  0.3723  0.0032
18145W        W33614  18.078   1.384  15.567  0.1794  0.1038 -0.0029
18146W        W33615   1.415   2.342   0.309  0.1367 -0.1690  0.1363
18147W        W33616   2.210  18.228   9.805 -0.0092  0.1460 -0.0966
18148W        W33617  12.709  15.190   5.656  0.1165  0.1841 -0.0046
18149W        W33618  11.313   2.265   5.473  0.1243 -0.2761 -0.3235
18150W        W33619   3.451   7.162  15.181  0.0094 -0.0332 -0.0349
18151W        W33620   4.795  11.092  13.033  0.0731  0.1791 -0.0872
18152W        W33621   1.078   4.186   3.184  0.1486 -0.0633  0.2750
18153W        W33622   5.035   0.836  13.551 -0.3316  0.1175  0.2463
18154W        W33623   5.663  16.335   4.781 -0.0516  0.1595  0.0841
18155W        W33624   4.359   6.214   3.340 -0.2046 -0.0700 -0.1101
18156W        W33625   3.992  18.254  10.544 -0.0851 -0.1638 -0.0778
18157W        W33626   4.720   2.668   5.056  0.0494 -0.0295  0.2134
18158W        W33627   0.771   6.390  14.743 -0.0386 -0.1732 -0.1785
18159W        W33628  16.254  11.570  12.363  0.0259 -0.0756 -0.2132
18160W        W33629   5.121   9.740  13.356  0.1370 -0.2444 -0.0326
18161W        W33630   3.684   8.311   2.409 -0.0270 -0.2987  0.1132
18162W        W33631  15.907  17.476  15.110  0.1258  0.1927  0.1693
18163W        W33632   4.666   0.989   2.728 -0.0345 -0.3289  0.3140
18164W        W33633  13.523   7.323   1.762 -0.1273 -0.1009 -0.0867
18165W        W33634  13.930  14.477   1.945 -0.1096  0.0111 -0.0972
18166W        W33635   1.840  16.820   1.574  0.2187  0.1842  0.0702
18167W        W33636   0.289  12.865  15.349  0.1325 -0.1747  0.2272
18168W        W33637   7.570  15.291  11.783  0.0413  0.3104  0.0454
18169W        W33638  14.654  12.100   1.381 -0.3039 -0.1443 -0.0618
18170W        W33639   0.773  14.038  11.303 -0.0259 -0.1241 -0.1405
18171W        W33640   9.879   8.170   5.573 -0.2668 -0.1374  0.1150
18172W        W33641   3.337   8.200   4.986 -0.0363 -0.1712  0.2636
18173W        W33642  13.689   3.421   2.615  0.1031  0.0680  0.1362
18174W        W33643  10.686   4.057  10.920 -0.0206 -0.1403 -0.0610
18175W        W33644  12.625   2.365   1.723  0.2341 -0.2078 -0.0502
18176W        W33645   3.732   8.919  14.098  0.1107  0.1710 -0.0810
18177W        W33646   2.816   3.170   3.388 -0.0706  0.0024  0.1431
18178W        W33647   4.766  16.234  11.528 -0.0301 -0.0827  0.3001
18179W        W33648   5.859  16.142   0.748  0.0634  0.0911  0.0382
18180W        W33649   0.509   0.337   3.896  0.1338  0.3890  0.1563
18181W        W33650   2.189  13.878  10.415 -0.1049 -0.0624 -0.0882
18182W        W33651   9.540   2.976  14.396  0.0449  0.1128  0.1263
18183W        W33652  11.762  15.606   0.677  0.0918  0.4455  0.0429
18184W        W33653   0.488  14.098   2.881  0.1643 -0.0713 -0.0050
18185W        W33654  14.639   1.346  15.274 -0.0266 -0.1889  0.2209
18186W        W33655  11.337  13.918   4.097 -0.1014 -0.4105 -0.0361
18187W        W33656   4.033   7.923   2.703 -0.2167 -0.3182  0.4137
18188W        W33657  17.938  14.815   0.241  0.4328  0.2180 -0.2833
18189W        W33658   2.969   8.943   1.405 -0.0481  0.2242  0.0186
18190W        W33659  15.021  14.787   3.035  0.0521  0.3497 -0.3001
18191W        W33660  17.237   0.824   2.938 -0.1233  0.0959 -0.0971
18192W        W33661  10.142   2.523  14.352 -0.0166  0.2441 -0.0651
18193W        W33662   2.815   2.762   2.528 -0.0147 -0.1949 -0.0043
18194W        W33663  15.169  11.154  10.715 -0.1541  0.2292  0.1194
18195W        W33664  15.663   0.361  10.920  0.1585  0.0047 -0.4073
18196W        W33665   3.829   2.048  14.201  0.0534 -0.0125  0.2533
18197W        W33666   1.627  15.744   1.620  0.3470 -0.1566 -0.1324
18198W        W33667   8.447   1.411   2.817  0.2388 -0.1963  0.0318
18199W        W33668  11.496  11.689   3.818 -0.1662  0.0593  0.0658
18200W        W33669  11.747   1.959   4.909  0.1815 -0.3329 -0.1462
18201W        W33670  16.840  11.158  13.880 -0.1342  0.0297  0.4789
18202W        W33671  11.849  11.435   3.021  0.0444 -0.2046 -0.4010
18203W        W33672  16.278  12.173  11.055  0.2186 -0.1263  0.2617
18204W        W33673  16.429   3.321   2.993 -0.1446  0.2106 -0.0920
18205W        W33674   7.610   1.859  11.161  0.0012  0.1046  0.0020
18206W        W33675  13.216   5.807  11.725  0.1113  0.1754  0.3300
18207W        W33676  18.268   3.250   4.966 -0.0522  0.1321 -0.0717
18208W        W33677  13.908   0.375   0.630  0.3378 -0.0430 -0.0567
18209W        W33678   3.915   3.168  10.254 -0.0965 -0.3783  0.3322
18210W        W33679  17.970   5.598   0.257 -0.1134  0.0005  0.6199
18211W        W33680   6.422  17.080  15.219 -0.0024  0.2128 -0.2317
18212W        W33681   9.381   7.678  13.272 -0.1259 -0.0140 -0.4588
18213W        W33682  17.153   6.054   3.002 -0.0958  0.0527  0.4695
18214W        W33683  11.604  16.495   4.210  0.1539  0.0211  0.0197
18215W        W33684   8.977  13.818  14.917  0.2049  0.0590  0.1208
18216W        W33685   3.410  17.979   2.475 -0.1630 -0.2989 -0.0524
18217W        W33686  12.133  13.816   5.155 -0.1294  0.1218 -0.0940
18218W        W33687  13.399   1.401  14.276 -0.2606 -0.0508 -0.1653
18219W        W33688   9.354   6.133   1.550 -0.0861 -0.0680  0.1426
18220W        W33689  13.196  11.365  15.500 -0.4153 -0.0711  0.0060
18221W        W33690   7.954   1.098   0.216 -0.3457  0.0231 -0.2175
18222W        W33691   8.607  14.003  15.449  0.1666 -0.1113  0.2074
18223W        W33692   7.146   2.648  12.526 -0.0136 -0.1391 -0.0853
18224W        W33693   3.321  11.693   0.463  0.1894 -0.1516  0.0144
18225W        W33694   6.271   6.229  12.537  0.2669  0.0831  0.0824
18226W        W33695  15.621  17.724   3.514 -0.0511 -0.0460  0.1258
18227W        W33696   0.477  18.029  13.760 -0.1005 -0.0911 -0.1010
18228W        W33697   5.736   8.945   1.153  0.2637 -0.0737 -0.0871
18229W        W33698  11.806   5.634   2.148  0.1181  0.1606  0.2911
18230W        W33699   9.341  11.988  12.042  0.3136  0.1793  0.1166
18231W        W33700  15.512   5.039   0.567 -0.2629  0.1462  0.1953
18232W        W33701  14.451   8.252   0.820  0.0116 -0.2101 -0.1346
18233W        W33702   2.683   4.525  14.364  0.3457  0.1717 -0.3330
18234W        W33703   7.813  12.369  11.068 -0.1803 -0.1075  0.1635
18235W        W33704  12.518  12.305   2.195  0.2517 -0.1391  0.5492
18236W        W33705   0.911  16.533  14.702 -0.1189  0.0052  0.0379
18237W        W33706  10.296  16.035  15.566  0.1645  0.0209  0.3463
18238W        W33707  17.546  16.935  11.306  0.2715 -0.2212 -0.0333
18239W        W33708   5.880  14.234  13.812  0.1108  0.1391 -0.0154
18240W        W33709   1.102   8.767   0.641  0.0464 -0.2746 -0.2505
18241W        W33710  14.755   6.922  11.411 -0.0691 -0.0976  0.4879
18242W        W33711  11.335  17.676   1.017  0.0382 -0.1043  0.0230
18243W        W33712   2.374   8.458   2.090  0.2278  0.0431 -0.1839
18244W        W33713   7.461  13.805  14.144  0.4854  0.0322  0.2115
18245W        W33714   8.530   4.463   0.163  0.1177 -0.0078 -0.0346
18246W        W33715   9.051   0.975   4.657 -0.0471 -0.2151 -0.0974
18247W        W33716  16.137  16.451   2.859  0.0638 -0.2389  0.1874
18248W        W33717   3.778  11.505  15.526  0.0237  0.0798 -0.1464
18249W        W33718   7.298  12.617   2.277  0.0963  0.0535 -0.0802
18250W        W33719  13.638  14.825   2.189 -0.2329  0.0194  0.0881
18251W        W33720   4.873  11.582   0.038 -0.3020  0.1031  0.1546
18252W        W33721   5.017   1.893   9.790 -0.1086 -0.0793 -0.0499
18253W        W33722  11.207   0.682   0.379 -0.1570  0.0130 -0.0331
18254W        W33723   4.726  12.856  13.412  0.0294 -0.2372  0.2784
18255W        W33724   8.953   9.476  12.802 -0.1003  0.0947 -0.1354
18256W        W33725   3.622   7.951  14.133 -0.1116  0.1679  0.2183
18257W        W33726   1.214   2.784  11.741  0.0819 -0.1994  0.3794
18258W        W33727   0.207  14.091   0.320 -0.0383 -0.1126  0.0343
18259W        W33728  13.391   9.134   3.838 -0.1029 -0.1800 -0.1171
18260W        W33729   4.877  14.460   2.302 -0.3499 -0.0243  0.2264
18261W        W33730  10.022  11.044  11.023 -0.1176 -0.2312  0.1903
18262W        W33731   3.630  18.485   5.111  0.1437 -0.2948 -0.1285
18263W        W33732   5.661   1.756   1.323  0.0243 -0.1089 -0.1283
18264W        W33733   3.670   6.343  12.084  0.0531  0.1794  0.0203
18265W        W33734   6.312  14.584   2.789 -0.0979  0.3056  0.1787
18266W        W33735   8.884  12.012  14.120  0.2493  0.2343 -0.0689
18267W        W33736   6.637  17.424   1.346 -0.1693  0.3009  0.3242
18268W        W33737  17.666   3.683   3.494 -0.3306 -0.2491 -0.1544
18269W        W33738  11.573   5.628  15.153  0.2214 -0.3338 -0.2804
18270W        W33739  10.291  17.074  15.646  0.2334  0.2780  0.2416
18271W        W33740   2.514  12.499  13.188 -0.0839  0.0766 -0.0556
18272W        W33741   1.370  11.235   5.909  0.1508 -0.1022 -0.0466
18273W        W33742  17.971   6.256   0.169  0.1645  0.0547  0.0717
18274W        W33743  16.666   0.707   0.480  0.4478 -0.0633 -0.0198
18275W        W33744   6.985  13.353   2.623 -0.2614  0.0454 -0.0361
18276W        W33745   7.390   5.847  14.756 -0.0512 -0.2053  0.1971
18277W        W33746  14.746   0.992  12.670 -0.1190  0.1596  0.0103
18278W        W33747   0.395  12.076   4.918 -0.0327 -0.1724  0.0399
18279W        W33748   9.117  17.603   1.924  0.2337  0.0840 -0.2096
18280W        W33749   3.524  16.992   1.402  0.0057 -0.3024  0.3076
18281W        W33750  12.319   4.832  14.722  0.2614 -0.3597  0.1444
18282W        W33751  17.320   9.970   5.229 -0.1016  0.0895  0.4806
18283W        W33752   3.336  16.231  10.773 -0.2362  0.2928 -0.0738
18284W        W33753  16.785  17.600  13.125  0.0410 -0.1184  0.2116
18285W        W33754   5.948   9.426  14.809  0.0857 -0.1249  0.3104
18286W        W33755   3.681  14.971   2.691  0.1708  0.1212 -0.0834
18287W        W33756   5.030   6.664  13.371 -0.0301  0.1276 -0.0174
18288W        W33757   0.288   0.034  11.183 -0.2953 -0.0560 -0.4278
18289W        W33758  14.818   2.129   2.214  0.0901 -0.0314  0.2387
18290W        W33759  17.077  12.921  14.516  0.0086  0.0597  0.0170
18291W        W33760   0.548   8.274  15.331 -0.3948  0.0608 -0.0543
18292W        W33761  15.477   6.893   4.925 -0.0356  0.3336  0.1121
18293W        W33762   3.264  12.901   4.022 -0.0694  0.0977  0.0050
18294W        W33763   1.182   9.184   1.916 -0.2951 -0.0128 -0.1117
18295W        W33764   1.027   3.825  10.863  0.0468  0.3566  0.2973
18296W        W33765   7.537   1.063   0.743 -0.1107 -0.0440  0.4158
18297W        W33766   8.211  18.418   4.213  0.2186 -0.5641  0.1965
18298W        W33767   8.148  11.330   1.724 -0.3017  0.2186  0.0842
18299W        W33768  11.978  16.525   3.856 -0.0116  0.0548  0.2275
18300W        W33769   6.283  18.225   3.029  0.1068  0.1789 -0.1600
18301W        W33770   6.313  12.459   3.781  0.2694  0.1626 -0.0089
18302W        W33771   8.600   2.295   4.590 -0.0051  0.0176 -0.2281
18303W        W33772   6.074  15.752   0.880  0.0406  0.2651  0.0685
18304W        W33773  17.149   7.621   2.478  0.4493  0.2232 -0.1785
18305W        W33774   6.242   9.989  11.360 -0.0604 -0.0058  0.1753
18306W        W33775  10.179   6.206  13.621  0.2271 -0.0109  0.1681
18307W        W33776  17.389   2.538   3.995 -0.0318 -0.1339  0.1989
18308W        W33777   2.289  13.500   4.684 -0.1866 -0.1250 -0.0916
18309W        W33778  17.725   4.903  13.254  0.1035 -0.0713  0.0991
18310W        W33779  14.354   9.286  15.692  0.2454 -0.3028  0.0520
18311W        W33780  13.423   6.333  15.555  0.1547 -0.1431 -0.2477
18312W        W33781   5.940  11.023   0.208  0.1487 -0.0296 -0.0447
18313W        W33782  14.859  10.224  12.704  0.0244 -0.3109 -0.0579
18314W        W33783  13.503   6.574   4.499 -0.1204 -0.1389  0.1368
18315W        W33784   8.015   6.169   5.584  0.1614 -0.1319 -0.2538
18316W        W33785   9.789   2.111   2.564 -0.4265  0.3205  0.0173
18317W        W33786   2.544   1.752   4.034 -0.1880  0.2187 -0.4030
18318W        W33787  13.494   5.241   4.268 -0.2446 -0.3077 -0.2508
18319W        W33788  12.976  14.533   0.049 -0.0636  0.1153  0.0214
18320W        W33789   4.125   7.854  14.363 -0.1936 -0.2753 -0.0955
18321W        W33790  16.074  11.527   1.219 -0.1490 -0.0741 -0.3256
18322W        W33791   8.976  10.299   3.245  0.2238 -0.0666 -0.0176
18323W        W33792   2.018   2.298   4.527 -0.0553  0.1140 -0.0767
18324W        W33793  10.203   1.647  14.512  0.0251  0.2429 -0.2460
18325W        W33794  10.172  14.617  11.971  0.1304  0.2060 -0.3442
18326W        W33795   7.859   0.750   3.721 -0.1116  0.0825 -0.2909
18327W        W33796  14.960   5.801  13.849 -0.1647  0.0464 -0.0720
18328W        W33797  10.412   5.027  15.078 -0.2009  0.1353 -0.0538
18329W        W33798   0.387  17.635  13.364 -0.3121  0.0286  0.1858
18330W        W33799  10.780   0.655   5.097  0.2409  0.0696 -0.2126
18331W        W33800  17.657   9.202   4.782 -0.0323 -0.3784  0.2283
18332W        W33801  16.732  13.562   0.690  0.1171  0.3683 -0.1130
18333W        W33802   4.610   4.155  14.937 -0.0174 -0.1079  0.6329
18334W        W33803  15.670   9.054  13.718  0.0534 -0.0452 -0.1075
18335W        W33804  18.259  10.549   3.499  0.0612 -0.3774  0.2654
18336W        W33805   2.214   2.945  11.173  0.0995  0.4677 -0.1686
18337W        W33806   7.567   0.873  14.075 -0.3671 -0.0662  0.3678
18338W        W33807   3.337   7.172  12.590  0.1531 -0.1485 -0.4370
18339W        W33808   2.844  12.987  14.424  0.0329  0.0945 -0.1870
18340W        W33809   9.317   5.618   2.715  0.1706  0.1249  0.0311
18341W        W33810  17.709   4.269  13.934  0.2456  0.3212 -0.0990
18342W        W33811   7.528   9.167   5.398  0.0825 -0.1718 -0.1547
18343W        W33812  12.564   4.288   3.119 -0.0731  0.0635 -0.0525
18344W        W33813   3.243  16.920   0.065  0.1016  0.2313 -0.0644
18345W        W33814   7.160   0.954   0.334  0.0591  0.2561 -0.0927
18346W        W33815   2.418   1.641   1.895  0.0219 -0.0180 -0.0026
18347W        W33816   8.810   2.841  10.915  0.0488 -0.2235 -0.0906
18348W        W33817   7.614  18.315  11.556  0.2279 -0.5758 -0.0061
18349W        W33818   6.482   2.526   0.005 -0.1514  0.0960  0.1286
18350W        W33819   7.933   5.115   9.918 -0.2376 -0.3728 -0.1772
18351W        W33820   0.062  17.041  12.576  0.0528 -0.3614 -0.1109
18352W        W33821  16.516   5.760   1.541  0.0601 -0.2493 -0.0292
18353W        W33822  16.267  10.178   1.606  0.2501  0.0707 -0.2680
18354W        W33823  13.547   4.156   5.919  0.2179 -0.5076 -0.1066
18355W        W33824  16.899   7.315  12.920 -0.0912 -0.1531 -0.0576
18356W        W33825  14.964  16.087  12.740 -0.0654 -0.4821  0.1090
18357W        W33826  17.447   7.272   4.343 -0.1005  0.0324 -0.0646
18358W        W33827  14.334   7.501  11.783 -0.0224 -0.3166 -0.1393
18359W        W33828   5.266   9.082  11.351 -0.1336 -0.0658  0.0280
18360W        W33829   7.249   3.845  14.195 -0.0828  0.1891 -0.1488
18361W        W33830  16.278   1.239   2.003 -0.0853 -0.0519 -0.1228
18362W        W33831   3.816  16.450  11.265 -0.1831 -0.1490  0.1910
18363W        W33832   6.181   8.622   2.977 -0.4569  0.0233 -0.1323
18364W        W33833  16.459   8.941   4.251  0.0304  0.0187 -0.0119
18365W        W33834   6.198  13.448  11.870 -0.0848 -0.0541  0.0087
18366W        W33835  14.084   5.431  14.886  0.1053  0.1772  0.3352
18367W        W33836   2.543   7.493  14.159 -0.2906 -0.0983 -0.1693
18368W        W33837  16.236  11.702   0.786  0.0138  0.1382  0.0237
18369W        W33838  18.105  16.698   4.952 -0.2680  0.1601  0.3524
18370W        W33839  16.528  15.818   1.770 -0.1115  0.1905  0.3558
18371W        W33840  15.060   6.121  13.399 -0.1266  0.0146 -0.0529
18372W        W33841   2.198  17.551   0.371  0.5046  0.0578  0.2306
18373W        W33842  17.239  18.346  10.928 -0.2172 -0.0965  0.1597
18374W        W33843  18.477  11.439   2.190  0.1233  0.0281  0.0381
18375W        W33844   7.420   3.590  10.834  0.2235 -0.0291 -0.4008
18376W        W33845  17.533   5.862   5.153  0.1280 -0.1285 -0.4181
18377W        W33846   8.415   6.835   0.634  0.0667 -0.0594  0.3725
18378W        W33847  17.307  15.447  10.425  0.4712 -0.1257  0.1944
18379W        W33848   3.987  13.302   1.845  0.0121 -0.0349 -0.1453
18380W        W33849   6.226   4.016   1.227  0.1582 -0.3799  0.4041
18381W        W33850  10.670   1.506  15.296  0.3638 -0.2923 -0.2205
18382W        W33851  17.904  16.797   5.517 -0.2393  0.0072  0.0627
18383W        W33852   1.563  15.975  14.869  0.3353  0.2449 -0.1978
18384W        W33853  14.079   1.234  13.518  0.0005 -0.0277 -0.1182
18385W        W33854  12.278   3.774   0.700 -0.0782  0.1315  0.3092
18386W        W33855  10.142   4.435  13.768 -0.3798 -0.0679  0.2887
18387W        W33856   8.623   3.301  15.696  0.1432 -0.1433 -0.1671
18388W        W33857  13.102  14.033   2.927  0.3101 -0.0099 -0.2562
18389W        W33858   3.157  14.768   0.767  0.2408  0.0099  0.1777
18390W        W33859   0.955   0.015  15.705  0.3666  0.0186 -0.3882
18391W        W33860  10.504  15.660   4.193 -0.2687  0.2414 -0.1265
18392W        W33861  17.845  16.798  15.605 -0.1323 -0.1686 -0.0772
18393W        W33862   8.786  12.970   3.477  0.1622 -0.1391  0.4558
18394W        W33863   4.648   8.751  14.053  0.3986  0.0366  0.0663
18395W        W33864   6.074   7.041   5.508  0.3747 -0.1276  0.1633
18396W        W33865  12.139  13.238   4.951 -0.0577  0.1488 -0.1187
18397W        W33866   9.446   5.097  10.382  0.0451  0.2266  0.0773
18398W        W33867  16.954  14.154  12.055 -0.0293  0.2070 -0.0660
18399W        W33868  13.529   6.333  13.284 -0.1911 -0.2042  0.1563
18400W        W33869   9.483  10.114   4.369  0.4486  0.1290  0.2471
18401W        W33870   2.848   9.717   3.424  0.0511 -0.3146  0.0444
18402W        W33871  11.814  13.946  15.622  0.0903  0.0042 -0.1418
18403W        W33872  17.587   1.792   3.828  0.0441 -0.0338  0.0370
18404W        W33873  15.876  10.475  13.775 -0.0881  0.0307 -0.3395
18405W        W33874  18.531   8.549  11.531  0.2355 -0.0250  0.1774
18406W        W33875   9.678  14.834  11.942 -0.3178  0.0619 -0.2330
18407W        W33876  11.015   1.498   2.163  0.0833  0.2522 -0.3163
18408W        W33877  16.912   1.799  11.416  0.2457 -0.3136  0.1951
18409W        W33878   0.389   7.374  10.558 -0.1677  0.1411 -0.3674
18410W        W33879   5.596   2.959   3.992  0.3262  0.0339  0.0689
18411W        W33880   1.726   0.273  10.529 -0.1160  0.1933 -0.0677
18412W        W33881   0.585   6.082  12.085 -0.0800  0.1492  0.1776
18413W        W33882   6.628   5.652   0.878 -0.0122  0.1220  0.3244
18414W        W33883   7.366   6.605   2.698 -0.0206 -0.1105  0.0071
18415W        W33884  16.629   1.955   4.957 -0.1307 -0.1213  0.1004
18416W        W33885   0.747  13.935  14.572 -0.1120 -0.3348 -0.2856
18417W        W33886   4.270   0.165  11.123 -0.1662 -0.0180  0.2651
18418W        W33887  15.736   9.111   2.262  0.1849 -0.1372  0.0865
18419W        W33888   3.472   0.113   3.460  0.2081 -0.3216 -0.0205
18420W        W33889  12.499   5.719  14.786  0.1478 -0.1599  0.0958
18421W        W33890   9.091   4.442   3.587 -0.0059 -0.0153  0.3365
18422W        W33891  11.931  10.920   5.150  0.1108  0.2596  0.1754
18423W        W33892  16.013   4.093   1.252  0.0228 -0.0933  0.1533
18424W        W33893   7.969  17.736  11.888 -0.0071 -0.2843  0.5179
18425W        W33894   3.792  17.964   3.372 -0.0194 -0.1772  0.1718
18426W        W33895  18.413   8.342   4.797 -0.1218  0.0093  0.1752
18427W        W33896   9.571   9.900   5.824 -0.1537  0.0084 -0.0257
18428W        W33897   2.155   4.334   2.408  0.0364 -0.0296 -0.2346
18429W        W33898  16.889  12.134   3.478 -0.2177 -0.3411  0.1662
18430W        W33899   8.718   8.049   1.204 -0.0311  0.1092 -0.2183
18431W        W33900   2.609  11.254   5.656  0.0174  0.1392 -0.2239
18432W        W33901   1.528   0.528  12.780  0.0899 -0.2299 -0.0298
18433W        W33902  16.582  14.126  12.737  0.2155 -0.1418  0.1638
18434W        W33903  10.367   0.926   1.998  0.0253  0.0204 -0.2812
18435W        W33904  16.136  14.213   4.095 -0.1062 -0.0614  0.0003
18436W        W33905   8.488   5.396   0.887 -0.0505  0.0474  0.2774
18437W        W33906   4.659  11.651   3.210 -0.0781  0.1870  0.0704
18438W        W33907  17.639  13.512  13.225  0.1691  0.0221  0.3720
18439W        W33908   7.423  17.861   1.002  0.0796  0.0395  0.2337
18440W        W33909  16.224   1.594   0.029 -0.2197  0.0319  0.0184
18441W        W33910  18.249   6.317  12.279  0.0758  0.0737 -0.2668
18442W        W33911   6.758   7.745   3.082  0.1698  0.1633 -0.1473
18443W        W33912   8.283   5.923  13.825  0.0309  0.1860 -0.0657
18444W        W33913  13.409   8.992   3.314 -0.2839  0.3629  0.5021
18445W        W33914   9.179  15.502   0.052  0.2740 -0.2054  0.3631
18446W        W33915   9.124   4.300  13.272  0.0559  0.0810  0.1888
18447W        W33916  14.486   4.176  10.986 -0.3577  0.3550 -0.1399
18448W        W33917  12.607  15.531   4.459 -0.1143 -0.0444 -0.1515
18449W        W33918  14.827   7.707   1.745 -0.0568  0.0801 -0.2115
18450W        W33919  18.622   5.585  12.565 -0.0420 -0.3130  0.3402
18451W        W33920  17.797   5.060  15.058 -0.2907  0.2547 -0.2972
18452W        W33921  10.470  15.707  13.491 -0.1917 -0.0369 -0.2436
18453W        W33922   0.428  14.064  14.152 -0.0114 -0.1176 -0.0218
18454W        W33923   7.221  13.623  11.323 -0.1369 -0.0098  0.0533
18455W        W33924  12.149   0.537  12.171 -0.1342 -0.1596  0.2707
18456W        W33925  10.233   0.990  10.582 -0.1932 -0.0726 -0.0472
18457W        W33926  13.114  11.087   1.161  0.1006 -0.1201 -0.0403
18458W        W33927  18.303  12.009   2.343  0.3087 -0.3678 -0.2108
18459W        W33928  12.926  15.593   0.946 -0.2019 -0.1054 -0.0571
18460W        W33929   3.504   8.870   5.126 -0.0720 -0.3660  0.0649
18461W        W33930   2.680   7.295   3.670  0.1462  0.1077 -0.1392
18462W        W33931   7.750   2.314  15.711  0.0152  0.1267  0.0798
18463W        W33932   4.207   7.151   2.221 -0.3016 -0.2473 -0.0485
18464W        W33933   2.605  16.094  14.190 -0.1470  0.0136  0.2503
18465W        W33934   6.908  17.122  11.922  0.1425 -0.0708  0.1136
18466W        W33935  18.310   6.381   4.237  0.1328  0.1953  0.2156
18467W        W33936   2.883   8.440  15.135 -0.2170  0.0535 -0.0477
18468W        W33937   8.116  13.738   1.955 -0.3667 -0.0438 -0.2310
18469W        W33938  14.255   8.024   5.144 -0.0845  0.2092 -0.1129
18470W        W33939  15.331   6.557  13.228 -0.3898  0.0087 -0.1253
18471W        W33940   9.514   4.994   1.267  0.2662 -0.0327 -0.1697
18472W        W33941   6.808  16.499  15.294 -0.0375 -0.0040  0.2503
18473W        W33942   0.136  11.983  12.090  0.0359  0.0510 -0.1221
18474W        W33943   8.660   7.159   2.431 -0.2677  0.2051 -0.0045
18475W        W33944  14.101   4.895   4.763 -0.0112 -0.2678  0.0156
18476W        W33945   2.431   1.547  12.310  0.0305 -0.2273 -0.0716
18477W        W33946   1.776  13.923   5.343 -0.3774 -0.0319 -0.2566
18478W        W33947   4.525  15.682   3.592  0.2316 -0.0486 -0.1178
18479W        W33948   2.272   6.327   0.166 -0.0131 -0.0201 -0.0442
18480W        W33949  10.531   5.883   1.974  0.0718 -0.3061  0.1777
18481W        W33950  16.688   8.660  12.314 -0.1163 -0.1798 -0.0408
18482W        W33951  10.154   3.709   3.913  0.2356  0.0723  0.2102
18483W        W33952  13.944  16.093  15.746 -0.1798  0.0554 -0.3019
18484W        W33953   4.293   4.759   4.695 -0.1576  0.0320  0.1764
18485W        W33954   8.147   1.881   3.640 -0.2386 -0.1033  0.1698
18486W        W33955  17.635   9.917  14.118 -0.1063 -0.2369  0.2630
18487W        W33956   1.882  17.763   4.438  0.2332 -0.0196  0.0520
18488W        W33957   6.808   9.099   5.029 -0.2747 -0.0674 -0.0952
18489W        W33958   6.072  13.163   2.914 -0.1194 -0.3419  0.0833
18490W        W33959   0.242   7.201  14.544  0.1044 -0.1817  0.1613
18491W        W33960  16.454   8.196  11.539 -0.4006 -0.1580 -0.1270
18492W        W33961   8.351   7.313  12.394  0.2674 -0.0855 -0.0659
18493W        W33962   7.151  10.358   4.146 -0.2973 -0.1136  0.0990
18494W        W33963  15.934   1.524  11.737  0.1710  0.0185 -0.1453
18495W        W33964  14.756   5.742  14.781  0.0168 -0.0055 -0.2336
18496W        W33965  11.504   9.900   1.185  0.2247  0.0352  0.1086
18497W        W33966  17.328  12.365   5.225 -0.1527 -0.1598 -0.5495
18498W        W33967   2.091   7.853  11.306 -0.1864 -0.1475 -0.2325
18499W        W33968  14.689  13.333  15.273  0.2963  0.1624  0.0083
18500W        W33969  17.551   3.552   4.948  0.2251  0.0538  0.2102
18501W        W33970   5.103  10.345  14.013 -0.0296 -0.4638 -0.0070
18502W        W33971   6.296   0.548   3.781  0.0958  0.1312 -0.0724
18503W        W33972   7.805   2.050   4.833 -0.1433  0.0696  0.4635
18504W        W33973  12.630  18.122   3.563  0.2534  0.0122 -0.0439
18505W        W33974   3.691   9.762   3.680 -0.0601 -0.0005  0.0308
18506W        W33975  12.199   8.517   5.425 -0.1992  0.0443  0.3375
18507W        W33976   6.275  12.732   4.233 -0.0299 -0.0913 -0.1239
18508W        W33977  15.087   9.282   3.602  0.0362  0.1102 -0.1468
18509W        W33978  12.096  12.405  13.493  0.0846  0.1933  0.2810
18510W        W33979  11.377  18.256   4.500 -0.0356 -0.5228 -0.1462
18511W        W33980   2.723   9.082  12.437 -0.2380  0.1904  0.1697
18512W        W33981   6.197   6.566   0.040  0.1102 -0.2649 -0.1627
18513W        W33982  11.112   5.161  12.205 -0.0515  0.1213  0.1490
18514W        W33983   8.509   8.201  14.469  0.2526  0.3195 -0.1239
18515W        W33984   0.382   0.716   4.243  0.0020 -0.1696 -0.0073
18516W        W33985   9.853   4.780   3.127 -0.3093 -0.0244  0.0161
18517W        W33986  15.746  18.015  11.694  0.1577  0.2297  0.0116
18518W        W33987  14.819  13.734  11.484  0.0602 -0.2420  0.3889
18519W        W33988   6.978   3.369  13.966 -0.0671  0.2853 -0.0304
18520W        W33989  15.635   3.491  12.327  0.2400  0.0363 -0.3817
18521W        W33990  11.434   6.629  14.615  0.0840  0.0138  0.0490
18522W        W33991   8.261  17.345  13.670  0.1537  0.2390 -0.0594
18523W        W33992   4.270  11.413  15.196  0.1295 -0.0672  0.0276
18524W        W33993   0.591   3.680  13.262  0.1917 -0.1107 -0.1441
18525W        W33994   7.998   6.141   0.377  0.2554  0.0209  0.1013
18526W        W33995  13.950   2.364   3.337  0.0832  0.1691 -0.0044
18527W        W33996  18.470   7.969   3.515  0.1182 -0.0846 -0.0050
18528W        W33997  11.483  16.588  11.538  0.2181 -0.1304 -0.1563
18529W        W33998  16.689  17.999  13.470  0.0119  0.3926 -0.2438
18530W        W33999  14.961  14.373  11.131 -0.0160  0.0913  0.1263
18531W        W34000   3.479  15.947  12.970  0.0976 -0.0826 -0.1128
18532W        W34001   3.926   0.760   2.639 -0.2670 -0.1010 -0.0108
18533W        W34002   1.589  10.817  12.582 -0.1001 -0.5410 -0.2573
18534W        W34003  16.888  10.644   3.499  0.2024  0.0142  0.0929
18535W        W34004  16.265   4.394  15.033 -0.0767 -0.0011  0.0529
18536W        W34005   6.768   2.652   3.028 -0.0806 -0.0927 -0.0084
18537W        W34006  11.222  16.766   1.027 -0.2301  0.0622  0.1238
18538W        W34007  10.667  16.017  11.309  0.0473  0.2663  0.0118
18539W        W34008   4.081   2.393  12.218 -0.0069 -0.1233  0.1744
18540W        W34009   8.399   3.525  11.531  0.3700  0.1870  0.0152
18541W        W34010  16.728   1.885  15.671 -0.2451 -0.2496  0.1726
18542W        W34011  15.305  14.812  13.328 -0.1329  0.1011  0.0899
18543W        W34012  15.091  18.156   2.768 -0.1881  0.1623  0.0823
18544W        W34013   6.800  14.640  11.232 -0.1451 -0.2178 -0.4271
18545W        W34014   9.277   7.246  12.305 -0.2524  0.0192 -0.2328
18546W        W34015  17.166  17.500  10.780 -0.0848 -0.3868  0.1711
18547W        W34016   1.270   9.155   3.826  0.1656 -0.0068  0.4295
18548W        W34017  17.161  10.756  11.138  0.1269 -0.0322  0.2316
18549W        W34018  15.215   6.176  14.719 -0.1333 -0.3996 -0.0721
18550W        W34019  10.849  11.063  12.717 -0.1940  0.1057 -0.0477
18551W        W34020  18.490   7.745  13.963  0.0975  0.1416  0.0415
18552W        W34021   7.017   7.829   2.173  0.1955  0.0944  0.0808
18553W        W34022   7.034   8.610  13.645 -0.2030 -0.1800 -0.0628
18554W        W34023  11.114   1.239   4.160  0.2148 -0.0322  0.0564
18555W        W34024  16.573  12.755   2.059 -0.2375  0.0695 -0.3045
18556W        W34025  16.268   8.864  10.848 -0.0357 -0.5995  0.0547
18557W        W34026  11.902  16.900   4.410 -0.1578  0.0873 -0.2228
18558W        W34027   4.393  12.886  11.184 -0.1737 -0.0862  0.0212
18559W        W34028  16.052  16.503   3.789 -0.4493  0.0641 -0.1380
18560W        W34029  12.139   9.585  13.682  0.1336 -0.2938  0.1302
18561W        W34030  14.572  14.081   5.291  0.0852 -0.4485 -0.0296
18562W        W34031  16.211  10.928   5.235  0.1577 -0.1699  0.0946
18563W        W34032   2.740   1.020  15.394  0.0414  0.1654  0.0284
18564W        W34033  13.488   7.761  14.135 -0.0169  0.1448  0.3083
18565W        W34034  10.670   0.469   3.323  0.0705 -0.0298  0.3426
18566W        W34035  13.175   7.538   1.562 -0.0728  0.0983 -0.2802
18567W        W34036   3.977  18.376   4.190 -0.2599 -0.0925  0.1192
18568W        W34037   7.980   5.826   4.489 -0.1554 -0.2536  0.1582
18569W        W34038   2.219  14.606   2.431 -0.0434  0.0916  0.1187
18570W        W34039   2.635   9.971  13.075 -0.4792  0.1827 -0.1086
18571W        W34040  18.338   1.955   1.145  0.1366 -0.1973 -0.0822
18572W        W34041  10.336  13.641   0.079  0.2410 -0.1997 -0.1797
18573W        W34042  14.496   7.260  13.754 -0.1468 -0.0095 -0.1997
18574W        W34043  18.488  18.006  15.276  0.1129 -0.0639 -0.1553
18575W        W34044   4.040  10.391  12.954 -0.0940  0.2218 -0.0533
18576W        W34045   5.763   9.725   1.982  0.0954  0.0606  0.0834
18577W        W34046  18.201  11.693  11.555  0.1688 -0.3968 -0.3510
18578W        W34047  12.723  11.579  15.736  0.0966 -0.0872 -0.1356
18579W        W34048  10.517   3.346   5.434  0.5416 -0.0598 -0.2347
18580W        W34049  14.675   4.823  14.767 -0.0820  0.0295  0.2107
18581W        W34050  18.185  15.418  15.091 -0.3538  0.0438 -0.1023
18582W        W34051   1.610  14.939  14.538  0.0927  0.0635  0.0568
18583W        W34052  15.106   8.329  14.751 -0.3868 -0.0352 -0.4443
18584W        W34053  11.398  15.965   5.053 -0.0721 -0.0259 -0.0959
18585W        W34054   5.516   5.663   0.615 -0.1086  0.1327 -0.0504
18586W        W34055  16.557  18.681  10.686  0.1176  0.0690  0.4425
18587W        W34056  14.170   8.983  12.612 -0.1341  0.1796 -0.3206
18588W        W34057   1.285  13.029  13.567 -0.0234 -0.0557 -0.3550
18589W        W34058  15.643   4.778  12.378 -0.0705  0.4350  0.1112
18590W        W34059  13.740  12.751  13.873  0.0016 -0.2363 -0.1385
18591W        W34060  18.436   7.008   3.746 -0.1322  0.1159  0.1987
18592W        W34061  17.015   2.673  11.671 -0.5241  0.0866 -0.0088
18593W        W34062  15.936  14.616  15.465  0.3797 -0.0616 -0.0564
18594W        W34063   4.751  18.541   3.518 -0.1047 -0.0628 -0.2443
18595W        W34064  17.138  10.396   5.107 -0.2505 -0.1578 -0.1472
18596W        W34065  14.915   8.239   1.298 -0.0202 -0.2866 -0.0348
18597W        W34066  11.795   3.802   9.705  0.6301 -0.0227  0.0583
18598W        W34067  14.944  17.656  14.187 -0.2767  0.2351 -0.1073
18599W        W34068   6.445  17.813  10.869 -0.1180  0.1281  0.6111
18600W        W34069  14.471   6.041   2.221 -0.0828 -0.1074  0.0761
18601W        W34070   8.660   4.543   4.451 -0.1689 -0.0698  0.0592
18602W        W34071  12.532  10.107  15.389 -0.1708  0.0725  0.3614
18603W        W34072  12.544  13.369  11.352  0.0697 -0.3288 -0.1628
18604W        W34073  12.621  12.768   2.167 -0.2025  0.0501 -0.0007
18605W        W34074   1.970  17.824   4.898 -0.0319 -0.0662 -0.0635
18606W        W34075   8.077   6.327   4.436  0.0781 -0.4912  0.2782
18607W        W34076  17.506   0.305   2.014  0.2836  0.4109 -0.2729
18608W        W34077  15.196   2.038  15.442  0.0545 -0.3508  0.0024
18609W        W34078  18.070  11.881  15.589  0.2291 -0.2253 -0.0156
18610W        W34079   9.393   1.478  13.203  0.0340  0.3052 -0.0701
18611W        W34080  11.148   1.251   5.585  0.2512 -0.1706  0.1042
18612W        W34081   7.380   9.421   3.064  0.0768 -0.3869 -0.1314
18613W        W34082   7.276  12.112   5.141  0.0166 -0.0769 -0.1989
18614W        W34083   5.045  10.834  14.188 -0.2993  0.1313  0.0101
18615W        W34084   2.722  16.546   4.822  0.2310 -0.4717 -0.0458
18616W        W34085  15.925  16.335  14.234  0.1093 -0.2316 -0.2130
18617W        W34086  10.369   9.656   4.581  0.1129  0.2000 -0.1116
18618W        W34087   9.493   2.796   1.884  0.0096  0.1289  0.0689
18619W        W34088   3.048   0.708  11.493 -0.3869 -0.1078  0.4862
18620W        W34089   2.212  13.880   3.504 -0.1805 -0.1878  0.3498
18621W        W34090  10.270  18.015   1.053 -0.2424 -0.2513 -0.1674
18622W        W34091   2.359   0.057   3.747  0.0812 -0.0586 -0.0004
18623W        W34092  11.181  17.359   5.744 -0.1686 -0.0053  0.1164
18624W        W34093  12.455   5.214  13.510  0.1295 -0.1236  0.1981
18625W        W34094   7.501  16.984   3.020 -0.2007  0.0322  0.0434
18626W        W34095  15.446   4.926  13.675 -0.1316  0.3045  0.3063
18627W        W34096   6.062   8.057   5.220  0.1269 -0.0238  0.1690
18628W        W34097  14.044   9.055   1.077  0.2100  0.2244 -0.1942
18629W        W34098   7.621  10.209   3.966 -0.1200  0.2273 -0.1084
18630W        W34099   9.404  13.334   2.729 -0.2954  0.1508 -0.0206
18631W        W34100  10.869  15.669  14.822  0.0470 -0.0474  0.2182
18632W        W34101  16.750  18.358  11.342 -0.0162 -0.2271 -0.0211
18633W        W34102  14.355   4.352   1.167 -0.0906  0.3240  0.0459
18634W        W34103   4.153  18.643  12.057 -0.2328  0.2523  0.1417
18635W        W34104  10.645  10.485   0.349 -0.3627  0.1066  0.4143
18636W        W34105  17.047   6.343  11.620  0.3542 -0.0461  0.0788
18637W        W34106  15.751   4.984   2.276  0.1794  0.1860  0.0815
18638W        W34107  13.535  16.282  12.814  0.2031 -0.1610 -0.4123
18639W        W34108  11.889  12.468   2.811 -0.3578 -0.1197  0.2502
18640W        W34109   5.208   3.980   4.567  0.1579 -0.0170 -0.0748
18641W        W34110  13.448   9.428   2.693  0.0984  0.1293  0.3169
18642W        W34111  16.164  13.565  11.147 -0.0576 -0.1704  0.0177
18643W        W34112   9.014   4.568   0.475  0.1615  0.0650 -0.0344
18644W        W34113   0.823   1.559  14.328 -0.2542  0.1258  0.0953
18645W        W34114  15.102  13.796  13.292  0.0746 -0.2687  0.0088
18646W        W34115   4.046  18.420   2.331 -0.0477  0.0848 -0.1660
18647W        W34116  11.367  14.331   4.803 -0.2571  0.1631 -0.3010
18648W        W34117  12.101  16.078   1.947 -0.0761 -0.4580  0.0650
18649W        W34118  17.388   4.026  12.234 -0.0423 -0.1205 -0.1359
18650W        W34119   9.919   8.016   2.714  0.2205  0.1777 -0.1476
18651W        W34120  13.167   8.388   1.080  0.1466 -0.0926  0.0413
18652W        W34121  10.800   0.935   3.190 -0.0772 -0.0462 -0.3207
18653W        W34122   9.949   0.541  12.988  0.1297  0.0618 -0.3524
18654W        W34123  17.252  11.843  11.356 -0.3329  0.1650 -0.0062
18655W        W34124   0.723  16.521   2.213 -0.2198  0.1676  0.0452
18656W        W34125  12.834   3.750   0.821 -0.2501  0.3297  0.2768
18657W        W34126  17.604  17.412  13.473 -0.1614 -0.1263  0.3416
18658W        W34127   9.458  15.377  11.077  0.1106 -0.2445  0.2227
18659W        W34128   6.584   8.481  11.747 -0.3505 -0.0007  0.1165
18660W        W34129  12.630   7.383  14.630 -0.2023  0.1826 -0.1000
18661W        W34130  15.613   6.223  12.490  0.2144  0.2881 -0.1529
18662W        W34131   8.552   3.411   2.600 -0.2452  0.4139 -0.5671
18663W        W34132   3.677  15.076  10.680 -0.0109  0.2291 -0.2326
18664W        W34133   1.483   1.704   3.011  0.0786 -0.1049  0.2979
18665W        W34134  11.038   1.777   5.397 -0.0394  0.1440 -0.0412
18666W        W34135  10.852   0.311   4.617 -0.2520 -0.0737  0.0112
18667W        W34136  14.119   4.134   9.877 -0.0996 -0.0247 -0.0582
18668W        W34137   0.980  12.002   5.145  0.1162  0.0271 -0.2417
18669W        W34138   2.632   7.095  15.696 -0.1238 -0.0060 -0.0421
18670W        W34139  15.812   4.725  11.885  0.0765 -0.0683  0.0461
18671W        W34140   1.196  10.305   5.607  0.0714 -0.1032  0.0980
18672W        W34141   9.145  16.537   3.425  0.1746  0.0168  0.2058
18673W        W34142   3.279  14.930  10.984  0.2236 -0.2481  0.1316
18674W        W34143   3.080   5.861   0.132 -0.1701  0.2625  0.0665
18675W        W34144   9.338   7.853   4.118 -0.1533  0.3509 -0.0288
18676W        W34145   8.804   1.797  10.607 -0.0864 -0.3208  0.0572
18677W        W34146   1.140  18.665  11.408  0.3037  0.0634  0.0163
18678W        W34147   2.085   1.401  10.873  0.1646  0.0359  0.3641
18679W        W34148  17.088   2.720   9.847  0.0452  0.0005 -0.0105
18680W        W34149  10.442  18.467   0.840 -0.4672  0.1700  0.0582
18681W        W34150  16.560   7.632  12.674 -0.2839  0.0212 -0.1492
18682W        W34151   3.804  11.978   4.618  0.0354 -0.0107  0.0799
18683W        W34152  17.414  11.454   0.688  0.1110 -0.0545 -0.2067
18684W        W34153   7.538   4.674  12.401  0.1016 -0.0437  0.0514
18685W        W34154  16.312  14.340  11.018 -0.1620  0.0406 -0.3550
18686W        W34155  16.095   3.948  10.312  0.1012 -0.2793  0.2197
18687W        W34156   4.663   0.549  13.884 -0.0904 -0.1915 -0.3199
18688W        W34157   5.281   5.837  12.687 -0.0027  0.1224 -0.1631
18689W        W34158   0.704   5.617   1.995 -0.1809  0.0595 -0.0455
18690W        W34159  14.441  14.471   1.759 -0.0293 -0.0053  0.3267
18691W        W34160  13.188  14.096  12.635 -0.0783  0.1696 -0.3151
18692W        W34161   2.244   7.949   4.081  0.1683 -0.0137 -0.1079
18693W        W34162  12.838   7.807  14.945 -0.0608 -0.0691 -0.0925
18694W        W34163  14.170  17.563   2.617 -0.2468 -0.1261  0.0668
18695W        W34164   6.747   1.742   2.539 -0.0430 -0.1180 -0.1255
18696W        W34165   7.526  14.077   2.842 -0.0442  0.1067 -0.3039
18697W        W34166   0.671   1.125  14.423 -0.0870  0.1049 -0.1692
18698W        W34167  14.352   0.403   2.419  0.2622 -0.1314 -0.2554
18699W        W34168  12.355   1.881  10.928  0.2815  0.2723 -0.0341
18700W        W34169  18.221  17.993   2.937 -0.1203  0.2273 -0.4121
18701W        W34170   6.360  16.389   3.519 -0.3010  0.1442 -0.1105
18702W        W34171   6.098  16.806   0.647  0.1450  0.0043  0.1028
18703W        W34172  13.232  16.962  14.663  0.1208  0.1283  0.1818
18704W        W34173   3.485   8.502   4.234  0.0321 -0.2284  0.0028
18705W        W34174   1.025  11.533   3.326 -0.1677 -0.2636  0.3610
18706W        W34175   7.829  13.890   4.772 -0.3945  0.1128 -0.1479
18707W        W34176  18.107   6.179   3.420  0.1061  0.0904  0.1665
18708W        W34177   8.909   1.459  15.389  0.1586 -0.0251 -0.3126
18709W        W34178  11.109   8.204   1.176  0.0996 -0.2535 -0.0994
18710W        W34179  12.907   4.348   0.109  0.1846 -0.2927  0.1124
18711W        W34180   1.425   9.649  14.140 -0.0308 -0.1328  0.1136
18712W        W34181  10.542  12.111  15.198 -0.2634  0.1428 -0.1224
18713W        W34182   7.664  10.978   4.070  0.1136  0.1294 -0.1617
18714W        W34183   7.822  11.068  13.983  0.0766 -0.0140 -0.0054
18715W        W34184  14.951  17.461   3.904 -0.1654 -0.1628  0.0523
18716W        W34185   0.475  10.937   5.558 -0.2206 -0.1262 -0.3954
18717W        W34186  11.298   6.086   0.833  0.2133  0.1067 -0.2681
18718W        W34187   3.284   5.364   4.162  0.2382  0.0399  0.3197
18719W        W34188   8.347  17.106  15.429 -0.1913  0.1190  0.1310
18720W        W34189  13.202   1.286  10.954 -0.0352  0.1855  0.1967
18721W        W34190  11.654   9.086   1.980 -0.0889 -0.1611 -0.2355
18722W        W34191   4.825   7.184   2.878  0.1269 -0.1422 -0.1322
18723W        W34192  10.105  17.898  12.923  0.1067  0.0316  0.2624
18724W        W34193   4.337   6.504   2.257  0.2228 -0.0197 -0.0954
18725W        W34194  18.145   9.240   3.640  0.3485  0.1080 -0.2521
18726W        W34195  10.745  12.004  12.236  0.0477 -0.0628  0.1873
18727W        W34196  11.726   8.033   1.030 -0.2039  0.1111  0.5314
18728W        W34197   6.125   1.458   4.123  0.0582  0.0544 -0.1165
18729W        W34198  13.155  16.219   4.735  0.2533 -0.1657  0.0917
18730W        W34199  10.415   1.468  10.656  0.0300 -0.2424  0.1710
18731W        W34200  12.254   7.040  15.378 -0.1460  0.0371 -0.3393
18732W        W34201   3.482   8.807  12.575  0.0878  0.2401 -0.4573
18733W        W34202   4.299  13.729   5.512  0.1709  0.0434  0.2161
18734W        W34203   8.202   0.090   0.254 -0.0739  0.2788  0.2575
18735W        W34204  10.520   5.468  15.449 -0.0342  0.1481  0.0045
18736W        W34205   4.423  17.958   0.284  0.1297 -0.1403  0.5341
18737W        W34206   1.930  10.243   1.920  0.0051 -0.0576 -0.1889
18738W        W34207  11.651  11.304   1.760  0.2102  0.2504 -0.0008
18739W        W34208  16.811  16.670  13.354  0.0497 -0.0891  0.0556
18740W        W34209   2.070  18.135  11.218  0.1594  0.0077 -0.0795
18741W        W34210  15.641  17.265   3.216  0.1614  0.2567  0.0945
18742W        W34211  12.791  13.010   0.557 -0.3587  0.0563  0.1507
18743W        W34212  16.999  13.065   6.264 -0.0602 -0.3671  0.2332
18744W        W34213   8.113   3.741  14.895  0.0324 -0.0441 -0.1672
18745W        W34214  12.101   4.654   9.830  0.1961 -0.0316  0.0854
18746W        W34215   3.429  10.802  15.016 -0.0134 -0.1301 -0.1409
18747W        W34216  16.413  13.562   5.033 -0.2965  0.0672  0.0346
18748W        W34217   3.424   2.107  10.518  0.0614  0.1746  0.0590
18749W        W34218  18.645   9.190  15.517  0.3101 -0.1359 -0.1778
18750W        W34219  10.085   9.861  14.834 -0.3862 -0.1035  0.0326
18751W        W34220   7.649   5.779   4.080  0.1826 -0.0428 -0.1277
18752W        W34221   2.307   1.834  10.676 -0.1241  0.0166  0.1195
18753W        W34222  17.341  11.979   1.354 -0.1088  0.1179 -0.1717
18754W        W34223   0.237  10.581   4.616 -0.0311 -0.2034 -0.0932
18755W        W34224   4.095   6.808   4.811 -0.3688  0.1133 -0.1230
18756W        W34225   4.762   1.035  11.169  0.0415  0.3333  0.0135
18757W        W34226   6.613  13.835  10.783  0.0078 -0.0762 -0.0536
18758W        W34227   7.014  13.502   9.789 -0.0472 -0.1568 -0.1002
18759W        W34228   5.056  16.616  11.510 -0.0713 -0.0445  0.0927
18760W        W34229  14.377  17.748  14.912 -0.1230 -0.0338  0.0904
18761W        W34230   6.987   6.057  14.370  0.3614  0.0143 -0.1924
18762W        W34231  17.262  10.150   2.123 -0.0698 -0.2382  0.0207
18763W        W34232  17.419   0.196  13.618  0.2353 -0.0581  0.3584
18764W        W34233  13.751   6.140  11.061  0.0987 -0.3357 -0.0736
18765W        W34234  10.180  18.135   0.362  0.0680  0.4378  0.2040
18766W        W34235   2.324   3.975   1.445  0.0503  0.0765  0.1182
18767W        W34236   0.335  14.319  13.101  0.0339  0.0321 -0.0280
18768W        W34237  16.655   5.357  15.733  0.1205  0.4051  0.1090
18769W        W34238   2.703   0.301   4.012 -0.0413  0.0248 -0.2641
18770W        W34239  11.643   8.593  10.941  0.1696  0.2066 -0.2318
18771W        W34240   0.707  14.710   3.816  0.3060  0.1097  0.0989
18772W        W34241  14.113  10.378   3.724  0.0028  0.0631  0.2266
18773W        W34242   4.429  12.914   0.131  0.1543 -0.0524 -0.0153
18774W        W34243  17.015  13.184   5.750 -0.0959 -0.0140 -0.0751
18775W        W34244   4.672   6.763   0.063  0.1239  0.4305  0.3745
18776W        W34245   9.369  16.817   2.192 -0.2751  0.2797 -0.0118
18777W        W34246  13.671   8.776  14.618  0.0338  0.0420  0.0751
18778W        W34247  12.822  10.602  15.175 -0.1904 -0.3607  0.0229
18779W        W34248  17.288  16.646  10.288  0.1504 -0.1099 -0.0516
18780W        W34249  16.176   0.715  12.493  0.2198  0.4085  0.3082
18781W        W34250   3.389   3.470   5.078 -0.0144  0.0375  0.3874
18782W        W34251   0.501   1.785   2.255  0.0652 -0.1205  0.0258
18783W        W34252   5.275  13.443  14.856  0.1672 -0.0950 -0.1992
18784W        W34253  17.659   3.709  13.784  0.2257 -0.0329  0.1433
18785W        W34254  13.960  16.299   3.568  0.0390  0.0756  0.2177
18786W        W34255  16.758   0.816  13.708 -0.0017  0.0502  0.0922
18787W        W34256  16.406   0.414  14.325  0.0304  0.1477  0.2002
18788W        W34257   3.613   0.957  15.649 -0.0699  0.2688  0.2015
18789W        W34258  18.202   9.255   4.790 -0.1595 -0.3934  0.2904
18790W        W34259  13.415   5.220  11.947 -0.1659  0.1364 -0.2344
18791W        W34260   7.298  17.665  10.857 -0.1477  0.2611 -0.0497
18792W        W34261  18.482  11.152   3.292  0.1507  0.1725  0.1557
18793W        W34262   9.803   0.234  10.846  0.0844 -0.0876  0.2793
18794W        W34263  15.162  15.540   4.725  0.1756  0.4779  0.0195
18795W        W34264  12.176   9.052  13.627  0.3131 -0.2286  0.1282
18796W        W34265   9.084   2.899  13.885 -0.0279  0.0429 -0.0425
18797W        W34266  14.679   9.699   4.209 -0.2269  0.0183 -0.2256
18798W        W34267   0.230  13.372   1.097  0.0072 -0.2443  0.1074
18799W        W34268   2.741   2.237   3.958  0.1365 -0.2773  0.2779
18800W        W34269   3.869  18.132  12.836  0.1905  0.0083  0.2033
18801W        W34270  14.347  13.099   0.458 -0.2438 -0.2201  0.0661
18802W        W34271   3.102  12.474   0.340 -0.1815 -0.0344  0.0754
18803W        W34272   6.711  12.386   1.364  0.1349 -0.1397 -0.0183
18804W        W34273  16.657  11.523  12.804  0.0467 -0.3457 -0.0147
18805W        W34274  13.836   4.156   2.205  0.1196 -0.1561 -0.1278
18806W        W34275   4.662   0.204  10.675 -0.2208  0.0578  0.1506
18807W        W34276   5.812  13.273   2.470  0.2104  0.0073 -0.1713
18808W        W34277   7.104  10.854   4.147 -0.5235  0.1408  0.2364
18809W        W34278   1.775  12.423   0.135 -0.0326 -0.2345 -0.1115
18810W        W34279   7.282   3.361  12.478  0.0488 -0.1787  0.2011
18811W        W34280  18.476  14.634   1.442  0.0069 -0.0863  0.0258
18812W        W34281   5.839   9.141   3.134 -0.0383  0.1451 -0.0861
18813W        W34282   6.087   3.775   4.432 -0.0071 -0.0860  0.1417
18814W        W34283   2.483   0.077  10.517  0.2288  0.2802 -0.0460
18815W        W34284   0.203   5.713  14.462  0.1831  0.0403 -0.0041
18816W        W34285   7.994  15.591   3.076  0.1587  0.0477 -0.1236
18817W        W34286   6.589   7.195  10.115  0.1110  0.1671 -0.1527
18818W        W34287   0.152  11.103   1.093 -0.0120  0.0183 -0.0074
18819W        W34288   0.180   5.571   0.140  0.1677  0.0357 -0.1189
18820W        W34289   6.445   1.057  12.832  0.0970  0.2069 -0.0272
18821W        W34290   5.119   3.875   5.558  0.2943 -0.2882 -0.1745
18822W        W34291  11.618  15.619   1.192 -0.0151  0.1370 -0.0878
18823W        W34292   2.328   6.024  15.488 -0.3120  0.1785  0.0909
18824W        W34293   8.701   9.188  11.276 -0.0665 -0.1370 -0.0369
18825W        W34294   5.556   3.632   3.670 -0.1528 -0.1031 -0.1268
18826W        W34295  16.097  11.503   4.248  0.0870 -0.3591  0.4117
18827W        W34296  16.964   5.188   4.872 -0.2462 -0.4864  0.0104
18828W        W34297   5.084  16.479  13.780  0.0103 -0.1446  0.2146
18829W        W34298  15.189   7.119   3.457  0.1528 -0.2722 -0.2395
18830W        W34299   6.875  13.388   5.682 -0.1522 -0.1822  0.1121
18831W        W34300  18.609   0.689  15.673 -0.1509 -0.1939 -0.1624
18832W        W34301   9.680   1.349  11.604  0.1762 -0.1929 -0.2606
18833W        W34302  11.311  13.977  14.012 -0.0652  0.2305 -0.0167
18834W        W34303   0.853  14.385   3.391  0.0556  0.0628 -0.1690
18835W        W34304   6.960  18.086   4.333  0.0596 -0.1090  0.3703
18836W        W34305  13.965   7.063   1.907 -0.0104 -0.2470 -0.1691
18837W        W34306   5.043  12.260   0.619  0.0011  0.1033  0.2659
18838W        W34307   7.269  15.158   0.210 -0.0479 -0.0589  0.1898
18839W        W34308   3.631  14.307   1.929 -0.2526 -0.3526 -0.2352
18840W        W34309   6.074   1.902  15.235 -0.1314  0.0403 -0.1416
18841W        W34310   4.747   2.203  11.648 -0.2570  0.1162 -0.0470
18842W        W34311   7.200   9.202  11.300 -0.3996  0.0857  0.2719
18843W        W34312  17.007  14.190   4.715  0.1298  0.1321  0.2427
18844W        W34313   7.832   0.319   1.142 -0.3200  0.0261  0.1893
18845W        W34314  17.786  15.796  12.345 -0.1518 -0.3912 -0.1529
18846W        W34315  13.898   5.184  12.200 -0.3045  0.3865 -0.0642
18847W        W34316   8.693  12.945  11.258 -0.0918  0.0424  0.3728
18848W        W34317   9.412   3.109   5.295 -0.2269  0.2046  0.1254
18849W        W34318   5.363  16.416  14.865 -0.2522 -0.0562  0.3708
18850W        W34319   0.768  13.181  15.772  0.1216 -0.3108  0.1617
18851W        W34320   2.701   4.481  10.669  0.3304 -0.0887  0.0830
18852W        W34321  12.088  13.935   3.338 -0.0289  0.1955 -0.2163
18853W        W34322  14.249   8.735  14.888 -0.0943  0.0533  0.0065
18854W        W34323  17.415  14.217   3.892 -0.2449  0.2320  0.2456
18855W        W34324   8.384   2.868   2.487 -0.6220 -0.1783 -0.0674
18856W        W34325  17.638  10.474  14.290 -0.0297  0.1294 -0.0156
18857W        W34326  13.730   1.861  13.040 -0.0273  0.2284  0.0812
18858W        W34327   6.489   3.539   1.563 -0.0795  0.2721  0.0375
18859W        W34328  18.536  17.266   0.454 -0.0709  0.2551 -0.2733
18860W        W34329  15.264   4.327  13.187  0.2502  0.1702 -0.1688
18861W        W34330   3.348  11.064   2.393  0.0145  0.1000  0.0154
18862W        W34331   7.073   7.489   2.549 -0.2460  0.2773  0.0674
18863W        W34332  15.851   2.764  15.050 -0.0174  0.0468  0.2851
18864W        W34333  16.128  12.844  12.747  0.0980 -0.0812 -0.0055
18865W        W34334   0.644   0.528  12.589  0.2700 -0.1026 -0.1973
18866W        W34335  16.419   7.831   3.886  0.0260  0.2790 -0.0878
18867W        W34336  12.057  11.787  11.066  0.0832 -0.0337 -0.2359
18868W        W34337   2.717  11.059  14.676 -0.0697  0.1527 -0.4781
18869W        W34338   7.132   5.887   3.267  0.1537 -0.4395  0.1212
18870W        W34339   3.146   3.170   0.770 -0.0981 -0.0865 -0.1773
18871W        W34340   4.162  18.479  14.431  0.2671 -0.0360 -0.0302
18872W        W34341  10.740   1.927  14.398  0.1220 -0.1133 -0.3781
18873W        W34342   7.434   2.182   0.923 -0.0503 -0.0801 -0.0592
18874W        W34343  13.680   2.208  15.598 -0.2782 -0.0385 -0.3134
18875W        W34344   0.060  13.045  12.689  0.2966  0.0308 -0.1924
18876W        W34345  13.831  12.146  13.821 -0.1096 -0.2947 -0.0798
18877W        W34346   8.582  11.591  11.941  0.2575  0.0871  0.1962
18878W        W34347   6.695  14.703  12.783  0.1269  0.0585 -0.1505
18879W        W34348  16.349  17.574  15.348 -0.1644  0.0582 -0.2561
18880W        W34349  11.265   7.470  14.430 -0.2214 -0.4033  0.2661
18881W        W34350  12.317  14.340   1.870  0.0067 -0.2226  0.0526
18882W        W34351  15.565   8.066   4.277  0.1411 -0.0111 -0.2271
18883W        W34352  10.440  13.703  13.681  0.1704 -0.1966  0.5326
18884W        W34353  10.455   4.374   0.892 -0.2203  0.1465  0.3479
18885W        W34354  17.954  14.257   3.782  0.3363 -0.0524  0.0762
18886W        W34355  16.195  11.149  11.676  0.2386  0.0445 -0.0651
18887W        W34356   7.062  13.897   2.627  0.0227 -0.0055  0.2193
18888W        W34357  16.032   5.476  11.111 -0.0378  0.1502 -0.0907
18889W        W34358  14.685  16.059   0.394  0.0056 -0.1055  0.2829
18890W        W34359   5.434   0.729  11.174 -0.0981  0.4730 -0.2686
18891W        W34360  15.938   2.461   3.389  0.0310  0.1388  0.3249
18892W        W34361   0.813   7.672  13.417  0.1002  0.1073 -0.0997
18893W        W34362   3.464  17.681  13.575  0.0530  0.1569  0.1231
18894W        W34363   0.256  13.292   0.537  0.0514  0.1178 -0.0950
18895W        W34364   3.886  15.856  14.076  0.0383  0.2670 -0.2651
18896W        W34365  14.206   7.755   4.703  0.0177 -0.3219 -0.0238
18897W        W34366  16.442   4.184   9.825 -0.1011  0.0779  0.0967
18898W        W34367   5.270  12.358  10.371 -0.2222 -0.1362 -0.0196
18899W        W34368   6.250  10.575   3.864 -0.2090 -0.1898 -0.3106
18900W        W34369   4.069  11.142  13.781  0.3389 -0.0935  0.1385
18901W        W34370   3.181   7.263   0.602  0.0873 -0.1342 -0.0240
18902W        W34371   3.184   0.928   0.699 -0.2719  0.2651 -0.1160
18903W        W34372   4.940   5.072   0.988 -0.1438 -0.0518  0.1281
18904W        W34373   6.181   1.460  13.818 -0.1768 -0.0307  0.3885
18905W        W34374   1.705   8.858   2.154  0.1565  0.1726  0.2231
18906W        W34375   0.426   9.456  12.506  0.2315  0.0454 -0.1160
18907W        W34376   7.998  10.895  12.539  0.2088  0.0182 -0.0624
18908W        W34377   0.221   0.194   2.047 -0.0965 -0.2704 -0.1425
18909W        W34378   5.813   9.836  15.045  0.1230 -0.0383 -0.3380
18910W        W34379   7.586  18.442   0.992  0.0860 -0.0290  0.1553
18911W        W34380  10.502   8.382   1.288 -0.1164  0.0498  0.3040
18912W        W34381  10.493   6.313  10.940 -0.0266 -0.0740  0.0681
18913W        W34382   2.078   1.716  11.703 -0.3007  0.3142 -0.1420
18914W        W34383   8.129  12.588  14.811  0.0184 -0.2179  0.1740
18915W        W34384  10.404  12.652  14.387  0.0599  0.1482  0.3047
18916W        W34385   4.053   5.264   3.289  0.0673 -0.2572 -0.1969
18917W        W34386  17.298   9.701   0.369  0.1181  0.1726  0.1522
18918W        W34387   1.657   2.052  10.318 -0.0242  0.2780  0.0304
18919W        W34388  11.525  11.581  12.409  0.0311  0.0539 -0.1711
18920W        W34389   3.947   7.453  14.874 -0.0966  0.1037 -0.1998
18921W        W34390  10.619  11.485  13.507  0.3224  0.1285  0.0694
18922W        W34391   0.609   7.292   3.117  0.0889 -0.1612  0.2261
18923W        W34392   4.434  14.735  12.346  0.0557 -0.1071 -0.1122
18924W        W34393   7.444   7.991   1.877 -0.0476  0.0112 -0.3305
18925W        W34394   9.360   4.948   2.104  0.2059  0.0430 -0.0099
18926W        W34395   7.157   2.557   0.674 -0.1370 -0.3026 -0.4515
18927W        W34396  15.366   1.738   3.257  0.0903 -0.1620 -0.0284
18928W        W34397  14.482  11.828   1.787 -0.0091  0.0454 -0.0698
18929W        W34398   4.465   9.461  13.756 -0.0072  0.0014 -0.0892
18930W        W34399   9.052   3.617   5.306 -0.0592  0.1815  0.2080
18931W        W34400   2.761   8.127   1.857  0.3381  0.1099  0.3080
18932W        W34401   9.677   6.761   4.893 -0.1775 -0.0960  0.1242
18933W        W34402   5.067   3.442   3.277 -0.3343  0.0222  0.0033
18934W        W34403  15.414  18.280  11.425  0.1099  0.4282 -0.1794
18935W        W34404   7.486   1.251   2.186  0.1269 -0.0607 -0.1022
18936W        W34405   9.866  18.655   1.271 -0.0737 -0.1515  0.0282
18937W        W34406  13.228   0.110   4.745  0.2007 -0.0396  0.3355
18938W        W34407   7.842  16.968  12.440 -0.0535 -0.1233  0.0443
18939W        W34408   3.714   1.780   2.765  0.0340 -0.0833  0.2023
18940W        W34409   6.142   9.229  13.770  0.2535  0.2084  0.1404
18941W        W34410   9.866  11.379  11.694  0.3438  0.0614  0.1822
18942W        W34411   7.019  15.617  15.120  0.0743  0.0449 -0.1188
18943W        W34412   0.200  15.122  12.160 -0.1903 -0.1627  0.1224
18944W        W34413   5.611  13.874   2.150 -0.0294  0.1364 -0.2790
18945W        W34414   9.201  16.897  12.904  0.1736 -0.2910 -0.1325
18946W        W34415   3.706  13.122   4.243 -0.4302  0.2177  0.3174
18947W        W34416   2.618   6.347   4.078  0.0765  0.1283  0.0280
18948W        W34417  10.907  18.467   1.239  0.4225 -0.1972 -0.0291
18949W        W34418  13.936  12.317   4.694  0.2874 -0.1071  0.3755
18950W        W34419  14.792  14.835   3.517 -0.1581  0.2083 -0.0174
18951W        W34420  10.240   3.827  11.666  0.2626  0.0111 -0.1457
18952W        W34421   4.146   4.670  11.257 -0.1345  0.1888  0.1853
18953W        W34422   8.217   3.480  14.335 -0.0445  0.1826  0.1589
18954W        W34423  14.602  15.586   5.562 -0.1472  0.1381 -0.2152
18955W        W34424  16.323  16.398  13.411 -0.0295 -0.2039  0.3743
18956W        W34425   1.902  16.906   5.046  0.1501 -0.0923 -0.2518
18957W        W34426   1.802   8.489   4.400 -0.1180  0.0026  0.1180
18958W        W34427   7.697   2.646  11.697  0.0701  0.0546 -0.0337
18959W        W34428   2.401  14.368   3.396  0.3319  0.0898 -0.2372
18960W        W34429   2.838   8.815   6.307 -0.1604 -0.0015 -0.0523
18961W        W34430   7.446   8.678   5.403 -0.0956  0.3886  0.1173
18962W        W34431  13.796  10.883   5.937  0.2464  0.0762 -0.0329
18963W        W34432   7.920   8.562   1.391  0.1453  0.2710  0.1442
18964W        W34433  13.856  16.095   6.074 -0.2873 -0.2498  0.0741
18965W        W34434   1.475  17.049   0.677  0.0075 -0.2167  0.0891
18966W        W34435   1.569   0.230  14.653  0.0056  0.0490  0.0345
18967W        W34436  14.768  18.477   1.664 -0.1962  0.2095 -0.2604
18968W        W34437   6.328   5.311  12.186  0.3260 -0.3401  0.3665
18969W        W34438   4.003  12.911   0.954  0.1544  0.0712  0.1449
18970W        W34439  18.624  12.047   2.899  0.0408 -0.0422 -0.2471
18971W        W34440  10.870   0.609   1.861 -0.0850  0.0466 -0.1516
18972W        W34441   3.393   1.348  12.897  0.1005  0.1485 -0.2772
18973W        W34442  17.096  15.744  11.733 -0.3015  0.3579 -0.0375
18974W        W34443   5.394   9.878   0.794 -0.1622  0.1390  0.2899
18975W        W34444   9.222   4.916  10.956  0.1314  0.1166 -0.1443
18976W        W34445   0.038   4.072  15.274  0.1162 -0.1472 -0.1551
18977W        W34446   0.203   4.810   0.604 -0.2628  0.2916 -0.2464
18978W        W34447   6.676  18.015   3.441 -0.0542  0.4844  0.0172
18979W        W34448   6.844   0.157  15.562  0.0484 -0.1179 -0.0227
18980W        W34449  15.508  10.636  15.072  0.2436  0.1841  0.0202
18981W        W34450   9.201   3.874   1.199 -0.1905 -0.1057 -0.0610
18982W        W34451   2.778   2.708   1.514 -0.0292  0.1645 -0.1401
18983W        W34452  15.272  15.384  15.652 -0.0374 -0.2709  0.2251
18984W        W34453   9.591  17.995  13.800 -0.1692 -0.0980  0.0743
18985W        W34454  12.654  16.919   0.879 -0.2506  0.0775  0.0270
18986W        W34455   7.406   4.943   1.723  0.0452  0.0439 -0.2452
18987W        W34456  13.885   3.197   4.527  0.0409 -0.1199 -0.1850
18988W        W34457   9.368  13.126  14.982  0.0601 -0.0247 -0.2637
18989W        W34458   8.025   0.685   2.538  0.1705  0.2364  0.2616
18990W        W34459  18.410  15.007  12.218 -0.0013  0.0022  0.1043
18991W        W34460  12.341  17.600   2.582  0.4243 -0.3090  0.0029
18992W        W34461   7.932   9.378  14.134  0.0800 -0.1484 -0.1325
18993W        W34462  10.002  16.025   2.772  0.3286 -0.3074 -0.0679
18994W        W34463   4.811   4.543   1.965  0.2566 -0.1153  0.0801
18995W        W34464   5.012  14.862   0.792  0.2809 -0.2883 -0.0522
18996W        W34465   8.248  10.777  14.157  0.3413 -0.1740  0.0771
18997W        W34466   4.408  17.959  10.612  0.2588 -0.1417  0.0810
18998W        W34467   0.210   4.003   1.504  0.2496  0.0794  0.0481
18999W        W34468  11.445   4.544   0.160  0.1286  0.0211  0.1684
19000W        W34469  18.260   5.630   0.929  0.2187 -0.0327  0.1146
19001W        W34470  12.431   5.072   2.568 -0.2078 -0.1791 -0.2243
19002W        W34471   6.772   0.270   2.151  0.1881  0.1786  0.0345
19003W        W34472  15.263  11.218   0.522 -0.2208  0.0927 -0.0273
19004W        W34473  10.737   0.656  12.606 -0.0612  0.0121 -0.0873
19005W        W34474  14.007   5.897   0.375  0.2973  0.0265 -0.1977
19006W        W34475  16.101   5.475   4.851 -0.0509  0.1518  0.0901
19007W        W34476   2.835   9.375   1.629  0.3599  0.0090  0.2540
19008W        W34477   6.190  11.503   0.991  0.2949 -0.1388  0.0131
19009W        W34478   8.968   1.629   2.679  0.0560 -0.0297 -0.0740
19010W        W34479  10.335   5.459   0.816  0.0175  0.0153 -0.1743
19011W        W34480   1.523   8.781  13.409 -0.1402 -0.1825  0.2934
19012W        W34481  11.743   3.633   3.245  0.2806 -0.4407  0.2024
19013W        W34482  16.316   4.134  14.473  0.0052  0.2268 -0.2360
19014W        W34483  15.315   6.357   3.962 -0.2471  0.0129  0.3058
19015W        W34484   0.189  12.362   1.073  0.1360 -0.1165  0.1420
19016W        W34485   9.646   3.931  11.172 -0.1923  0.1887 -0.1653
19017W        W34486   3.439   2.572  11.184 -0.2404 -0.2791 -0.0524
19018W        W34487  14.822  12.177   4.588  0.1670 -0.4394 -0.1447
19019W        W34488  17.013  10.899  11.587  0.2604 -0.4710 -0.2166
19020W        W34489  14.753   0.516  14.465 -0.0106  0.0877 -0.0077
19021W        W34490   1.876  14.293   3.429 -0.0464  0.3769  0.0080
19022W        W34491   5.123   1.923   3.127 -0.0654 -0.2627  0.1852
19023W        W34492   4.441   9.952  11.569  0.1046  0.2013  0.0639
19024W        W34493   5.599  11.718  12.141 -0.1977  0.0613  0.0775
19025W        W34494  13.824   4.431   1.658 -0.2610  0.0269 -0.2390
19026W        W34495   6.916   3.673  14.467  0.0456 -0.2128  0.0261
19027W        W34496  12.002   6.332   4.589 -0.2057  0.1877  0.2441
19028W        W34497  12.505   6.085  15.116 -0.0713  0.2074 -0.0252
19029W        W34498  17.977   8.796   2.150 -0.2498  0.0722  0.0676
19030W        W34499  18.114  13.838   0.810  0.2463 -0.2502  0.0215
19031W        W34500   5.918   0.389  11.738 -0.2173  0.1618  0.0438
19032W        W34501   1.140   3.647  11.349 -0.2203 -0.1663  0.0491
19033W        W34502  17.873  15.615  14.709  0.0463  0.1057  0.1018
19034W        W34503  16.685  16.234   5.525  0.3216  0.0822 -0.0054
19035W        W34504  10.548   8.733  13.434 -0.3465 -0.2143  0.0156
19036W        W34505  14.285  11.102  13.882  0.1270 -0.1372  0.2962
19037W        W34506  14.968   5.806   0.229  0.0482 -0.3671  0.2631
19038W        W34507   1.608  16.115  15.373 -0.0702 -0.0410  0.1627
19039W        W34508   3.706  10.729  13.746 -0.1300 -0.2932  0.0476
19040W        W34509   2.962   3.752  11.744  0.0249  0.5239 -0.1129
19041W        W34510   4.615  17.471  13.423  0.0055  0.0929 -0.1041
19042W        W34511   2.828   5.660   0.728 -0.0627  0.0701  0.0566
19043W        W34512   4.508   5.579   0.978 -0.0980 -0.0657 -0.1286
19044W        W34513  16.400  15.013  12.251  0.2392 -0.2377  0.1350
19045W        W34514  14.603  16.194   4.282 -0.1582  0.0621 -0.1099
19046W        W34515  11.556  10.594   0.045 -0.1065 -0.0150 -0.2314
19047W        W34516   9.710  14.924   3.494 -0.1596 -0.2710  0.0170
19048W        W34517  14.852  17.943   3.799 -0.0732  0.3490  0.2643
19049W        W34518  12.098  11.662   2.652  0.0229 -0.1502 -0.0371
19050W        W34519   8.738  16.406  13.791  0.0010 -0.1063  0.3735
19051W        W34520   9.726  11.899  15.355 -0.0655  0.1019  0.3373
19052W        W34521   5.378  14.280  12.724  0.1351 -0.1215  0.1039
19053W        W34522  11.187   1.257  13.251 -0.1088  0.0081  0.0191
19054W        W34523  14.536  16.284  12.539  0.0901  0.0569  0.0232
19055W        W34524  11.048   7.713   5.261 -0.0768  0.1281  0.0544
19056W        W34525   7.515   3.133  15.438 -0.0433  0.3194 -0.0446
19057W        W34526  11.545   6.309  11.291 -0.0510 -0.2106  0.2225
19058W        W34527  15.061   6.922   3.952  0.0012  0.0724 -0.0076
19059W        W34528   1.846   4.305  12.755 -0.2803  0.2400 -0.0688
19060W        W34529   0.774  14.198  13.339  0.0946  0.3974  0.0418
19061W        W34530  10.822  13.940  13.788 -0.1487  0.0036 -0.0833
19062W        W34531   3.849   0.206   2.988  0.1260 -0.1590 -0.0453
19063W        W34532  12.490   8.167  13.304  0.2792  0.0569 -0.3214
19064W        W34533  18.080  10.810  11.919  0.2090  0.1516 -0.1323
19065W        W34534  12.357  15.369   0.830  0.6315  0.2080  0.2026
19066W        W34535   2.142  14.627   3.864 -0.1455 -0.1665  0.0461
19067W        W34536   3.648   2.624   5.620 -0.0635 -0.0076  0.0602
19068W        W34537  11.407  11.868   3.170  0.1753 -0.1026  0.0940
19069W        W34538  14.432  10.945  13.035 -0.2202  0.4652  0.2272
19070W        W34539  12.117   7.018  13.938  0.0181 -0.1559  0.0464
19071W        W34540   9.722   0.998  13.046  0.0534  0.1669 -0.0034
19072W        W34541   3.693  18.153   0.323  0.1897 -0.0979  0.0338
19073W        W34542  12.027  15.328  11.966 -0.1843  0.0164  0.0660
19074W        W34543  10.461  12.885   0.493  0.3174  0.0271 -0.2295
19075W        W34544  14.690  13.394  10.892  0.2280 -0.3677  0.1240
19076W        W34545  12.864   6.096   4.703 -0.2191 -0.1640 -0.1406
19077W        W34546   0.159   9.636   0.357 -0.0248 -0.2181  0.3207
19078W        W34547   3.592  15.688  15.409 -0.1374  0.3475  0.2834
19079W        W34548  14.913  11.257   0.953 -0.0506  0.0683 -0.1729
19080W        W34549   7.547  17.599   2.249 -0.1602  0.1079  0.0238
19081W        W34550  15.662   0.248   1.355  0.0491 -0.2049 -0.1002
19082W        W34551  16.018  18.071   1.433  0.3486  0.1982 -0.1994
19083W        W34552   2.973  11.574   3.534  0.3194  0.0607  0.0903
19084W        W34553  18.334   3.622   4.588  0.0272 -0.0761  0.0213
19085W        W34554   8.215  14.732  13.849  0.2670  0.0764 -0.2556
19086W        W34555   6.225  10.142  13.258  0.4761 -0.1327 -0.0158
19087W        W34556   9.830   3.796   4.337  0.0032 -0.1125  0.4712
19088W        W34557  11.058  16.960  15.748 -0.1967 -0.0390  0.0948
19089W        W34558   4.989  14.692  10.842  0.4210  0.2093 -0.1157
19090W        W34559   4.645  16.415   5.786  0.3867 -0.0475  0.2781
19091W        W34560   1.215   2.299  11.630  0.1434 -0.0399 -0.3077
19092W        W34561   0.610   8.587   2.416 -0.0421 -0.0567  0.1016
19093W        W34562  11.629  17.924   5.331 -0.5223 -0.1165 -0.1108
19094W        W34563   4.000  11.464   3.069 -0.0682 -0.0405  0.0452
19095W        W34564   5.505   3.933  13.116 -0.2570  0.3975  0.2045
19096W        W34565  12.531  11.023   3.305 -0.0356  0.0196 -0.0108
19097W        W34566  10.864   5.926  12.568 -0.2439 -0.1783  0.0714
19098W        W34567   8.267   6.061  14.355  0.1122 -0.2663  0.0576
19099W        W34568  14.196  15.897   4.348 -0.2151  0.2634 -0.0516
19100W        W34569   2.802  17.062   9.719  0.0432 -0.0762  0.1883
19101W        W34570  16.924   4.490   0.699  0.1029 -0.1610 -0.0970
19102W        W34571   1.509  17.667   4.779 -0.0330 -0.2922  0.1911
19103W        W34572   4.557  13.220   3.570 -0.0845 -0.1151  0.0362
19104W        W34573  10.881  17.902   0.973 -0.1372  0.0455 -0.1592
19105W        W34574   0.366  14.810  13.930  0.2332 -0.1333  0.1825
19106W        W34575  12.639  14.595   0.880 -0.1637  0.2870  0.1608
19107W        W34576   2.175  10.009  14.926  0.1780  0.1061  0.1247
19108W        W34577   5.987  10.367  14.851  0.0885  0.0632  0.1694
19109W        W34578   3.869  15.740   9.613 -0.2362  0.1364  0.1133
19110W        W34579   8.984   1.658   1.594 -0.0458  0.0331 -0.0734
19111W        W34580  16.669  15.401   1.558 -0.1435 -0.0687  0.0912
19112W        W34581  10.189  15.932  10.981  0.0127  0.2225 -0.1836
19113W        W34582   4.762  16.538  14.667 -0.2299 -0.0182  0.2245
19114W        W34583   9.068  11.532   0.024  0.2261  0.1259  0.2515
19115W        W34584   8.718  15.096   3.762  0.2932  0.2421 -0.2031
19116W        W34585  14.184   2.921   5.501 -0.2224  0.3080 -0.2103
19117W        W34586  10.191   8.497   2.121  0.1964  0.0409  0.2775
19118W        W34587  14.919   6.695  14.477  0.0582 -0.1353 -0.0554
19119W        W34588   0.339   2.209  12.160 -0.1956  0.0632  0.1184
19120W        W34589  12.375  18.157  15.424  0.3700  0.2805 -0.1441
19121W        W34590   1.003  13.423   1.475 -0.1604  0.0480 -0.3489
19122W        W34591   8.035   6.721   4.022 -0.1754  0.0776  0.1131
19123W        W34592  18.006   1.738  10.598 -0.0854 -0.3984  0.1545
19124W        W34593   3.949  16.137   2.393 -0.2348  0.0746 -0.1436
19125W        W34594  10.027  15.255   2.643  0.0731  0.0531  0.1120
19126W        W34595  13.078   9.861   2.757 -0.0256 -0.0997  0.0380
19127W        W34596  16.354   6.041  10.614 -0.1019  0.0629  0.0289
19128W        W34597   6.837   9.751  13.143  0.1052  0.2278  0.2377
19129W        W34598   9.763  14.773   1.692  0.0906 -0.4739 -0.0394
19130W        W34599  13.395   2.293  13.028  0.0454  0.0907 -0.1277
19131W        W34600   2.959  11.672   3.021  0.1277  0.2793 -0.0059
19132W        W34601   8.162   4.437  10.627 -0.0725  0.2414 -0.0531
19133W        W34602  12.231  10.100   5.472 -0.1613  0.1801  0.1893
19134W        W34603  14.150   8.469   4.161  0.3850  0.3182 -0.0094
19135W        W34604   3.834  13.717  13.241  0.1846 -0.0268 -0.0463
19136W        W34605  11.752   2.641   3.501  0.0153  0.2126 -0.1762
19137W        W34606   6.107   6.868  13.701  0.4160  0.2651  0.2516
19138W        W34607   6.052  16.398  12.146 -0.1919  0.0597 -0.0736
19139W        W34608   3.039  17.082   2.309  0.3192 -0.5540  0.1055
19140W        W34609   5.113  12.814   5.321 -0.0027  0.0494 -0.1339
19141W        W34610   1.755   0.394   1.134 -0.0622  0.0306  0.1820
19142W        W34611   4.010  10.583   0.216 -0.1579 -0.1769 -0.0682
19143W        W34612   7.643   9.704   4.746  0.1041  0.3369 -0.0291
19144W        W34613   2.025  11.341  10.846 -0.0595  0.1923 -0.0108
19145W        W34614   9.629  17.731  12.986  0.3587  0.3166  0.1706
19146W        W34615  15.835   7.488  12.009  0.2505 -0.0433  0.0070
19147W        W34616  17.439   2.287   3.514 -0.0459  0.0356 -0.1536
19148W        W34617   7.797  15.028   3.014  0.0918 -0.0146  0.0437
19149W        W34618   6.539   9.952  12.296 -0.0916  0.1868 -0.0985
19150W        W34619  15.567  12.040   5.457 -0.0777  0.1206 -0.0591
19151W        W34620  16.096   1.713  12.388  0.2209 -0.1968 -0.3004
19152W        W34621  14.067  14.756  15.635  0.0832 -0.0296  0.3126
19153W        W34622  16.329   2.602  10.837  0.0374  0.2090 -0.0160
19154W        W34623   6.616  14.644   2.307  0.0047 -0.0451  0.2906
19155W        W34624   3.127   4.728  10.479  0.0562  0.0530 -0.0566
19156W        W34625   9.158   0.156   5.255 -0.1355  0.1064 -0.1605
19157W        W34626   5.221   7.522  14.874 -0.0744 -0.0451  0.0944
19158W        W34627   2.434   1.340  11.759  0.1498  0.0218 -0.0953
19159W        W34628  13.015  14.087   3.921 -0.2745 -0.2533  0.1325
19160W        W34629   0.083  14.843   3.472 -0.3130  0.0956  0.0619
19161W        W34630   2.725  16.182   0.486 -0.0106 -0.2113  0.0247
19162W        W34631   0.749  10.442   1.988  0.0391 -0.2439  0.3045
19163W        W34632  13.054  11.630   1.347 -0.3426  0.3042  0.0338
19164W        W34633   2.540  18.240  13.132 -0.1017  0.1929 -0.0613
19165W        W34634  11.138  10.865  13.419  0.1164 -0.2009 -0.0956
19166W        W34635  18.196  12.332  12.112  0.1403  0.4354  0.1631
19167W        W34636  15.925   4.375  12.397  0.1533 -0.1421 -0.0858
19168W        W34637  16.588   4.109  12.110 -0.1458 -0.1075  0.1046
19169W        W34638   4.713  15.728  15.070  0.1106  0.0087  0.1746
19170W        W34639   1.851   7.318  13.414 -0.0499  0.1039 -0.1287
19171W        W34640  13.717   0.358  10.446  0.1122 -0.2448 -0.1811
19172W        W34641   9.054  13.136  12.933 -0.2244  0.1678 -0.1094
19173W        W34642  15.076   3.462   3.168  0.2085 -0.0459 -0.3718
19174W        W34643   3.179   5.346   0.401 -0.2110 -0.1013 -0.1002
19175W        W34644   5.742   7.044  12.720 -0.0521 -0.1697  0.1996
19176W        W34645  12.845  11.757   4.346  0.1960 -0.0312  0.2603
19177W        W34646  11.967   7.589   0.961 -0.1431  0.0499  0.3702
19178W        W34647  15.274   0.106  12.938  0.1111  0.1529 -0.1430
19179W        W34648  15.775  17.872   2.403 -0.0588  0.1584 -0.0228
19180W        W34649  10.067  17.043  11.100 -0.1705 -0.0372  0.3547
19181W        W34650  13.396   6.413  14.252  0.2803 -0.0646 -0.3147
19182W        W34651  15.066   7.557   1.298  0.2371  0.2545 -0.2167
19183W        W34652   0.412  11.605   1.231  0.0579 -0.3077  0.3150
19184W        W34653   5.798  10.479  13.248  0.0548 -0.2777 -0.0939
19185W        W34654  18.507  12.171   0.161 -0.0058 -0.3652 -0.1660
19186W        W34655  11.738   0.321   4.862  0.0486 -0.3153  0.0200
19187W        W34656  15.752  13.949   4.827 -0.1636  0.2912  0.0141
19188W        W34657  16.546  13.536  11.489 -0.1356 -0.0519 -0.1707
19189W        W34658   0.664  10.061  14.503 -0.0977  0.0915  0.0541
19190W        W34659  18.071   7.392   5.194  0.0227  0.0819  0.1152
19191W        W34660  11.287  17.437  13.218 -0.1996 -0.1145 -0.0769
19192W        W34661   4.330   7.375   3.610  0.0057 -0.1430 -0.0003
19193W        W34662   0.409   3.059   4.356  0.0990 -0.3234  0.1794
19194W        W34663   9.381  16.064  12.302 -0.0304  0.2781 -0.1928
19195W        W34664   6.124   3.298  11.842  0.0923 -0.2570  0.0728
19196W        W34665   2.827   5.429   3.042  0.0710 -0.3026 -0.0772
19197W        W34666   5.200   6.292  15.298  0.1253 -0.0036 -0.1727
19198W        W34667   8.394   0.681  15.525 -0.0941  0.2516  0.1642
19199W        W34668   5.652  11.792  14.763  0.2451  0.0331  0.1744
19200W        W34669   6.383  12.078  15.045  0.2204  0.3315  0.1070
19201W        W34670  15.038   5.290  13.618  0.3409  0.2859 -0.5721
19202W        W34671  15.986  17.324  15.600 -0.1379 -0.1630 -0.3096
19203W        W34672  11.733   7.684   4.618 -0.0212  0.0574 -0.2333
19204W        W34673  17.725   1.044  12.970  0.2813  0.1003 -0.0172
19205W        W34674   7.076  10.183  10.866 -0.2281 -0.4231  0.1042
19206W        W34675  16.058   5.277   4.005 -0.0510  0.1335  0.0844
19207W        W34676   7.070   3.915   0.587  0.1854  0.2912  0.0755
19208W        W34677   1.490   0.319   3.444  0.0832 -0.2007  0.0279
19209W        W34678   6.088  13.264  12.814  0.3852  0.1696  0.0352
19210W        W34679   5.017   5.620   3.571 -0.3111 -0.0788 -0.0962
19211W        W34680   6.072   8.133  14.111 -0.0315  0.1735 -0.0415
19212W        W34681   1.311   8.593   3.138  0.1346  0.1585  0.2316
19213W        W34682  16.056  11.631   3.762 -0.0364  0.0758  0.2086
19214W        W34683   5.679   4.912  14.851  0.2656 -0.3473  0.0245
19215W        W34684  15.243   9.076   3.156  0.1134  0.1041 -0.2614
19216W        W34685  18.051   3.500  13.473  0.2272 -0.1652 -0.0117
19217W        W34686   6.067  15.561   5.775  0.3121 -0.2124 -0.0456
19218W        W34687  12.476   3.677   3.905  0.0848 -0.2915 -0.0366
19219W        W34688   3.731  17.525   3.643 -0.0311  0.2990  0.0963
19220W        W34689   7.356  11.054   3.637  0.1407 -0.3109  0.2237
19221W        W34690  18.469   0.975   1.152  0.2177  0.1320 -0.0611
19222W        W34691   7.120  12.990   0.165 -0.0905 -0.2554 -0.2437
19223W        W34692   5.492  10.642   0.343  0.0407 -0.1765  0.0924
19224W        W34693  13.780  10.481   0.863 -0.1857 -0.2373  0.1484
19225W        W34694   8.482  15.521   3.914 -0.1612  0.0154 -0.0080
19226W        W34695   5.225   3.457  13.040 -0.1707 -0.0239  0.1653
19227W        W34696  18.448   4.423  10.900 -0.0008  0.1962 -0.0004
19228W        W34697  13.241  17.483   2.837 -0.0475 -0.1297 -0.0286
19229W        W34698   3.707  11.777  12.679  0.2288 -0.1608  0.0961
19230W        W34699  11.734  11.157   0.807 -0.2857  0.1669 -0.3259
19231W        W34700   0.542  14.732  10.916  0.3926  0.1891 -0.3954
19232W        W34701   3.543   5.179   5.487  0.1030  0.0643  0.2399
19233W        W34702   1.566  16.498  14.962 -0.3048 -0.1131  0.0312
19234W        W34703   2.132  11.232   2.844  0.3527 -0.3219 -0.0858
19235W        W34704   2.921   7.106   5.556  0.1453  0.0118  0.1887
19236W        W34705   1.782   0.385  13.172  0.0792  0.1313  0.0830
19237W        W34706  18.542   2.441  10.792  0.1726  0.2368 -0.4096
19238W        W34707   7.987   4.603   3.206 -0.0129 -0.1928  0.0405
19239W        W34708   0.542  17.996   0.704 -0.0846  0.0287 -0.0484
19240W        W34709   2.838  18.432   3.746  0.0234 -0.1490  0.0910
19241W        W34710   6.082   9.557  15.429  0.0038  0.3507 -0.0270
19242W        W34711   9.949   3.950   3.455 -0.3247  0.1215 -0.3646
19243W        W34712  18.447   7.036  12.516  0.4186 -0.1040  0.1131
19244W        W34713  10.258  16.299  15.139 -0.0842  0.2889 -0.0299
19245W        W34714  16.492   4.946  12.298  0.3007  0.0629 -0.2960
19246W        W34715  16.481   5.346  13.162  0.4862 -0.1182 -0.1846
19247W        W34716   4.756  15.543   1.698 -0.1596 -0.0270  0.1528
19248W        W34717   4.619  14.218   1.889  0.1345 -0.3596  0.1402
19249W        W34718  16.016   0.296   4.221  0.2115  0.1370  0.2198
19250W        W34719   4.731  16.089   2.660  0.0185  0.1184  0.1302
19251W        W34720  10.418   9.015   0.230 -0.1157 -0.1322 -0.0753
19252W        W34721  16.047   2.050  13.539 -0.1980 -0.1206  0.0608
19253W        W34722  11.539   9.741   0.577  0.1140 -0.1193  0.1846
19254W        W34723  15.424   7.425   5.939 -0.2400 -0.1247 -0.0901
19255W        W34724  14.979   8.185  15.725  0.0700  0.2516 -0.0271
19256W        W34725   7.971   9.038   1.562 -0.1322 -0.0347 -0.0527
19257W        W34726   7.267  10.467   5.671 -0.2717 -0.0893 -0.0423
19258W        W34727   3.801   7.188  10.986 -0.1568 -0.1976  0.3117
19259W        W34728   9.993  17.997  14.661  0.2846 -0.0849  0.0224
19260W        W34729   0.069   3.496   3.659 -0.0686 -0.1878 -0.0628
19261W        W34730  17.723   9.639   1.006 -0.2224 -0.0067 -0.0410
19262W        W34731   7.760   3.485  14.110  0.0726  0.0996 -0.2114
19263W        W34732  18.181  10.872  15.622 -0.1412  0.1280  0.1524
19264W        W34733   9.631  11.597  13.891 -0.0612 -0.0345 -0.2544
19265W        W34734   7.919   6.450  15.764 -0.0615  0.0763  0.1889
19266W        W34735  11.201   0.896   2.831 -0.1493 -0.2533 -0.2572
19267W        W34736   6.650   2.276  15.386 -0.3811 -0.3488  0.1129
19268W        W34737  12.313   8.376  14.421  0.3512  0.2653 -0.0462
19269W        W34738   2.987   6.685   2.450  0.0201 -0.0898  0.0370
19270W        W34739  16.472   9.835   2.448  0.0206 -0.1041 -0.2181
19271W        W34740  18.446   8.328  13.444  0.2740 -0.1829  0.0678
19272W        W34741  18.649  11.034  13.451  0.0107  0.2010  0.0928
19273W        W34742   4.618  11.486  12.265 -0.0076 -0.3469 -0.0891
19274W        W34743   9.215   4.392   4.558 -0.1853  0.1033  0.0635
19275W        W34744  17.523  10.312  13.246  0.3863  0.1680 -0.2015
19276W        W34745  16.527   3.107   4.571  0.0503 -0.2121  0.0843
19277W        W34746   5.830  18.630   2.926  0.1772 -0.2057 -0.2893
19278W        W34747   7.893   5.078   5.692  0.1064  0.0525  0.2246
19279W        W34748  12.647  17.414   2.954 -0.1147 -0.2291 -0.2440
19280W        W34749  11.064   5.417   0.207  0.0843  0.1106  0.1948
19281W        W34750  10.269  10.228   3.352 -0.1322 -0.1998 -0.1026
19282W        W34751   3.204  17.537  11.503 -0.2210 -0.1155 -0.1030
19283W        W34752   9.558   7.387   2.275  0.2876 -0.3269 -0.4060
19284W        W34753  14.626   5.836   4.002 -0.1191  0.0646  0.1882
19285W        W34754   7.084   9.644   3.448  0.1026  0.0385  0.1733
19286W        W34755  17.075   6.170  15.394  0.0693 -0.4042 -0.0961
19287W        W34756   5.000   3.137   5.132 -0.2529 -0.0119  0.2469
19288W        W34757   4.018  11.680   5.700  0.2403 -0.1313  0.0337
19289W        W34758   1.912   4.226   3.050 -0.1298  0.3584 -0.2073
19290W        W34759  13.866  14.162  14.714  0.0744  0.2523  0.1912
19291W        W34760   5.149  13.286   5.635  0.1328  0.0265  0.0396
19292W        W34761  14.646  18.225  10.678 -0.1575  0.0605 -0.0455
19293W        W34762   6.245   2.899   0.288  0.0615 -0.0422 -0.0686
19294W        W34763  12.857  17.848   4.995 -0.3030 -0.0383 -0.3232
19295W        W34764  16.573   9.621  11.670  0.0105 -0.2335 -0.2523
19296W        W34765   4.149   0.233   3.491  0.1216 -0.1917 -0.2638
19297W        W34766  15.402  14.457  10.416 -0.2067 -0.0629  0.2025
19298W        W34767  17.444  17.649  15.739 -0.1162  0.0990 -0.3644
19299W        W34768  11.541  17.464   5.298 -0.1464  0.0496 -0.0380
19300W        W34769  10.941  15.336  12.810  0.0682  0.1822  0.0151
19301W        W34770  13.736  17.940   0.845  0.2248 -0.0411 -0.1283
19302W        W34771   8.337   4.717  11.068 -0.1438  0.0811  0.1633
19303W        W34772  16.398   6.513   3.031  0.2390 -0.0694  0.0747
19304W        W34773   1.841   2.763  15.435  0.1588  0.0238 -0.0383
19305W        W34774   1.346   0.819  11.228 -0.0981 -0.0872 -0.2901
19306W        W34775   0.150   5.323   0.790  0.1520  0.2508 -0.0062
19307W        W34776   5.943   3.193   2.193  0.0765 -0.0419 -0.0942
19308W        W34777  13.756   7.293  12.773  0.2318  0.0554 -0.0706
19309W        W34778   0.833   6.816  15.023  0.0601 -0.2299 -0.5428
19310W        W34779   0.835   8.528  10.889 -0.0016  0.2408  0.2901
19311W        W34780   2.705   0.527  15.553  0.0451  0.0106 -0.1098
19312W        W34781  14.890  16.823   1.748  0.0082  0.1564 -0.0959
19313W        W34782   6.182   7.354  12.480  0.1416  0.0179  0.2317
19314W        W34783   6.479  15.209   5.039 -0.2162  0.1090 -0.1550
19315W        W34784  16.492  16.718   3.617 -0.2201  0.4565  0.1255
19316W        W34785  10.559  12.666   2.772 -0.2316 -0.1263  0.1766
19317W        W34786   7.908  13.448   1.404 -0.0541 -0.1097  0.0361
19318W        W34787  11.677  16.516   1.426  0.3968 -0.0224  0.1168
19319W        W34788  16.520   9.076  11.801  0.0928 -0.1564  0.1694
19320W        W34789   6.502   7.559   3.716  0.1241 -0.0051  0.3954
19321W        W34790   9.803   1.344   0.701  0.0998  0.1107  0.2385
19322W        W34791  16.263   0.274   5.274  0.0504  0.0554 -0.1610
19323W        W34792  11.261   2.580  11.764 -0.0083  0.1225  0.0257
19324W        W34793   7.964  11.047   5.265 -0.0491 -0.0207 -0.4368
19325W        W34794  15.505   7.774   2.755  0.0338  0.1398 -0.1277
19326W        W34795   5.382   8.497  14.358  0.2059  0.0279  0.0398
19327W        W34796  13.748   0.921  15.447 -0.0732 -0.1674 -0.2893
19328W        W34797  14.821   7.308   4.798 -0.0953  0.0699 -0.1474
19329W        W34798   3.573   7.345   3.634 -0.3276  0.3731  0.4283
19330W        W34799  11.068   3.658  10.944 -0.2088 -0.0327  0.0253
19331W        W34800  13.826   3.214  11.575  0.2586 -0.4056 -0.0065
19332W        W34801   8.412   9.463   1.528  0.1142  0.0933  0.0474
19333W        W34802   7.086   0.936  12.234 -0.0782  0.1091  0.2550
19334W        W34803  14.350  18.641  14.973  0.3155 -0.1950 -0.2060
19335W        W34804   4.358   5.280   4.289  0.2484 -0.2014 -0.1053
19336W        W34805   1.308  10.118  14.449 -0.1154  0.0530 -0.0836
19337W        W34806  14.249   1.180  15.520 -0.1346 -0.0258 -0.1530
19338W        W34807   8.794   9.292   4.216  0.0676 -0.0454  0.3267
19339W        W34808   3.328   9.859   3.281  0.0179 -0.0669  0.3277
19340W        W34809  11.351   7.619   2.796  0.0898  0.0632  0.2586
19341W        W34810   9.289  17.174   1.689  0.5124  0.1114 -0.0955
19342W        W34811  14.169   8.932   9.723 -0.0345 -0.2871 -0.2087
19343W        W34812  16.232  11.110  12.165  0.2348 -0.0980  0.0934
19344W        W34813   5.857   0.598  15.596  0.3072  0.1700  0.0740
19345W        W34814  11.288   6.921   5.675  0.0699  0.1575 -0.1369
19346W        W34815  12.399   4.388  15.039  0.1235 -0.3593  0.4578
19347W        W34816  18.144  17.176   2.052 -0.1713  0.0247 -0.0808
19348W        W34817   0.706   4.189  11.417  0.2777  0.0814 -0.1214
19349W        W34818   8.973  16.630  13.354 -0.0983  0.5616 -0.1218
19350W        W34819   7.793   9.102  14.525 -0.0217 -0.0117  0.3274
19351W        W34820  12.050   1.756  14.887 -0.0646 -0.1066  0.0214
19352W        W34821  16.031  10.859  10.810 -0.1557  0.1622  0.2494
19353W        W34822   6.341  15.840  15.652  0.0471 -0.1605 -0.2406
19354W        W34823  17.742  14.132  13.241 -0.1381 -0.0214  0.0483
19355W        W34824  17.942  12.315   2.515  0.0139  0.0741  0.1497
19356W        W34825   5.504   2.292   5.109 -0.1208 -0.0501 -0.1379
19357W        W34826  12.134   2.750   3.932 -0.1539  0.1989 -0.1234
19358W        W34827  12.165  16.327   0.820  0.3101 -0.2012 -0.3606
19359W        W34828   3.208   9.409   3.677 -0.2563 -0.3027 -0.3494
19360W        W34829   6.225  16.306  15.495 -0.1320 -0.1467  0.2937
19361W        W34830   0.166  18.228  10.510  0.1168 -0.2339  0.1564
19362W        W34831  14.963  13.740  15.564 -0.1399 -0.2512  0.0073
19363W        W34832   8.679  10.114   4.638 -0.2523 -0.2668  0.0392
19364W        W34833  10.467  12.838  10.628  0.3296  0.3117 -0.1932
19365W        W34834   6.325   1.689   2.894  0.1391  0.0978 -0.1585
19366W        W34835  16.508   7.086  13.890 -0.2474 -0.0946  0.1388
19367W        W34836   9.746  13.142   1.035 -0.0610 -0.1288  0.1235
19368W        W34837   0.797   8.012   1.113  0.0022  0.0583  0.1238
19369W        W34838   6.403  10.400  12.184  0.1688  0.1552 -0.0644
19370W        W34839   3.105   5.039  11.979 -0.0518 -0.1631  0.2240
19371W        W34840   1.475   9.637  11.706 -0.1591 -0.2918  0.0821
19372W        W34841  10.558   3.096   0.806 -0.1007 -0.0798 -0.0479
19373W        W34842  18.404  14.162  11.904 -0.1842 -0.0872  0.2369
19374W        W34843  12.702   9.790   3.342 -0.2000  0.0160 -0.4344
19375W        W34844   4.555   6.920  14.120  0.2022 -0.0585  0.0577
19376W        W34845  16.339   8.731   1.637 -0.2241 -0.3460 -0.0959
19377W        W34846   7.261  14.319   4.645  0.0163 -0.1841 -0.3317
19378W        W34847  17.995  10.224   3.076 -0.1025 -0.1992 -0.2796
19379W        W34848   3.486   4.125   1.253 -0.1849 -0.0619 -0.2483
19380W        W34849   2.975  17.221   4.334 -0.0936  0.2446 -0.1129
19381W        W34850  18.199  12.326   5.099 -0.0528 -0.1344 -0.0366
19382W        W34851   1.523  10.564   3.832 -0.1828  0.0795 -0.0814
19383W        W34852  10.911  16.192  12.220  0.0800  0.0102  0.2120
19384W        W34853  18.112   0.164   3.612  0.0656 -0.1965  0.2911
19385W        W34854   5.916  13.123  10.853 -0.1473  0.0980  0.1674
19386W        W34855  11.868  13.476   3.614  0.3272 -0.1013  0.2697
19387W        W34856  16.550  11.510   4.478  0.2768 -0.2107 -0.5319
19388W        W34857  15.765  12.073   0.436 -0.0948 -0.1218 -0.0766
19389W        W34858   2.758   3.663   4.123  0.3369 -0.0388 -0.0537
19390W        W34859   7.525  12.680   3.615  0.0547  0.1567  0.0678
19391W        W34860  13.001   8.539   2.294  0.1217  0.4437  0.1145
19392W        W34861  16.772  10.454  11.191 -0.0519 -0.1434 -0.2003
19393W        W34862   3.050  12.615  15.640 -0.0048 -0.0112  0.1658
19394W        W34863   7.870   9.841  13.871 -0.3887 -0.0592  0.0816
19395W        W34864  16.067   1.695   1.902  0.1046  0.0724 -0.4939
19396W        W34865  18.180  18.399  12.861  0.0320 -0.1995 -0.0003
19397W        W34866  15.867   4.348  10.564 -0.0032 -0.0851  0.0097
19398W        W34867   0.265   4.931   1.162  0.1072  0.2959  0.0368
19399W        W34868   6.622  15.602   1.971 -0.0690  0.0386  0.3902
19400W        W34869  10.016   7.858   1.580  0.4897 -0.0631 -0.2733
19401W        W34870  13.011  18.615   4.259  0.0821  0.3500 -0.4694
19402W        W34871   3.197  10.280   4.178  0.0087 -0.2738 -0.2126
19403W        W34872  17.841   8.378   2.363 -0.1733 -0.0782  0.2401
19404W        W34873  11.518  11.400   3.425 -0.0452 -0.1695 -0.0290
19405W        W34874   0.936   0.661  13.107 -0.0881 -0.3802 -0.0465
19406W        W34875   7.037   0.394  13.071  0.0738 -0.1935 -0.1157
19407W        W34876  15.244  18.239   4.712 -0.4202 -0.1526 -0.0865
19408W        W34877  10.539  10.192  11.143 -0.2965 -0.3503 -0.1174
19409W        W34878  10.887  10.209   0.827 -0.1994 -0.0604  0.2790
19410W        W34879  11.245   3.153   3.886 -0.0074 -0.0945 -0.1091
19411W        W34880   3.991  10.029  10.805 -0.0329 -0.2123  0.0678
19412W        W34881   6.250   6.034   4.234 -0.1735  0.3240  0.1780
19413W        W34882  15.536   1.660  14.028 -0.0890 -0.3379 -0.2886
19414W        W34883  14.382  15.775  11.522  0.2791  0.0987  0.0042
19415W        W34884  15.798  10.623   4.037 -0.0462  0.3323 -0.0831
19416W        W34885  16.922  14.617  14.725 -0.4528  0.1526  0.0130
19417W        W34886   9.778  11.961   3.993  0.3029  0.4310  0.2651
19418W        W34887   3.675   5.882   1.616 -0.1183  0.1275  0.1583
19419W        W34888   4.699  15.591   5.176 -0.0690 -0.0534 -0.3632
19420W        W34889  18.065  12.498  10.393 -0.1288  0.1727  0.0421
19421W        W34890  17.204  14.674  12.998  0.1776  0.0224 -0.0914
19422W        W34891   4.750  11.838  11.919  0.0804  0.0053 -0.2150
19423W        W34892  11.761   9.654   0.086 -0.1644  0.0014 -0.3110
19424W        W34893   9.977  12.027   1.926 -0.2239  0.1933  0.0249
19425W        W34894   7.019  13.747   3.534  0.0986 -0.1412  0.1138
19426W        W34895  18.307  17.174   0.946 -0.1154 -0.0008 -0.0671
19427W        W34896   3.374   9.554   4.127 -0.5379  0.0376 -0.0049
19428W        W34897  14.812  13.963   0.255 -0.1550 -0.1063 -0.0967
19429W        W34898  12.036   4.365   5.329 -0.0818  0.5193  0.1106
19430W        W34899   2.661   0.947   4.038  0.1461 -0.1716  0.1857
19431W        W34900   4.991   8.957   2.652 -0.0908  0.1324  0.0301
19432W        W34901   3.212   2.886  14.155 -0.1237 -0.0586  0.3580
19433W        W34902   3.681  17.528   1.258 -0.0863  0.1230  0.1348
19434W        W34903  13.683   0.517   4.585  0.3221 -0.0519 -0.3044
19435W        W34904  12.872  15.852  11.408  0.2034 -0.3958  0.2295
19436W        W34905   3.178   9.066  14.293 -0.0718 -0.2364 -0.1428
19437W        W34906   0.098  12.470   5.088  0.2532 -0.0387 -0.0246
19438W        W34907   3.377   8.672  11.345  0.1228  0.0949  0.4461
19439W        W34908   4.103   6.007   0.921 -0.1112  0.4132 -0.2029
19440W        W34909  17.543   3.404   4.186  0.2721  0.1976 -0.1837
19441W        W34910   7.573  12.374   1.087  0.0235  0.0802 -0.2235
19442W        W34911   0.212   8.285   3.552  0.1488 -0.1333 -0.4814
19443W        W34912  14.898   5.019  15.321 -0.0136  0.1028 -0.0977
19444W        W34913   5.005  16.454   2.470 -0.0175  0.0037 -0.1552
19445W        W34914  13.072  14.577   4.084 -0.1462  0.0374 -0.0970
19446W        W34915   8.906  14.850  14.814  0.1058  0.0214  0.0016
19447W        W34916  17.645   9.221   2.306 -0.0959  0.2192  0.1174
19448W        W34917   3.894   8.463   1.240  0.0135 -0.0112  0.1809
19449W        W34918  16.438   3.053   1.742 -0.0259 -0.2273  0.1003
19450W        W34919   3.929  12.725   2.382  0.0771  0.0422 -0.1775
19451W        W34920   2.975  15.830   0.836  0.0456 -0.1848  0.1545
19452W        W34921   1.097   7.447  14.180 -0.2924  0.3909 -0.0282
19453W        W34922   1.114   1.328  11.951  0.1549 -0.1642  0.2903
19454W        W34923   6.308  16.889   3.521 -0.0437 -0.0875  0.1277
19455W        W34924   9.760   6.841   0.983  0.1250  0.3777 -0.2757
19456W        W34925   6.777   5.696   2.727 -0.0783 -0.0437  0.0761
19457W        W34926  16.334  10.233  12.772  0.2092 -0.1967 -0.1620
19458W        W34927   6.599   3.477  10.444  0.3464 -0.1765 -0.1646
19459W        W34928  18.065  17.659  12.398  0.3327 -0.0566 -0.0863
19460W        W34929   2.802  14.588   3.026 -0.1119 -0.1917  0.1013
19461W        W34930  10.624  17.595  15.116 -0.0160 -0.3508  0.2451
19462W        W34931   0.199   3.990  13.358  0.1307  0.0368  0.1006
19463W        W34932   2.672  14.525   3.915 -0.1826  0.2570 -0.0575
19464W        W34933  18.070  16.374  12.974 -0.2956  0.0757  0.0154
19465W        W34934   7.410   6.993  12.830  0.1743  0.0758  0.0109
19466W        W34935  17.070   2.485  15.507  0.3912  0.0311 -0.2433
19467W        W34936  17.199  18.622   2.156 -0.1620 -0.0301 -0.1257
19468W        W34937   5.684   4.342  13.562  0.0415 -0.1729 -0.0059
19469W        W34938   4.260   1.736  14.279 -0.1634 -0.0026  0.4099
19470W        W34939   7.516   2.978   3.690  0.1423  0.1540  0.1828
19471W        W34940   7.957   3.529   1.357 -0.0029 -0.3199 -0.3110
19472W        W34941  11.946   6.425   3.631  0.2078 -0.1616  0.0197
19473W        W34942  14.186  14.263  13.080 -0.1116  0.2687 -0.0484
19474W        W34943   0.063  14.604   3.014  0.2402 -0.0242 -0.3338
19475W        W34944  11.701   7.172  13.660 -0.1944 -0.1220 -0.1724
19476W        W34945   6.321   6.230   4.708  0.2859 -0.0542  0.2224
19477W        W34946  17.719   6.307  10.676  0.0804 -0.1008 -0.2483
19478W        W34947   4.825   8.339   3.289 -0.3525  0.0756 -0.1637
19479W        W34948   1.320   9.401   1.240 -0.1889  0.1370  0.0429
19480W        W34949  10.832   2.592   3.332 -0.2168 -0.0910  0.1417
19481W        W34950   3.314   1.815   5.573  0.3343 -0.1304  0.0689
19482W        W34951  11.016   2.229   1.074 -0.0937 -0.2523 -0.0624
19483W        W34952   9.222   7.457  15.063 -0.0795 -0.1686  0.1177
19484W        W34953  17.413   7.477  13.663 -0.2343 -0.3893  0.1869
19485W        W34954   5.081   6.976   4.472 -0.2840 -0.2226 -0.1929
19486W        W34955   0.739   1.416   9.746  0.2347  0.0145  0.1122
19487W        W34956   8.451  14.206  14.994  0.1061  0.2522 -0.1460
19488W        W34957   5.161  18.404   4.583  0.1323 -0.2913 -0.0473
19489W        W34958  17.314   2.508  14.148 -0.0059  0.2347  0.4486
19490W        W34959   6.324   5.606   3.023  0.0123  0.2184  0.1781
19491W        W34960  11.146  15.312  13.309  0.0948  0.1032 -0.0512
19492W        W34961  17.669  11.585  11.572  0.3533  0.2009 -0.2072
19493W        W34962  13.866  16.097  14.872 -0.1531 -0.0547 -0.0090
19494W        W34963  14.245  11.725   4.167  0.1648  0.2463 -0.2874
19495W        W34964   2.960  10.059   2.913  0.1411  0.0692  0.2159
19496W        W34965   1.280   7.197   2.467  0.1590  0.0844  0.0695
19497W        W34966  12.699   4.264  13.633  0.0554  0.2097  0.1723
19498W        W34967   5.183   7.945   0.172 -0.5980 -0.1352  0.0794
19499W        W34968   1.547   3.957  10.030 -0.3389 -0.1254 -0.4106
19500W        W34969   2.222  13.300  14.212 -0.2561  0.2145  0.1083
19501W        W34970   1.773   4.231   3.884  0.0970  0.1838  0.0119
19502W        W34971  13.133   9.047   2.452  0.1274  0.0343 -0.2120
19503W        W34972   7.462   8.379   3.840 -0.0852  0.3944 -0.1288
19504W        W34973   6.719  10.631  14.375  0.0379  0.2495  0.2691
19505W        W34974   1.541   9.498   0.219  0.0176  0.0620 -0.0551
19506W        W34975   4.619  18.201  12.378 -0.4972 -0.1470  0.0918
19507W        W34976  15.207  12.950  12.946  0.1685 -0.2118 -0.0206
19508W        W34977  14.046   1.574  12.252 -0.0171  0.1196  0.5374
19509W        W34978   1.187   9.451  15.474  0.0634 -0.0078  0.0130
19510W        W34979  12.693   1.325   1.552  0.0401  0.1093  0.4359
19511W        W34980  17.245   2.906   0.978  0.1291 -0.0586 -0.2719
19512W        W34981  15.783   2.087   1.813 -0.2313 -0.0914 -0.0623
19513W        W34982  12.791   3.011   0.382  0.0268 -0.2393  0.0548
19514W        W34983   7.487  17.469  13.370 -0.0263 -0.0070 -0.2718
19515W        W34984   5.989  12.213  11.054  0.1895 -0.1923 -0.0574
19516W        W34985  16.059  12.042   3.476 -0.0242 -0.1261  0.0849
19517W        W34986  11.060   5.478  12.718 -0.0701  0.0640  0.0052
19518W        W34987  14.885   2.403  11.100  0.0469  0.0212 -0.0032
19519W        W34988   8.618   3.831   2.911 -0.3630  0.1266  0.1107
19520W        W34989  14.323  14.659  13.319  0.6915 -0.4414  0.1860
19521W        W34990  10.715  14.452  15.349 -0.3674 -0.1400  0.0408
19522W        W34991   7.832   4.642   2.672 -0.0670 -0.1193  0.0751
19523W        W34992   7.830   8.386   0.928 -0.0554 -0.0693  0.0735
19524W        W34993   0.183   5.044  11.047  0.2003  0.2788 -0.0615
19525W        W34994   7.476  11.715   1.048  0.3440  0.0658  0.2082
19526W        W34995   7.017   1.512  14.210  0.0728 -0.0494  0.1658
19527W        W34996   8.179   6.443   0.872  0.2676  0.2610 -0.0185
19528W        W34997  16.795   7.833  11.004  0.3437 -0.1332 -0.0296
19529W        W34998  17.634   5.500   3.079 -0.1738  0.2587  0.1592
19530W        W34999   1.807   1.117   4.977 -0.1667  0.0562  0.0174
19531W        W35000  14.347   3.382  10.373 -0.1222 -0.1020 -0.1439
19532W        W35001  17.609   6.155   4.732 -0.1012  0.4594 -0.2114
19533W        W35002   6.166   1.599   5.109  0.2804  0.2846 -0.0319
19534W        W35003  18.660   8.713  15.284  0.3159 -0.0862  0.0826
19535W        W35004  10.176   2.444  13.851  0.0807  0.0378  0.1165
19536W        W35005  16.435   7.154   1.930  0.1057  0.4200  0.2595
19537W        W35006   2.519   2.073   0.882  0.1404  0.2811  0.0599
19538W        W35007  14.757  18.217  13.282  0.1885 -0.0041 -0.2704
19539W        W35008  17.026   5.291  14.856 -0.2708  0.1962 -0.3795
19540W        W35009   8.921   2.293   4.980 -0.2889 -0.1593 -0.0541
19541W        W35010  12.030   3.949   2.259 -0.0042  0.3242  0.1815
19542W        W35011   1.056  12.820  14.276  0.0262 -0.1799 -0.0491
19543W        W35012   6.133  11.054  11.422 -0.1324 -0.0101  0.0702
19544W        W35013   4.745   2.504  10.329 -0.1713 -0.0481 -0.0772
19545W        W35014  16.442   7.499  14.788 -0.1877  0.3040  0.1141
19546W        W35015  11.499   5.804   1.332 -0.0737 -0.0402  0.0177
19547W        W35016   7.703   0.910   5.037  0.3128  0.1551  0.0830
19548W        W35017  10.616   6.942   4.477  0.0475  0.0337  0.2953
19549W        W35018  15.598  17.257   3.792  0.2357  0.1624  0.1233
19550W        W35019  18.291  12.595  13.307  0.1890 -0.0630 -0.2389
19551W        W35020  15.930   7.239   0.247 -0.1760  0.1284  0.0072
19552W        W35021   9.757   5.868   5.224 -0.3357 -0.1735  0.0292
19553W        W35022  14.949   1.317   0.675  0.0320 -0.1378  0.0050
19554W        W35023  12.073   7.001   0.211  0.1297  0.3385  0.0476
19555W        W35024   9.591   1.281  14.542  0.0986 -0.2642  0.2916
19556W        W35025  13.421   2.970  15.050  0.0523  0.0159  0.1258
19557W        W35026   2.629   0.023  15.388  0.0999 -0.1592 -0.2042
19558W        W35027   7.174  14.603   4.016  0.0395 -0.1281 -0.2892
19559W        W35028  11.699  17.335   4.451  0.0374 -0.1079 -0.0244
19560W        W35029   6.745  10.746  12.305  0.2330  0.0678 -0.0659
19561W        W35030   7.555   8.939   4.928  0.0750 -0.2030 -0.1024
19562W        W35031   5.388   4.002  14.285 -0.0326 -0.3306  0.2823
19563W        W35032   0.734  14.223  15.450  0.0066 -0.1200  0.4528
19564W        W35033   4.203   6.937   0.810 -0.2344 -0.1516  0.3707
19565W        W35034   2.034   7.522  14.259 -0.1465  0.1067 -0.2436
19566W        W35035  10.034  11.020   2.123 -0.0390 -0.2565  0.1886
19567W        W35036  17.899   1.200   1.725  0.3741 -0.3205 -0.1323
19568W        W35037  10.555   6.082   4.948  0.1576 -0.4014 -0.1449
19569W        W35038  15.879  17.285   0.790  0.1634  0.0926  0.2068
19570W        W35039  14.542   0.737   2.648  0.1811 -0.2715 -0.2078
19571W        W35040  13.065   4.996   3.640  0.0156  0.0813  0.0062
19572W        W35041  18.438   5.849  12.169 -0.1556  0.2735 -0.2174
19573W        W35042   0.836   0.729   0.060 -0.3581 -0.2008 -0.3664
19574W        W35043  10.404  10.743  15.332 -0.0918 -0.0158 -0.2131
19575W        W35044  17.548   8.805  13.070 -0.2102  0.2359 -0.1076
19576W        W35045   2.884  18.545   4.232  0.0815 -0.1070 -0.0310
19577W        W35046  17.597  13.109  15.155  0.1357 -0.1003  0.0065
19578W        W35047  11.525  15.715  13.313 -0.1457 -0.3247 -0.2023
19579W        W35048  14.101  11.438   3.701 -0.3447  0.2553  0.0682
19580W        W35049  11.836   9.882   2.399 -0.1443 -0.2174  0.2814
19581W        W35050   2.319   8.271   4.408 -0.1371 -0.0570  0.1821
19582W        W35051  14.549   5.175  13.297 -0.1931  0.2134 -0.2833
19583W        W35052   7.339  12.917  15.330  0.1774  0.0594  0.0514
19584W        W35053   2.277   0.154  13.996 -0.2131  0.0332 -0.0111
19585W        W35054  15.224   9.014  11.501  0.0918 -0.0058  0.2427
19586W        W35055  11.530   2.468  15.086  0.0085 -0.3808  0.3150
19587W        W35056  12.198   7.344   4.695  0.0889  0.1576 -0.0856
19588W        W35057  14.904  12.937  12.094  0.1588  0.0507 -0.0213
19589W        W35058   3.871   3.843   1.041  0.1200  0.1458 -0.4664
19590W        W35059   9.733  15.812   0.399 -0.0252 -0.3484  0.0976
19591W        W35060  14.882   7.248   4.251 -0.3688 -0.0668  0.1275
19592W        W35061  10.707  14.941  12.483 -0.1316  0.1495 -0.0024
19593W        W35062   1.661  15.783  10.694  0.1962 -0.0373 -0.3575
19594W        W35063   1.879   0.904   4.503  0.1018  0.1391 -0.2564
19595W        W35064  14.200   0.159   3.354 -0.2621 -0.2369 -0.1467
19596W        W35065   9.482  18.492  13.689  0.1036  0.1138 -0.1374
19597W        W35066   7.271   0.130  15.178 -0.0185  0.1148 -0.1207
19598W        W35067   8.159   8.500   2.855 -0.1376 -0.3465  0.0959
19599W        W35068  16.661   7.842   3.223  0.1261 -0.2977  0.1418
19600W        W35069   7.532   0.217   4.335 -0.4439 -0.0013  0.0266
19601W        W35070  17.123   6.899  15.022 -0.2733  0.1382  0.1098
19602W        W35071  10.516   9.357  10.746  0.0296  0.0568 -0.0984
19603W        W35072   9.514  13.456   5.972  0.1156  0.0979 -0.2988
19604W        W35073   6.821  17.064   2.603 -0.0220  0.0950 -0.1380
19605W        W35074  17.831   2.206  10.765  0.0378  0.0685 -0.0430
19606W        W35075   7.208  12.033  13.041  0.0952  0.2629  0.3099
19607W        W35076   3.683  14.528   2.351 -0.1092  0.0491 -0.1126
19608W        W35077   3.824   8.258   3.984 -0.0900  0.0707  0.0237
19609W        W35078   5.829   9.622  13.674  0.0941  0.1929 -0.0928
19610W        W35079  15.770  10.938   2.097 -0.3085  0.3851  0.4355
19611W        W35080  12.647  13.917   3.422 -0.1165  0.1724  0.2347
19612W        W35081  14.587  16.781   1.222 -0.0295  0.1792  0.0345
19613W        W35082   6.612   3.234  13.055 -0.0510  0.2528 -0.0663
19614W        W35083  15.696   9.735   1.556  0.2102  0.2768 -0.0675
19615W        W35084   9.747  13.210   2.381  0.1894  0.1867  0.1033
19616W        W35085   7.674   0.600   4.664 -0.0635  0.1392 -0.1882
19617W        W35086  13.140  16.785   1.030  0.2634  0.0305 -0.1965
19618W        W35087   7.511  13.524  11.742  0.2341  0.0844 -0.2170
19619W        W35088   6.043   3.516   2.536 -0.3304  0.0202  0.0398
19620W        W35089   4.807   1.863  12.691 -0.1603  0.0179 -0.2059
19621W        W35090  15.699  15.608  12.103 -0.1125  0.0223 -0.2935
19622W        W35091   2.622  10.593   0.673  0.0438 -0.2842  0.2289
19623W        W35092   9.002   9.185  10.887 -0.2280 -0.4098  0.0062
19624W        W35093  16.639   6.472   4.050 -0.1770 -0.1780 -0.1253
19625W        W35094  15.949   0.763   2.557  0.0194 -0.1779  0.0244
19626W        W35095  16.522  13.792  12.331 -0.1423 -0.0600 -0.2427
19627W        W35096  11.166  14.785   1.431 -0.1505  0.1829 -0.3012
19628W        W35097  13.118   0.914   3.949  0.1069 -0.1983 -0.3655
19629W        W35098  11.767   4.996  12.781  0.1983  0.0878 -0.1449
19630W        W35099  17.216   0.420  12.238 -0.0022  0.0001 -0.0908
19631W        W35100   7.994   5.273   4.371 -0.1534  0.0259  0.1991
19632W        W35101  11.157  12.370  11.360  0.2194  0.2951  0.0366
19633W        W35102   0.866   1.611  15.244  0.1315  0.0217  0.1083
19634W        W35103  18.592  13.738   4.912 -0.1010  0.0238 -0.3291
19635W        W35104   3.467   2.669   3.435  0.0298 -0.0404 -0.1610
19636W        W35105   1.821   0.295   0.057  0.0231 -0.1075  0.1696
19637W        W35106  11.458  16.819   3.403  0.2317  0.3231  0.0146
19638W        W35107   3.659   4.114   1.967  0.1155  0.2957 -0.0486
19639W        W35108   1.104  15.975  13.249 -0.2256 -0.0476  0.2946
19640W        W35109  14.208   2.671   2.388 -0.0870  0.2765 -0.1362
19641W        W35110   4.594  17.741  13.880 -0.0316  0.0088  0.0429
19642W        W35111  10.452   3.807   5.082  0.0169  0.2726  0.4229
19643W        W35112   8.247   2.136  13.663 -0.4097 -0.0722 -0.1534
19644W        W35113   7.948   7.491   5.582  0.3185 -0.0002  0.2388
19645W        W35114   2.876  16.600  14.502  0.0617 -0.0985  0.0543
19646W        W35115   2.455  18.356  11.610 -0.1334 -0.0453  0.2675
19647W        W35116   9.348  16.835   5.060 -0.3297 -0.0967  0.0060
19648W        W35117   5.625   5.155   2.807 -0.0765 -0.1534 -0.1573
19649W        W35118  16.348   4.725  14.676  0.0808 -0.0858  0.3812
19650W        W35119   6.075   0.288   0.509  0.0765 -0.0514  0.2102
19651W        W35120  13.956   4.020   3.456  0.1564 -0.2215 -0.0656
19652W        W35121   5.945   3.797  13.877 -0.1675  0.1715 -0.0222
19653W        W35122   9.753   7.249   3.995 -0.0074  0.1459  0.5293
19654W        W35123   3.901  15.528   2.409  0.3767 -0.1217  0.0770
19655W        W35124   2.310   5.027  14.490 -0.1871 -0.0561 -0.0399
19656W        W35125  14.893  14.555   1.963 -0.2070  0.0663  0.1580
19657W        W35126  16.412  14.664  15.728 -0.0866  0.0604 -0.1940
19658W        W35127   9.296   5.362  14.019  0.0429 -0.0130  0.1267
19659W        W35128   2.841  18.571  12.488 -0.1102 -0.0246  0.0548
19660W        W35129  13.905   3.069   9.748  0.2817  0.1001 -0.0763
19661W        W35130  13.945   0.153  15.253  0.0399  0.0770  0.2184
19662W        W35131   7.706   9.658  12.971 -0.0425  0.2836  0.0199
19663W        W35132  17.500  13.089   1.478  0.2753  0.1359  0.0516
19664W        W35133   9.275  18.301  12.318  0.2405  0.3706  0.4411
19665W        W35134   3.600   0.224  13.841 -0.2783 -0.0990  0.0120
19666W        W35135  14.405  17.282  10.789 -0.1075  0.2793 -0.1309
19667W        W35136  15.221   1.216  12.602 -0.2350 -0.2610 -0.2004
19668W        W35137  11.823   1.719   0.749  0.2316 -0.0430  0.0943
19669W        W35138   5.782   0.712   1.830 -0.3839 -0.0487 -0.2498
19670W        W35139   8.686  12.454   3.401  0.2387  0.2414 -0.1052
19671W        W35140  16.623   6.355  14.488  0.1147  0.2614  0.2427
19672W        W35141   3.897  13.832  11.195  0.0214 -0.6469 -0.1874
19673W        W35142  15.879  14.861   0.678  0.3086  0.0026  0.4224
19674W        W35143   9.268   2.003  10.550  0.0394 -0.1938 -0.0648
19675W        W35144   2.814  17.232  14.031  0.0704 -0.0188 -0.2361
19676W        W35145   3.511  18.692  15.452 -0.0249 -0.0652  0.1948
19677W        W35146  16.057   9.984  10.903 -0.2209 -0.0347  0.1704
19678W        W35147   0.348  15.913   1.582  0.0438 -0.3717  0.1699
19679W        W35148   2.297   0.866   1.309 -0.1690  0.3876  0.0307
19680W        W35149  14.884   2.043  12.845 -0.2700 -0.0017 -0.1476
19681W        W35150   3.878   8.995   1.255 -0.4176 -0.0589 -0.2515
19682W        W35151   4.558  13.894   5.886 -0.1409  0.1817 -0.2052
19683W        W35152  15.305  18.006  12.206 -0.0497 -0.0338 -0.1724
19684W        W35153   6.238  11.983  12.464 -0.0908  0.1722 -0.1337
19685W        W35154   4.777   7.185  11.088 -0.0678 -0.2131  0.2478
19686W        W35155  18.541  12.605  14.078  0.0182 -0.0424  0.0786
19687W        W35156   0.987   4.106   1.919 -0.0390 -0.1171 -0.3967
19688W        W35157   0.831  12.822  13.794  0.2459  0.2316  0.0185
19689W        W35158  17.900  14.757   2.073 -0.0110  0.0016  0.0455
19690W        W35159  16.722   5.322  15.223 -0.2822  0.1066  0.0944
19691W        W35160   5.595   8.567  11.466 -0.1274  0.0165  0.3000
19692W        W35161   6.412  13.022   0.887  0.0870 -0.2422 -0.1012
19693W        W35162  12.892  16.868   3.344  0.1983  0.1032  0.0448
19694W        W35163   4.175   8.989  13.809 -0.0769  0.3682 -0.3288
19695W        W35164   9.037  17.305   0.958 -0.0364 -0.0992 -0.1668
19696W        W35165   2.076   2.388  12.017 -0.0271  0.0769  0.1820
19697W        W35166   4.514  16.373   2.336  0.2476  0.2443  0.0892
19698W        W35167   9.840   8.184  11.442 -0.1518 -0.3731  0.2371
19699W        W35168  13.718  13.663  14.163 -0.0542 -0.1577  0.2506
19700W        W35169  13.885   2.937   6.045  0.2729 -0.2218  0.0599
19701W        W35170  10.298   3.334   3.064 -0.2930  0.0638 -0.1972
19702W        W35171   3.609  11.689   1.768  0.0664  0.0152 -0.1942
19703W        W35172   5.110  18.697  14.659  0.0186 -0.1039 -0.3161
19704W        W35173   7.574   4.598  12.987 -0.0569 -0.1163 -0.0392
19705W        W35174   1.184  18.553   1.461  0.0402 -0.0182  0.1431
19706W        W35175   6.045   4.919   4.418  0.1006  0.0194  0.0273
19707W        W35176   6.496   5.216   4.475  0.0045  0.0879 -0.0489
19708W        W35177  12.358   9.225  15.376  0.0054  0.2199  0.0439
19709W        W35178  14.679   5.252  12.434 -0.1150 -0.0155 -0.1153
19710W        W35179  12.611  16.267   1.612  0.1129 -0.2321 -0.1190
19711W        W35180   7.934  15.240  10.888 -0.2170  0.0736  0.2042
19712W        W35181  17.752  17.302   5.566 -0.0425  0.0180  0.1108
19713W        W35182   3.468  12.280  13.457 -0.0047  0.0210 -0.0911
19714W        W35183   4.101   4.285   3.376  0.3343 -0.1849  0.2502
19715W        W35184   8.140   1.223  12.523 -0.2168 -0.1992  0.1008
19716W        W35185   1.800   8.914   3.049 -0.0159  0.0915 -0.1188
19717W        W35186   3.684   5.691   3.422  0.2082  0.0300 -0.0533
19718W        W35187  12.663  16.453   0.104 -0.1963 -0.3691  0.0731
19719W        W35188   4.672  16.242   1.777 -0.0273  0.2647 -0.1409
19720W        W35189   2.733   7.115   2.405  0.0285 -0.1484 -0.0222
19721W        W35190  16.101  18.251  13.153  0.0756 -0.0079 -0.0149
19722W        W35191   8.515   6.393   3.883  0.0083 -0.1046  0.1972
19723W        W35192   9.255   4.371   1.054  0.1787  0.1475  0.0789
19724W        W35193   4.856   7.559   3.775  0.0512 -0.1510 -0.2986
19725W        W35194  11.487  16.867   4.596 -0.0650  0.0604  0.0759
19726W        W35195   0.096  11.150   1.581  0.1467 -0.0404 -0.0258
19727W        W35196  17.039   7.492  13.367 -0.0694 -0.0802  0.0644
19728W        W35197   8.504  15.330  13.377  0.3469 -0.0694 -0.1886
19729W        W35198  10.568   7.746   5.207  0.0553 -0.1507 -0.1691
19730W        W35199  13.775   3.114  14.606 -0.1388 -0.2030  0.1032
19731W        W35200   5.896  17.736   3.585  0.2638 -0.0854 -0.0954
19732W        W35201  12.821  12.230   1.378  0.1475 -0.0472  0.2833
19733W        W35202  14.122  15.673   5.910 -0.0127  0.0904 -0.0545
19734W        W35203   9.223   6.802  14.365  0.4721 -0.0440 -0.1513
19735W        W35204   7.656   1.719   1.561 -0.0244  0.0840 -0.1311
19736W        W35205   8.603   2.022   0.724 -0.1973  0.0583 -0.1600
19737W        W35206  10.419  15.234  13.317 -0.0354  0.0928 -0.1251
19738W        W35207  10.375   3.763  14.860  0.1098 -0.1176  0.5480
19739W        W35208  12.573   8.121  10.625 -0.0534 -0.1066  0.0150
19740W        W35209  16.837  10.962  12.937  0.0066  0.1082 -0.0992
19741W        W35210  12.384  12.226  15.456 -0.1588 -0.0704 -0.1336
19742W        W35211  17.131   6.467   4.773  0.0449 -0.0179  0.0076
19743W        W35212  15.134   3.904   1.390 -0.0059  0.0762 -0.2130
19744W        W35213  18.067  10.616   0.963 -0.0867 -0.2321  0.1487
19745W        W35214  17.910   1.657  11.936 -0.2224 -0.2415 -0.2764
19746W        W35215   4.130  13.254   3.870 -0.1339  0.3073  0.4003
19747W        W35216  15.747  11.467  15.666  0.4001 -0.0190 -0.2359
19748W        W35217   4.438   9.702   3.842  0.0545  0.1473  0.2976
19749W        W35218  17.140  11.355  11.305 -0.2390 -0.1872  0.0645
19750W        W35219  16.952   7.458   4.237 -0.1357  0.1265  0.2656
19751W        W35220  17.599  11.561   2.735 -0.0125 -0.1741 -0.0656
19752W        W35221   6.503  18.435   4.283  0.1557 -0.2022 -0.3539
19753W        W35222  14.634   0.799  11.364  0.1487 -0.0514  0.4727
19754W        W35223  10.005  10.234   2.544  0.1257 -0.0043 -0.0819
19755W        W35224   4.693  15.905   5.646  0.0220 -0.2166 -0.0529
19756W        W35225  13.318  10.587   2.945 -0.2324 -0.1467  0.1505
19757W        W35226  12.975   3.114  15.725  0.2156  0.4472 -0.0442
19758W        W35227   4.348   0.237  15.227 -0.1071  0.1264 -0.0666
19759W        W35228   2.435  18.517  12.161  0.0319 -0.0448 -0.1691
19760W        W35229   4.348   7.126  14.782  0.1214  0.1402  0.0391
19761W        W35230   5.596  11.948  13.098 -0.0022  0.1207  0.3464
19762W        W35231  10.276   8.068   0.720  0.1895  0.0057 -0.0563
19763W        W35232  13.439  14.304   1.097  0.0583 -0.0650 -0.1639
19764W        W35233  13.128  15.310   5.288  0.1102 -0.1480 -0.1221
19765W        W35234   9.127   1.919   4.690  0.3152 -0.1671  0.1607
19766W        W35235  13.061  15.460  10.893 -0.0324  0.0220  0.0804
19767W        W35236   8.835   5.117   0.569 -0.3320 -0.3881  0.1861
19768W        W35237   2.024   9.122  13.668  0.1166  0.1181 -0.0943
19769W        W35238  17.730  13.256   0.330 -0.1590  0.0650  0.0353
19770W        W35239  12.574  15.313   2.225  0.1930 -0.0189  0.1239
19771W        W35240  11.384   4.216  11.205 -0.1466 -0.0994 -0.1213
19772W        W35241   3.716   6.122  13.116  0.2305 -0.2718 -0.1391
19773W        W35242   3.741  12.681  12.958  0.3276  0.2155 -0.3275
19774W        W35243  15.730   5.491   4.423 -0.0435  0.0661  0.2655
19775W        W35244   8.104  17.491   3.643  0.2280 -0.1097  0.0004
19776W        W35245   5.008  12.303   1.592 -0.1365 -0.2235 -0.1005
19777W        W35246  11.593   0.817   4.815 -0.2063  0.0168  0.2349
19778W        W35247  18.500  13.897   0.445  0.3107 -0.0948 -0.3306
19779W        W35248  15.185  18.406  11.891  0.0241 -0.0366  0.2130
19780W        W35249   1.915   0.205   2.551 -0.2214  0.1039  0.1615
19781W        W35250   3.408   9.040   3.963 -0.0318  0.3397  0.0346
19782W        W35251   3.607   6.523  12.789  0.0626  0.0816 -0.1053
19783W        W35252  10.783  15.071  15.479 -0.0710  0.0220  0.0666
19784W        W35253  14.361  17.385   1.142  0.0100  0.0416  0.1682
19785W        W35254   7.539   5.065   4.323 -0.0270  0.0632  0.1884
19786W        W35255  12.071   2.628  13.416 -0.2370  0.2317 -0.1792
19787W        W35256   1.343   1.806  15.117  0.0061 -0.2271  0.0927
19788W        W35257  14.775  16.347  10.891  0.2785  0.1405  0.1270
19789W        W35258  12.311   8.734   5.946  0.0726  0.1798 -0.1342
19790W        W35259  10.522  15.295   0.671  0.1051 -0.2886  0.1113
19791W        W35260  11.289  10.968   5.786 -0.0517 -0.1746  0.0771
19792W        W35261   2.470   5.417  12.722  0.0873  0.0977  0.0371
19793W        W35262  16.435   8.976  14.826  0.0051  0.1470 -0.0697
19794W        W35263   0.078  16.425  11.923 -0.1783 -0.0123 -0.0035
19795W        W35264  15.367  18.355  12.694 -0.1181 -0.0278 -0.1319
19796W        W35265   7.036  11.324   0.322  0.0753 -0.0820  0.0291
19797W        W35266  11.684   7.371   0.241 -0.0755  0.0518  0.1033
19798W        W35267   0.100   6.363  11.972  0.0842 -0.3841 -0.1295
19799W        W35268  12.451  10.312  12.903 -0.0419  0.0843 -0.1978
19800W        W35269  13.788  10.583  12.328  0.2552  0.2218 -0.0952
19801W        W35270  18.669   7.204   1.141 -0.0318  0.0986 -0.0971
19802W        W35271   4.270  17.036   4.768 -0.1679  0.2073 -0.0949
19803W        W35272  12.302  11.504  10.484 -0.0244 -0.1464 -0.1350
19804W        W35273   5.018   6.928  12.417  0.0894 -0.3276 -0.1802
19805W        W35274  13.863  14.239   0.058 -0.2242 -0.0148 -0.4314
19806W        W35275   4.753  17.168   5.541  0.4080 -0.0126  0.1383
19807W        W35276   8.419   2.091  10.570  0.0154 -0.2315 -0.0489
19808W        W35277   1.345   3.664   4.321 -0.0847  0.1474 -0.1010
19809W        W35278   6.865  12.495  11.716  0.0339  0.2513 -0.1868
19810W        W35279   4.001  17.924   3.836 -0.2629  0.0658 -0.1915
19811W        W35280   5.748  15.008   9.901 -0.0812 -0.0566 -0.1489
19812W        W35281   4.159  15.234   4.768  0.3311 -0.1475  0.0818
19813W        W35282  16.853   2.563   2.649  0.0383 -0.1523 -0.0030
19814W        W35283   3.349   1.571   1.887  0.0099  0.2866 -0.2005
19815W        W35284  13.708   6.389   3.278 -0.0366  0.2993  0.0371
19816W        W35285  15.940   9.823   0.321  0.1973  0.0760 -0.1229
19817W        W35286   5.122  14.960  14.751 -0.1468  0.0008  0.0385
19818W        W35287   8.410  15.222   1.143  0.0943 -0.3089  0.2214
19819W        W35288  15.678   8.580   2.454  0.1510  0.1502  0.4602
19820W        W35289   4.104  14.248   1.734 -0.2261  0.4723 -0.2181
19821W        W35290   6.675   2.963   4.124 -0.1020  0.1301 -0.2167
19822W        W35291  11.688   2.102   2.168 -0.1640  0.1282 -0.0653
19823W        W35292   7.077   8.376  11.772 -0.1790  0.2442  0.1229
19824W        W35293   5.914   4.248  10.889  0.1429  0.3876 -0.1591
19825W        W35294   8.996   5.932   0.182  0.0850  0.1215  0.1286
19826W        W35295   1.867  14.405   1.609  0.0444 -0.0589 -0.1214
19827W        W35296   2.693  15.451   1.832 -0.2671 -0.0779 -0.1415
19828W        W35297  10.308   0.155   3.385  0.1259  0.2929  0.0631
19829W        W35298  15.649  18.649  13.391  0.2058 -0.0354 -0.0161
19830W        W35299  11.319  16.005  15.079 -0.0455 -0.2238  0.3374
19831W        W35300  18.101   0.721  13.177 -0.1625 -0.2511  0.2819
19832W        W35301  13.789  18.188  14.457  0.0586  0.1659  0.2845
19833W        W35302   1.490   3.832  13.541 -0.0927  0.0922 -0.1399
19834W        W35303  17.359  12.369   2.432  0.0584 -0.2519  0.2686
19835W        W35304  17.380   8.076  12.620  0.3680  0.2747  0.0593
19836W        W35305  15.830  14.566   4.294  0.3242 -0.0526  0.0767
19837W        W35306   9.376   1.703   4.084  0.0503 -0.0763  0.1967
19838W        W35307  16.831  11.178  10.968  0.0206  0.0094  0.0315
19839W        W35308  18.278   3.735   3.294 -0.1424  0.1527 -0.1227
19840W        W35309  16.261  12.309  13.333 -0.0184  0.0673  0.4934
19841W        W35310  10.312   0.600  15.623 -0.2409 -0.0480  0.3591
19842W        W35311   1.684  11.577   3.243  0.0791  0.4068  0.0328
19843W        W35312   2.146  13.647  11.032  0.1633  0.1356  0.1084
19844W        W35313  15.927   7.395  10.661  0.0799  0.0652  0.1524
19845W        W35314   0.826  15.569  13.379  0.2588 -0.1230  0.1964
19846W        W35315  12.331  14.168  12.950  0.1369  0.4810 -0.0239
19847W        W35316  10.976   6.411  10.644  0.2942  0.1293 -0.4677
19848W        W35317   7.395  11.830  11.172  0.0813  0.0006  0.0287
19849W        W35318   1.610  11.087   2.979 -0.3300 -0.0649  0.2153
19850W        W35319  15.473   2.256  15.014  0.1107 -0.0685 -0.2284
19851W        W35320  14.338   6.663   4.030 -0.0333  0.2030 -0.1819
19852W        W35321   4.414  15.817  11.544 -0.2690  0.3200  0.0504
19853W        W35322  11.819   2.044  13.916  0.1141 -0.1015  0.0304
19854W        W35323  13.158  14.428   5.073  0.2287 -0.0621 -0.0467
19855W        W35324   7.799  13.836  13.476  0.1685  0.2243 -0.1133
19856W        W35325   1.967   0.677  12.002  0.0325  0.1594 -0.1350
19857W        W35326   3.519  14.983  14.639 -0.0262  0.2650 -0.1016
19858W        W35327  15.151  10.854   2.919  0.0022  0.1163 -0.0137
19859W        W35328  16.625  12.504   0.099 -0.0474 -0.3100  0.2300
19860W        W35329  10.145   9.830  12.979  0.2703  0.1584  0.1568
19861W        W35330   9.692   0.021   0.738  0.1040  0.0037 -0.3900
19862W        W35331   0.454  15.067   5.097  0.1870 -0.2337 -0.1067
19863W        W35332   0.525   1.553  11.525 -0.1215  0.0648  0.3525
19864W        W35333  15.768   8.739   0.304 -0.4015  0.0327 -0.4524
19865W        W35334  11.922  16.686  11.292  0.4206  0.1795  0.0770
19866W        W35335  18.219  11.814   1.060 -0.4285  0.1620 -0.0031
19867W        W35336   3.519  13.839   5.136 -0.0183 -0.0275  0.0353
19868W        W35337  15.551   8.081  15.461  0.0374  0.2635 -0.1014
19869W        W35338   1.614   8.069  15.772  0.2879 -0.2039 -0.1817
19870W        W35339   8.205  13.630  13.693  0.0124  0.1821 -0.3126
19871W        W35340  12.259  18.359   1.037  0.0730  0.0334  0.1916
19872W        W35341   6.451   7.232   1.018  0.1884 -0.1241  0.1099
19873W        W35342   9.066   3.710  14.120  0.1904  0.0558 -0.1991
19874W        W35343  17.516  18.597  13.016  0.1592  0.0102  0.2004
19875W        W35344   4.432   7.510   4.786 -0.4262  0.4418  0.1714
19876W        W35345   5.827   5.458   1.102  0.2560  0.1257 -0.1138
19877W        W35346   8.307  15.672  15.379 -0.0183 -0.0221 -0.3741
19878W        W35347   9.716  17.005   3.122  0.0659  0.0384 -0.1706
19879W        W35348  11.632  14.750  15.698 -0.0269 -0.0573 -0.0316
19880W        W35349   0.783  10.020   4.015 -0.1205  0.1449  0.2527
19881W        W35350  14.241  14.909   1.977  0.1068 -0.1393 -0.2167
19882W        W35351  10.958   3.897   3.220 -0.3528  0.1862 -0.1294
19883W        W35352  16.351  11.063   1.067 -0.0564  0.4757  0.1460
19884W        W35353  11.074  17.668  15.449 -0.1393  0.1204  0.1294
19885W        W35354   7.823  10.728  14.414 -0.2225  0.0601  0.2772
19886W        W35355  13.447   4.058  15.738 -0.0527 -0.1155 -0.0341
19887W        W35356  12.105  10.803  13.563  0.2627 -0.1579 -0.0705
19888W        W35357   5.218  14.185   5.247 -0.0380 -0.2415 -0.0194
19889W        W35358  17.366   2.074   2.234 -0.0163  0.1860 -0.1049
19890W        W35359   8.367   0.190   3.282  0.2317 -0.0469 -0.2528
19891W        W35360  13.910   7.262  11.824  0.0102  0.0585 -0.0922
19892W        W35361  18.211  18.586   9.850  0.3646 -0.0032  0.1189
19893W        W35362   0.332  14.286   3.324 -0.0421 -0.2598 -0.2732
19894W        W35363   1.414   1.878   3.686 -0.0494  0.0824 -0.1367
19895W        W35364  11.053   7.996   3.019 -0.1108 -0.1595 -0.0781
19896W        W35365   1.430  17.058   2.348  0.1881 -0.1410  0.4450
19897W        W35366   9.192   9.916   2.349 -0.0289  0.1309  0.2459
19898W        W35367  16.589   7.957   0.153 -0.0180 -0.2918 -0.0326
19899W        W35368   1.386   2.606   4.316 -0.1335 -0.3440  0.1164
19900W        W35369   0.937   2.955   0.991  0.3615  0.1611  0.0609
19901W        W35370   3.935  11.309   4.838  0.2128 -0.2056  0.4287
19902W        W35371   5.396  11.315  11.876  0.2357  0.0980 -0.2140
19903W        W35372  13.430  18.362  10.769  0.0910 -0.1864 -0.0534
19904W        W35373   4.471  12.467  12.068  0.0128 -0.2468  0.2732
19905W        W35374   2.986   6.147  14.317  0.4556 -0.4666  0.1857
19906W        W35375  17.790   0.337  11.701  0.2488 -0.0615 -0.1188
19907W        W35376  10.251   9.015  13.765  0.2067  0.0445  0.0769
19908W        W35377   4.188   8.841  14.359 -0.4947  0.1786 -0.2975
19909W        W35378   6.669   5.012   3.245  0.0051  0.1712  0.1747
19910W        W35379  10.635   3.005  10.472 -0.0742 -0.0303  0.0617
19911W        W35380  13.449   2.724  13.937 -0.4029 -0.0275 -0.3022
19912W        W35381   9.707   2.330   3.465  0.0122 -0.0827 -0.0704
19913W        W35382   3.048   7.421  11.771  0.1726  0.1107  0.0601
19914W        W35383  14.996   8.253  11.992 -0.2141  0.0795  0.2067
19915W        W35384  13.169   1.811   4.823 -0.0087  0.5045 -0.0468
19916W        W35385   4.049   3.338   0.928  0.0833 -0.2445  0.0055
19917W        W35386   7.267  17.363  10.309  0.2603 -0.0087 -0.1520
19918W        W35387  11.376  13.541   3.618  0.2182 -0.1765 -0.1488
19919W        W35388   8.252   0.307  12.163 -0.0050 -0.1463  0.3049
19920W        W35389  17.023   8.395   2.470 -0.0253 -0.2811 -0.0485
19921W        W35390  11.830   4.183   3.856  0.0560  0.2666 -0.2849
19922W        W35391   2.996   1.084   3.561 -0.1272  0.2667 -0.0124
19923W        W35392   3.415  10.198   2.888  0.2008  0.0792  0.0457
19924W        W35393   1.406  18.614   3.723  0.2185 -0.1317  0.0859
19925W        W35394   6.042  15.080   4.436  0.0981  0.0540  0.0437
19926W        W35395   3.563   9.743   1.499 -0.1386 -0.0608 -0.1560
19927W        W35396   7.635  17.381   1.172  0.1364 -0.0580  0.2885
19928W        W35397   3.955   9.870  12.909 -0.2492  0.2536  0.1538
19929W        W35398  17.443   8.856   0.957 -0.1227 -0.3490  0.0733
19930W        W35399  12.161  18.436   2.013  0.1798 -0.2802  0.0415
19931W        W35400  13.401   9.128  15.703  0.1030 -0.0420  0.3531
19932W        W35401  15.898   3.132  13.758 -0.2154 -0.1089  0.1054
19933W        W35402   8.233   4.958   1.723 -0.1332 -0.1514  0.1567
19934W        W35403  16.585   3.558  12.108  0.0641  0.0357  0.0666
19935W        W35404   0.807  14.244  11.984  0.1858  0.0922 -0.0219
19936W        W35405  14.444  13.564   0.207  0.1238 -0.2282  0.0785
19937W        W35406   5.337   3.856   3.238 -0.1338  0.0455 -0.0561
19938W        W35407  18.283  18.251  11.831  0.3788 -0.1181 -0.0118
19939W        W35408  17.795  17.578  14.964  0.1060  0.1715 -0.0644
19940W        W35409   8.131   1.384  12.027 -0.2704 -0.1514  0.3322
19941W        W35410   9.190   2.560   4.682  0.4944 -0.0625  0.0313
19942W        W35411  15.540   1.090  14.034  0.2393 -0.3215 -0.1540
19943W        W35412  17.822   5.569   1.145  0.2528  0.3590 -0.1358
19944W        W35413   1.764   9.541  15.489  0.1034  0.0848  0.1740
19945W        W35414   2.703   1.294   1.277 -0.4405 -0.0137 -0.1529
19946W        W35415   6.554   8.604  13.412  0.0981 -0.1207 -0.0635
19947W        W35416  18.670   1.150  13.040  0.0138 -0.0946 -0.0243
19948W        W35417  18.142   5.094   0.178 -0.2198 -0.3293  0.2111
19949W        W35418  11.270   7.822   6.074 -0.0308 -0.2762  0.5419
19950W        W35419  15.455  11.257  14.246 -0.1354 -0.2374  0.2993
19951W        W35420   9.605  18.680  12.259 -0.0210 -0.0103  0.0068
19952W        W35421   2.932   9.914   5.506  0.1872 -0.1829  0.2279
19953W        W35422  13.268  13.556  15.534  0.1278 -0.0539  0.2619
19954W        W35423   3.659  14.520   0.194 -0.0182 -0.1264 -0.0888
19955W        W35424   3.396  17.192   0.880  0.5240 -0.3173  0.0426
19956W        W35425  18.346  16.579  11.563  0.3314  0.1544  0.0443
19957W        W35426   2.107   8.711   2.474 -0.0959  0.0180 -0.4067
19958W        W35427  17.488  15.167  14.093 -0.1269  0.2257  0.0682
19959W        W35428  15.639   9.688  11.064 -0.1405 -0.2244 -0.0306
19960W        W35429  14.043   5.480   5.880  0.0713  0.3662 -0.0264
19961W        W35430  17.424  14.891  12.543  0.4842  0.0850 -0.0034
19962W        W35431  16.669  10.276   0.125  0.0187  0.2850  0.0317
19963W        W35432   7.570   8.861   3.650 -0.0674  0.0275  0.1215
19964W        W35433  15.375   3.680   2.218  0.1196  0.1955  0.0748
19965W        W35434  12.421   2.594   0.149 -0.3947 -0.2342  0.1483
19966W        W35435  12.808  14.953   0.441  0.2142 -0.0642  0.0530
19967W        W35436   4.525  11.672  14.874  0.2388  0.0521 -0.1209
19968W        W35437   9.953  13.463  15.071 -0.2422  0.1130 -0.0644
19969W        W35438  14.137  11.963  13.397 -0.0831 -0.1062  0.0198
19970W        W35439   2.786   0.880   0.994 -0.1905  0.3513  0.1459
19971W        W35440  17.906   5.811   1.783  0.2633 -0.2898  0.0281
19972W        W35441   3.669   8.904   3.188 -0.0308  0.1651  0.0350
19973W        W35442   2.674   9.122   2.879  0.0465 -0.0854  0.2537
19974W        W35443  14.119  15.728  14.586  0.0323 -0.0120  0.0098
19975W        W35444   7.459  10.759   2.294 -0.0522  0.5482 -0.3697
19976W        W35445   0.867  16.962   4.464  0.0376  0.0584  0.2414
19977W        W35446   8.712   8.975  13.905 -0.0557  0.0616  0.1804
19978W        W35447   9.344   7.764   5.572  0.1465  0.1936 -0.0478
19979W        W35448   2.598   6.745   5.380 -0.1962  0.1621 -0.1815
19980W        W35449  13.374   0.174  10.861 -0.2258 -0.0837  0.0477
19981W        W35450  16.218   0.197   3.280  0.2013  0.1455  0.3276
19982W        W35451   1.398  16.499  11.236  0.1890 -0.0412  0.1067
19983W        W35452   7.545   6.340  13.607  0.2036  0.3632  0.0014
19984W        W35453  17.946   9.770   3.924 -0.1240  0.0282  0.2131
19985W        W35454  11.100   3.254  14.660  0.1390 -0.2261  0.0309
19986W        W35455  10.145   4.951   3.705 -0.1835  0.1096  0.2035
19987W        W35456   8.730  10.746  13.179  0.5360  0.0715  0.0784
19988W        W35457  10.331   8.825  10.871  0.1302 -0.1445  0.0383
19989W        W35458   1.974   9.783   6.143 -0.0920  0.1822 -0.2177
19990W        W35459  17.830  17.400   4.695 -0.0440 -0.2036  0.1462
19991W        W35460  16.478   3.177   3.461 -0.2978  0.1392  0.1086
19992W        W35461  11.608  14.589   5.685 -0.1494 -0.3107 -0.1321
19993W        W35462   0.222  12.742  12.344 -0.1204  0.2808  0.0106
19994W        W35463   9.799  17.998   4.935 -0.1565  0.4574 -0.1894
19995W        W35464   6.442   9.920  15.626  0.2551 -0.1247 -0.1831
19996W        W35465  17.233  18.418   4.285 -0.0939  0.1186 -0.1491
19997W        W35466   8.653   2.738   1.467  0.2310 -0.4592 -0.2761
19998W        W35467   0.735   0.888  14.996  0.0244 -0.2790  0.1443
19999W        W35468   0.785   9.837  12.526  0.4645 -0.0365 -0.1428
20000W        W35469   9.680  14.874  12.971  0.2245  0.1310 -0.0774
20001W        W35470   0.285   0.056  14.599 -0.0390  0.0592  0.1322
20002W        W35471   5.457   7.784  14.003 -0.2192 -0.0360 -0.0144
20003W        W35472  14.059   3.795   4.474 -0.0026 -0.0548  0.2599
20004W        W35473  10.669  12.276  13.334 -0.0505 -0.4136 -0.0941
20005W        W35474   6.643   4.411   2.001  0.1902 -0.0519 -0.3697
20006W        W35475   8.316  17.396   3.222 -0.0924  0.1631 -0.0346
20007W        W35476   8.331   5.525  14.512  0.1281 -0.1146 -0.3083
20008W        W35477  12.373   1.413   5.140  0.1498 -0.0528 -0.2379
20009W        W35478   8.219   1.818  15.364  0.0156  0.1103 -0.2212
20010W        W35479  10.476   6.336   4.372  0.0807 -0.1843 -0.3012
20011W        W35480  15.632   2.185   1.331 -0.0764 -0.2118  0.5275
20012W        W35481   0.531   8.063   1.582 -0.0861  0.1209  0.2504
20013W        W35482   8.502  12.727   4.730 -0.0947  0.3876  0.0430
20014W        W35483   4.055   1.987  13.205 -0.0611  0.1691 -0.1271
20015W        W35484  10.894  10.803  15.213  0.1382 -0.0302 -0.3008
20016W        W35485   9.889  12.693   4.553  0.1310 -0.1622  0.0626
20017W        W35486   4.974  17.909  14.201 -0.2638 -0.0146 -0.0057
20018W        W35487  13.936   5.811  11.506 -0.2590  0.2388  0.0770
20019W        W35488   6.309  15.446   4.140  0.0006 -0.1122  0.3778
20020W        W35489  13.933  11.498   5.071 -0.1022  0.0705  0.2236
20021W        W35490  11.640  16.171   1.074 -0.1044  0.0146 -0.2449
20022W        W35491  17.077   8.097   3.351  0.1140  0.1103 -0.1251
20023W        W35492   5.841   0.925   5.093 -0.3030  0.2595  0.0121
20024W        W35493   7.455   6.532   1.973 -0.0197  0.0287  0.0871
20025W        W35494   3.050   9.849   4.338  0.1044  0.1985 -0.0409
20026W        W35495   5.681   8.840  12.862  0.1738 -0.0593 -0.1382
20027W        W35496   1.789  15.171   5.013  0.0221 -0.1200  0.1090
20028W        W35497  11.118  11.837  11.358  0.0851  0.1919  0.4082
20029W        W35498   1.450  11.574   5.218 -0.1493 -0.2245  0.1493
20030W        W35499   0.029   0.469   3.939 -0.1798  0.1827 -0.3855
20031W        W35500   3.485   8.503   1.965 -0.1777  0.2023 -0.0227
20032W        W35501  18.324   5.856  15.685  0.1156  0.0170 -0.0766
20033W        W35502  10.795   6.562   3.183 -0.0295 -0.0519 -0.0917
20034W        W35503   3.532   6.502  14.531 -0.0928 -0.0964  0.4007
20035W        W35504   9.243   5.543   3.584 -0.1131  0.2020 -0.1836
20036W        W35505   1.251  13.525  15.146  0.2616  0.0882  0.1351
20037W        W35506  17.658   9.151   1.269 -0.3179  0.1412  0.3420
20038W        W35507  11.099   4.522  13.487 -0.0815 -0.1667 -0.0611
20039W        W35508  17.845   2.244   0.914 -0.1360 -0.2832 -0.3997
20040W        W35509  16.063  11.907  13.709 -0.0615 -0.2921  0.2625
20041W        W35510  17.296  13.802   4.662  0.0459  0.0968 -0.0783
20042W        W35511   1.940   6.553  12.062 -0.2959 -0.0192 -0.0342
20043W        W35512  10.687  10.487  14.638  0.3070  0.0670  0.0841
20044W        W35513   4.163   2.414  13.425 -0.3645  0.0265 -0.3701
20045W        W35514  10.618  16.867  11.092  0.2122 -0.1089 -0.0617
20046W        W35515  12.856   0.122   2.943  0.2136  0.0724 -0.0279
20047W        W35516   2.625   9.298   0.126 -0.0425  0.1412  0.0116
20048W        W35517   6.349   4.165   4.141  0.1222 -0.0697 -0.2725
20049W        W35518  12.845   2.279   0.786  0.1729 -0.0279  0.2392
20050W        W35519   4.902  13.689   2.625  0.1569 -0.1194 -0.4096
20051W        W35520  12.308  12.692  10.699 -0.1563 -0.2063 -0.5474
20052W        W35521   1.757  16.623  12.938 -0.0234  0.1240  0.0401
20053W        W35522   5.801  16.688  13.763  0.0408  0.0477  0.2598
20054W        W35523  13.505   4.406  13.378 -0.0400  0.0133  0.0251
20055W        W35524   7.367  12.304  14.561  0.2962 -0.0019 -0.3855
20056W        W35525   7.093   5.773   4.759  0.0150  0.1240 -0.1587
20057W        W35526  15.898  10.132   5.014 -0.1976 -0.0174  0.2688
20058W        W35527  14.193   8.436  12.572 -0.0743  0.0229  0.4568
20059W        W35528  17.863   9.619   1.550 -0.2067 -0.0503  0.1749
20060W        W35529   8.325  17.594  11.532  0.0476 -0.0009 -0.0150
20061W        W35530  16.484   8.351   4.023  0.2094  0.0992 -0.3896
20062W        W35531   8.297  14.229   1.078 -0.2303 -0.1790  0.0984
20063W        W35532   6.777   4.733   2.780 -0.0602  0.1734 -0.2794
20064W        W35533   5.193   9.881  12.190  0.0781 -0.0678  0.3948
20065W        W35534   8.459  10.753  15.219  0.0668 -0.1330  0.4983
20066W        W35535  18.502  18.111  12.564 -0.0085 -0.0518 -0.1425
20067W        W35536   1.872   1.707   2.176 -0.1479  0.0960  0.1060
20068W        W35537  16.894   3.093   2.781 -0.3208  0.1456 -0.1351
20069W        W35538  14.674  10.747   4.304 -0.0060  0.1439 -0.0528
20070W        W35539  12.612  14.984  15.164 -0.1106  0.4480  0.2602
20071W        W35540   2.494  12.525   1.770  0.2057 -0.0653 -0.1257
20072W        W35541  10.983  18.045  10.117  0.2262 -0.0059 -0.0940
20073W        W35542  12.471   2.506  14.218  0.3606 -0.2860  0.1310
20074W        W35543   6.507   6.287  11.646  0.1254 -0.1022  0.1589
20075W        W35544  17.140   0.294   4.811 -0.0814 -0.1540  0.2377
20076W        W35545   5.480  17.419  15.562 -0.3309 -0.0713 -0.0052
20077W        W35546   1.666  14.721   4.257 -0.1283 -0.1493  0.0908
20078W        W35547   4.058  10.909   2.260  0.1613 -0.1231  0.3798
20079W        W35548   2.883   8.719  11.578 -0.0601  0.0776 -0.1246
20080W        W35549   0.699  16.172   4.832  0.1984 -0.0333  0.0140
20081W        W35550   1.478   8.979  14.312 -0.1298 -0.1681 -0.0777
20082W        W35551  12.394   0.865  12.551  0.1588 -0.1364 -0.3021
20083W        W35552  14.885  17.390  14.673  0.2774 -0.0598 -0.0090
20084W        W35553   0.489   5.638  14.018 -0.0643 -0.2203 -0.1412
20085W        W35554  15.770   0.804  15.268 -0.3525  0.1291 -0.3254
20086W        W35555   1.131  11.712  15.404  0.0593 -0.0194 -0.0432
20087W        W35556   3.258   5.467   2.243  0.3204  0.0771  0.1359
20088W        W35557  13.648   1.588   4.085  0.0873  0.0136 -0.3318
20089W        W35558  16.017   8.455   4.263 -0.4179  0.3432  0.2165
20090W        W35559  15.157   9.411  12.290 -0.1803  0.0270 -0.0956
20091W        W35560   0.034   5.561   4.239 -0.1090  0.1532  0.0942
20092W        W35561   1.642   5.909   3.406 -0.1090  0.1497  0.1165
20093W        W35562  12.142  12.702  15.578 -0.0698  0.2730 -0.1213
20094W        W35563  17.590   9.517   5.192  0.1689  0.2037 -0.2354
20095W        W35564  14.185   9.643   2.343 -0.0645 -0.2034 -0.2121
20096W        W35565   7.552  10.967  11.351  0.0515  0.2018  0.1232
20097W        W35566  12.883  15.368  14.059 -0.0518 -0.0271 -0.1255
20098W        W35567  13.821   8.884   1.603  0.2151 -0.0493  0.2334
20099W        W35568  14.678   4.729   1.088  0.2444  0.3592  0.0254
20100W        W35569  12.167  14.257   4.189 -0.1567  0.0429 -0.1178
20101W        W35570  11.510   2.001  11.937 -0.1246  0.0381 -0.2073
20102W        W35571   8.392   1.164   3.271 -0.2405 -0.2039 -0.3373
20103W        W35572  13.235   7.429  10.702  0.3059 -0.5127  0.2834
20104W        W35573   9.940   2.082  11.044  0.3157 -0.2056 -0.1101
20105W        W35574  18.486   4.560   0.895 -0.3597  0.0391  0.0491
20106W        W35575   2.298  16.694  11.530 -0.1444 -0.2450 -0.0820
20107W        W35576   7.232  10.513  12.507  0.1001 -0.0524  0.1739
20108W        W35577   9.847   7.101  12.265  0.0256  0.0717 -0.2955
20109W        W35578   4.840  17.670   9.925  0.2844  0.0514  0.2012
20110W        W35579  17.161  12.844  10.206  0.3058 -0.0652  0.1041
20111W        W35580   5.452  17.861  13.422  0.0802  0.2094 -0.3517
20112W        W35581   0.754   7.056  14.443  0.3391 -0.1526 -0.1561
20113W        W35582  16.743  17.556   0.655 -0.0828 -0.0615  0.0552
20114W        W35583  16.764  16.462  11.361 -0.0220 -0.3891  0.0163
20115W        W35584  15.087   2.634  12.935  0.1114  0.1479  0.1196
20116W        W35585  15.644   9.291  11.416  0.3769  0.2891 -0.3898
20117W        W35586  14.801   2.317  14.028  0.0340 -0.3563 -0.3322
20118W        W35587  11.732   1.238   3.406  0.0304 -0.2588  0.2155
20119W        W35588  11.269  10.540  10.818 -0.1136  0.2271 -0.1135
20120W        W35589  18.063   2.414  12.330 -0.0164 -0.1515  0.0993
20121W        W35590   2.704   2.829  11.945 -0.1317 -0.1011  0.0262
20122W        W35591   0.726   0.915  11.310  0.1181  0.0417 -0.1859
20123W        W35592   4.243   4.969   0.417 -0.1175 -0.3428 -0.2962
20124W        W35593  11.449  16.100   0.143  0.0790 -0.1654  0.0125
20125W        W35594  11.943  17.388  12.724  0.2033  0.1633 -0.3008
20126W        W35595   4.256   6.416   1.242 -0.0524  0.0788  0.2104
20127W        W35596   7.871  16.930   0.493  0.1125 -0.3390  0.0396
20128W        W35597   0.421   7.120   1.566  0.1355  0.0995  0.0639
20129W        W35598   9.942  14.928  13.385 -0.1939  0.2639 -0.1244
20130W        W35599  17.779  14.725   3.059  0.3585 -0.1024 -0.2744
20131W        W35600  13.249  17.371  11.981 -0.0804 -0.0566 -0.1615
20132W        W35601  11.107   3.681  12.306 -0.3307 -0.1967  0.0415
20133W        W35602   2.096   5.121  12.638  0.1547  0.0643  0.0659
20134W        W35603   8.576  13.295   1.539  0.2441 -0.3299  0.2049
20135W        W35604  13.550  10.064  15.273 -0.1796  0.1832  0.0701
20136W        W35605   0.181   9.849  12.341  0.2434  0.1778 -0.2339
20137W        W35606  11.563   3.849  10.733 -0.2994  0.2353  0.1945
20138W        W35607   9.664  11.717   0.541 -0.0009  0.1419  0.1464
20139W        W35608   5.420   3.172  15.000  0.1253  0.0280  0.1311
20140W        W35609  16.199   1.800  12.962 -0.1357  0.3844 -0.2237
20141W        W35610  13.596  16.893  12.690  0.1008 -0.3654 -0.3220
20142W        W35611  14.031   2.182  15.202 -0.0507  0.2381  0.1754
20143W        W35612  15.686   2.003   3.684  0.3056  0.1037 -0.4190
20144W        W35613  16.385  16.696   1.726 -0.0141  0.0553  0.2125
20145W        W35614   0.353   9.731   3.880  0.2433  0.1101  0.0707
20146W        W35615   0.046   2.198  14.502  0.1050 -0.0991 -0.2712
20147W        W35616  16.562   3.164   9.352  0.1871 -0.1496  0.4835
20148W        W35617  14.857   9.917  11.029 -0.1983  0.3411  0.2034
20149W        W35618   9.160   4.254  11.465 -0.1084 -0.0508  0.0634
20150W        W35619   0.605   5.559  15.496  0.3862  0.0044 -0.3500
20151W        W35620  15.806  13.428   5.602  0.1082 -0.0699  0.0721
20152W        W35621   7.794  13.679  10.098  0.1108 -0.2667  0.2712
20153W        W35622   5.228  10.878   3.089  0.1261  0.2941  0.1100
20154W        W35623   5.818   3.116  13.673  0.0826  0.0192  0.2720
20155W        W35624  10.850   2.359  14.978  0.1135 -0.1399  0.0895
20156W        W35625   0.814   5.531   3.829 -0.2226  0.2643  0.4404
20157W        W35626  10.241  13.952  12.810  0.0287  0.2298 -0.4458
20158W        W35627   0.629  18.337  10.742  0.2342 -0.1107  0.0147
20159W        W35628  17.381   7.012   3.492 -0.0476  0.2995 -0.0076
20160W        W35629  15.074  12.738   1.883  0.3023  0.0556 -0.3142
20161W        W35630   5.124   7.834   4.951  0.2081  0.1956 -0.2422
20162W        W35631   2.295   8.542   5.592 -0.0487 -0.2380 -0.0350
20163W        W35632  14.575   7.449  15.460 -0.2509  0.1464  0.0312
20164W        W35633   1.246  17.408  14.906  0.1112  0.2925  0.1488
20165W        W35634  12.902  15.813  14.460  0.0780  0.0293  0.0261
20166W        W35635  17.438  10.784   0.287  0.0988 -0.1270 -0.0730
20167W        W35636   6.290  14.979  11.730 -0.1641 -0.2611  0.3403
20168W        W35637  13.996   2.174  10.491  0.3420  0.3724 -0.0163
20169W        W35638  13.262  11.083   2.848  0.1139 -0.2307  0.1043
20170W        W35639   5.004  13.262   5.077 -0.1683 -0.0329  0.1182
20171W        W35640  11.176   0.916   1.506 -0.1477 -0.1804  0.1741
20172W        W35641   7.252  15.384   2.790  0.1383 -0.4278  0.1314
20173W        W35642  15.932   3.840  14.309  0.0787  0.3529 -0.1541
20174W        W35643   4.882  16.804  15.325 -0.0032 -0.3049  0.1452
20175W        W35644   9.711  18.591  14.161 -0.0779  0.0963  0.2574
20176W        W35645  10.822  11.009   0.278  0.2753 -0.1061  0.0488
20177W        W35646  12.066  12.769  14.071  0.2193  0.0352  0.1837
20178W        W35647   4.377   8.491   1.041  0.3536 -0.0719 -0.1461
20179W        W35648   2.546   2.452  13.851  0.0793 -0.2614  0.0726
20180W        W35649  15.266  15.850  15.484 -0.3886  0.2711  0.1705
20181W        W35650  11.273   0.301   1.811  0.0986  0.2247 -0.0565
20182W        W35651   0.741  11.545  14.447  0.4928  0.1657 -0.1676
20183W        W35652  18.476   9.540   1.348  0.0214 -0.0727 -0.2551
20184W        W35653  12.553   0.973  11.219  0.3812  0.2390  0.0201
20185W        W35654  14.022  12.463  13.060 -0.0529  0.2028 -0.1674
20186W        W35655  10.867  14.129  12.217 -0.0022  0.0473  0.0480
20187W        W35656  12.518  15.560   1.211 -0.0360 -0.0694  0.2590
20188W        W35657   1.004   3.857   2.807  0.2289 -0.4227  0.3772
20189W        W35658   3.260  16.295   0.895 -0.0358  0.0331  0.1316
20190W        W35659  15.888   6.081   0.793  0.1938 -0.1588 -0.0716
20191W        W35660   6.056  16.285  14.091  0.1833  0.1104 -0.0451
20192W        W35661   7.912  18.695  11.085  0.1350 -0.1497  0.0514
20193W        W35662  15.823  15.949   2.559  0.0477 -0.1519 -0.1242
20194W        W35663   3.906   6.421  15.209  0.1902  0.2333  0.0315
20195W        W35664   5.229   5.993  11.315 -0.0147  0.1639 -0.0507
20196W        W35665   1.045   9.296  11.764 -0.3791  0.1867  0.1365
20197W        W35666   8.240   4.779  14.145 -0.1453 -0.0572  0.2938
20198W        W35667   5.922  14.719   3.567 -0.2232 -0.3584  0.3292
20199W        W35668  10.252   7.197   3.194 -0.0280 -0.1485 -0.3087
20200W        W35669   3.275  11.370  11.439 -0.0313  0.1452 -0.2057
20201W        W35670   6.560  11.907  14.145  0.2020  0.0080  0.0016
20202W        W35671   4.011  17.268   0.850 -0.0408  0.1490  0.0363
20203W        W35672  11.531  14.621   1.804 -0.0803 -0.0018 -0.1056
20204W        W35673   2.147   4.565  14.396  0.2160 -0.0729 -0.1634
20205W        W35674  13.146  17.609  10.656 -0.0023  0.1690  0.1493
20206W        W35675  14.551   2.977   0.637 -0.0528 -0.5025  0.1115
20207W        W35676  10.741   8.717  14.590  0.0384  0.1808 -0.0696
20208W        W35677  17.059   8.833  14.087  0.0951  0.1126 -0.1309
20209W        W35678   6.693   7.843   2.617 -0.2767  0.0433 -0.0005
20210W        W35679   5.879   1.106  12.223 -0.1017 -0.0142 -0.1380
20211W        W35680   2.229   9.240  12.672  0.3365  0.1254 -0.0969
20212W        W35681  18.664   7.311   4.523 -0.0830  0.1204  0.0333
20213W        W35682   7.836  15.767   4.475  0.3462 -0.0787  0.5609
20214W        W35683   9.649   0.218   4.941 -0.1093  0.1369  0.1464
20215W        W35684  14.176  12.694  12.532  0.1384 -0.1213  0.4580
20216W        W35685   3.352   5.877  11.688  0.0155 -0.3275 -0.0156
20217W        W35686   6.263  11.841  12.921 -0.0217 -0.1771 -0.0358
20218W        W35687   2.785   9.178   3.434 -0.0323  0.0533  0.2968
20219W        W35688  17.690  10.488  14.813 -0.2279  0.0134  0.1355
20220W        W35689  14.208   3.013   1.706 -0.1095 -0.1123  0.1717
20221W        W35690  17.460   9.823   3.540  0.0622  0.0986 -0.1924
20222W        W35691   6.429  17.237  12.629 -0.0020  0.3844 -0.2119
20223W        W35692  16.888   7.186   1.763 -0.1106  0.1413 -0.0890
20224W        W35693   5.171   1.531   1.366  0.1440  0.0315 -0.0185
20225W        W35694   7.473  15.719  15.426  0.0470 -0.1561 -0.1433
20226W        W35695   9.578   0.659  14.981 -0.2070 -0.0266 -0.0391
20227W        W35696   1.621   5.075  11.675  0.0190  0.0107  0.0097
20228W        W35697   4.964  17.433  12.924  0.1577  0.0407 -0.1735
20229W        W35698  17.243   2.082   9.996 -0.0866 -0.0154  0.1513
20230W        W35699  14.127  15.476   5.362  0.1672  0.0771  0.0279
20231W        W35700  10.340  16.109   3.923  0.0132 -0.0627  0.0034
20232W        W35701  15.618   3.759   0.156 -0.0042  0.0483 -0.2054
20233W        W35702   8.348   8.724   2.451 -0.0294 -0.0805  0.1644
20234W        W35703   0.058   8.181   0.766  0.2071 -0.0183 -0.0225
20235W        W35704   1.369  16.144  10.323  0.2647  0.1819 -0.0622
20236W        W35705   1.568   0.661  11.689  0.2053 -0.1719  0.0409
20237W        W35706  11.574   9.901   3.213  0.2230  0.5025  0.1038
20238W        W35707  11.843   9.832  12.248 -0.0501 -0.3147 -0.2320
20239W        W35708  16.959  10.048   2.542  0.2186 -0.1058 -0.0790
20240W        W35709  16.063  17.866  14.902 -0.1242  0.1057 -0.5752
20241W        W35710  15.468   8.249  14.323 -0.3235  0.2520 -0.1548
20242W        W35711   7.261  11.120   6.304  0.1941  0.0716  0.1773
20243W        W35712   6.442   6.902  13.275 -0.1279 -0.0722 -0.1584
20244W        W35713  15.086   0.455  10.856  0.1925 -0.0359 -0.1606
20245W        W35714   4.023  16.163  14.514  0.0913 -0.2332  0.1425
20246W        W35715  18.388   0.585  12.492  0.0847  0.1156  0.1101
20247W        W35716  10.164  16.992   2.216 -0.1346  0.2034  0.2118
20248W        W35717  18.542  17.731   5.029  0.1209 -0.1220  0.2270
20249W        W35718   4.981  14.453   3.777 -0.1321  0.1416 -0.0788
20250W        W35719  16.560   6.276  15.206  0.3032 -0.1734  0.1039
20251W        W35720   9.252   2.636   0.190 -0.4835 -0.0420 -0.0151
20252W        W35721   1.353   3.164   4.279 -0.5974 -0.1654 -0.0863
20253W        W35722   7.113  13.579  13.335 -0.0658 -0.0063  0.0955
20254W        W35723  12.464  16.523  12.526 -0.3086 -0.1299 -0.2305
20255W        W35724  16.721  18.336   3.954 -0.0327  0.1124 -0.3095
20256W        W35725  15.927  15.541   3.073 -0.1347 -0.1158 -0.0466
20257W        W35726  10.285   9.546  14.435 -0.0512 -0.0016 -0.1662
20258W        W35727  15.375   8.901   1.134  0.2435  0.3615  0.1009
20259W        W35728   7.066  15.463  11.268 -0.2126 -0.1519 -0.0242
20260W        W35729  10.636  16.155  13.614  0.1459 -0.3041 -0.0922
20261W        W35730   1.206  12.620  12.139  0.2611  0.1730 -0.0487
20262W        W35731  13.079   8.695  15.525 -0.3716  0.0383  0.2575
20263W        W35732   8.421  14.529   4.314  0.0983 -0.0255  0.0248
20264W        W35733  16.253   3.528   1.748 -0.3547 -0.2840  0.0936
20265W        W35734  16.316  18.002  12.424  0.1134 -0.0962 -0.0567
20266W        W35735   5.277   6.824  12.899  0.4170 -0.3081 -0.0048
20267W        W35736  17.000   4.663  11.047  0.1860 -0.2428  0.0539
20268W        W35737   9.623   8.457  11.811 -0.0110  0.1224  0.3072
20269W        W35738  17.825  13.614   3.287 -0.1050  0.2259 -0.0874
20270W        W35739  16.060  15.781  14.322  0.0292  0.4183 -0.0849
20271W        W35740  12.433  10.259  10.719  0.2030 -0.0983 -0.2313
20272W        W35741   8.050  13.243   0.110  0.2124  0.0715 -0.0900
20273W        W35742   3.744  11.608   4.252  0.3660 -0.1380 -0.0672
20274W        W35743   6.824   0.612  15.777  0.0218  0.1690  0.1334
20275W        W35744  15.158  18.345  10.845  0.0780  0.2285 -0.0239
20276W        W35745   4.156  13.151  12.711  0.0676 -0.1136 -0.2974
20277W        W35746   4.738  15.383  14.645 -0.2322  0.0320 -0.1545
20278W        W35747   2.975   6.287   1.734  0.1785  0.0661 -0.0072
20279W        W35748   1.597  15.039  12.110 -0.1218 -0.2167 -0.3189
20280W        W35749  16.016  14.614   3.845  0.0761 -0.1668 -0.0457
20281W        W35750   2.339   3.491  13.134  0.2533 -0.1603  0.2711
20282W        W35751   3.935  16.063  15.516 -0.0683 -0.1518 -0.0352
20283W        W35752  10.689   5.005  11.514 -0.0545 -0.0610 -0.0450
20284W        W35753   3.125   6.692  15.427 -0.2038  0.0575 -0.2083
20285W        W35754   4.108  11.597  13.422 -0.1915  0.1964  0.2487
20286W        W35755   2.139   0.673   0.814  0.0526  0.0125 -0.1785
20287W        W35756  11.205  17.413   1.801  0.0986 -0.1389  0.1539
20288W        W35757   0.898   9.222  14.424 -0.2015 -0.1032 -0.0242
20289W        W35758  13.905   3.642   2.060 -0.2017  0.0742  0.0711
20290W        W35759  14.553  18.603  11.566  0.0234 -0.0036 -0.0614
20291W        W35760  17.621   2.064  10.331  0.1105 -0.0163 -0.0472
20292W        W35761  16.122  13.873   5.667 -0.3416  0.0400  0.0024
20293W        W35762  16.947  17.399  14.953  0.2137 -0.0723 -0.0433
20294W        W35763   7.780   7.236   3.198  0.0904  0.2834 -0.2150
20295W        W35764   8.293   4.455  14.971 -0.2369 -0.0203  0.3944
20296W        W35765   5.021  15.927  13.695 -0.2556  0.0083  0.0279
20297W        W35766  14.862   6.104   3.557  0.0674 -0.3434 -0.1477
20298W        W35767  11.102  16.090   4.209 -0.0630 -0.0865 -0.0673
20299W        W35768  14.611   6.686   1.445  0.0320  0.1163 -0.2471
20300W        W35769   4.415   7.005   5.138 -0.0365 -0.0523 -0.0297
20301W        W35770   6.384  12.009   1.209 -0.1887  0.0799 -0.0657
20302W        W35771  16.272   6.443   0.779 -0.1925  0.0302 -0.0538
20303W        W35772  13.261   2.344   2.376  0.1521 -0.0690 -0.2901
20304W        W35773   9.114   3.832  13.555 -0.2949  0.1397 -0.1792
20305W        W35774  10.038  15.941   4.308  0.3447 -0.0503 -0.0234
20306W        W35775  15.854   7.464  11.126  0.3232 -0.0439 -0.0063
20307W        W35776   9.806   6.035  14.489  0.0091 -0.0189  0.0304
20308W        W35777  12.525   7.983  12.814  0.1568 -0.2044  0.0047
20309W        W35778   1.093   2.596   1.401 -0.1315 -0.0329  0.0004
20310W        W35779  11.880   5.595   1.669  0.0562  0.0857 -0.0180
20311W        W35780  15.744  15.708   0.693  0.0994 -0.1175  0.0750
20312W        W35781   9.313   3.291   0.003 -0.1621  0.0406 -0.0146
20313W        W35782  11.007   9.850   0.499  0.2561  0.1674 -0.0167
20314W        W35783  13.842   2.610   4.552  0.0397 -0.2644 -0.0626
20315W        W35784  10.575  18.549   0.323  0.1251 -0.1554 -0.0264
20316W        W35785   8.825  12.951   4.364 -0.0541 -0.0695 -0.0660
20317W        W35786  13.723  16.347  10.788  0.0225  0.1319 -0.2377
20318W        W35787   0.268  10.039   3.186 -0.2528 -0.1831 -0.1466
20319W        W35788  16.443  18.215   9.957  0.2005  0.2418 -0.2840
20320W        W35789   6.072   9.475   0.191  0.0126 -0.0402  0.1185
20321W        W35790   4.740  12.258   3.865  0.0700 -0.3538 -0.0034
20322W        W35791  16.014  14.338   1.761  0.3231 -0.2188  0.4324
20323W        W35792   5.575  13.409  12.072  0.0937  0.0724 -0.1904
20324W        W35793   3.839  18.542   1.874  0.2602  0.1044 -0.0943
20325W        W35794   2.046   7.267   5.210  0.2182  0.1304 -0.0070
20326W        W35795  18.391   4.667  10.316  0.0526  0.1738  0.3612
20327W        W35796  12.017  11.485  11.851  0.0234  0.0307 -0.0386
20328W        W35797   0.638   4.215   2.647 -0.1083  0.1885  0.0928
20329W        W35798   0.995  18.590   1.916 -0.3496  0.1364 -0.1318
20330W        W35799   8.233   2.492  12.845  0.0285  0.0743 -0.2351
20331W        W35800  12.373   4.327   0.012  0.2276 -0.3638  0.5534
20332W        W35801  11.138  15.847   1.906  0.0924 -0.1757 -0.3143
20333W        W35802  11.629   0.586   0.095 -0.1950 -0.2986 -0.0004
20334W        W35803  15.794  17.084   1.274  0.1996 -0.0482 -0.1575
20335W        W35804   6.822   9.321   0.088 -0.1005  0.0590  0.0565
20336W        W35805   1.243   8.406   5.006 -0.2108  0.0885 -0.1729
20337W        W35806  14.830   0.199  11.998 -0.1396  0.1742  0.0242
20338W        W35807   5.231   6.290  14.784  0.0464  0.0948 -0.2066
20339W        W35808   1.443   2.485   3.817 -0.0939  0.2173 -0.2583
20340W        W35809   7.551   0.923  15.753 -0.1691  0.0710  0.0685
20341W        W35810   4.253  14.677   4.022  0.0596  0.0285 -0.0421
20342W        W35811   2.096  12.191  13.619 -0.0506  0.1218  0.0025
20343W        W35812  12.119   0.596   1.198 -0.2895  0.1107  0.1413
20344W        W35813  13.504   6.437   1.933  0.0582 -0.2551 -0.3278
20345W        W35814  11.176  12.446  13.910  0.0800 -0.1976 -0.3686
20346W        W35815   2.562  14.602  14.549 -0.0595  0.3628 -0.1542
20347W        W35816  10.800  12.233  14.614  0.1400  0.1598  0.1035
20348W        W35817  16.066   0.291  11.614 -0.2781  0.2363 -0.1180
20349W        W35818  17.706   8.830   3.100 -0.0705  0.0393  0.1272
20350W        W35819   1.216   1.365  15.389 -0.1815 -0.0838  0.1726
20351W        W35820   4.827  13.808  13.391  0.0338  0.0680  0.2601
20352W        W35821   0.676  16.176  15.368  0.2690 -0.1781 -0.0922
20353W        W35822  15.638   7.616   9.911 -0.0547 -0.0824 -0.3299
20354W        W35823  10.857   2.525   4.896 -0.0401 -0.0527 -0.0322
20355W        W35824   9.634  18.377   9.671  0.3536 -0.0359  0.1997
20356W        W35825   2.342   8.165   3.684 -0.1116 -0.2665  0.1010
20357W        W35826  10.801  17.487   4.890 -0.0247 -0.0482  0.0310
20358W        W35827  15.363   9.567   3.133  0.0147  0.2229 -0.0353
20359W        W35828  18.097  12.783  11.092  0.0390 -0.2477 -0.2185
20360W        W35829  13.715   7.070   4.543 -0.0809 -0.0628  0.0247
20361W        W35830  10.849  17.009   4.590 -0.2463  0.2288 -0.2330
20362W        W35831   0.609  11.790   3.291  0.1430  0.0657 -0.1462
20363W        W35832  10.571  17.050   1.833 -0.1883  0.2384  0.0600
20364W        W35833   1.635  17.859  13.131 -0.0399  0.0737  0.2821
20365W        W35834  17.420  14.242  10.041  0.2379 -0.1746  0.0886
20366W        W35835  13.638   5.500   0.007  0.1718  0.2205 -0.0865
20367W        W35836  12.372   6.615  13.760  0.2894 -0.0307 -0.0808
20368W        W35837  16.012  10.300  14.259  0.0800  0.2978 -0.0326
20369W        W35838   0.069   1.349  11.486  0.1934  0.2055  0.1322
20370W        W35839   8.077   3.281  12.909 -0.0464 -0.2391 -0.3236
20371W        W35840  18.462   4.611   4.106  0.0746 -0.0486  0.0592
20372W        W35841  18.566   4.429  12.287 -0.0153  0.0469  0.0344
20373W        W35842   3.611  10.673   2.155 -0.0230  0.1315  0.1975
20374W        W35843   8.110  17.759  12.387 -0.0592 -0.0817 -0.2321
20375W        W35844   8.190   7.155  11.433  0.1889 -0.2105  0.0113
20376W        W35845   1.535  17.820   2.067  0.1250  0.0063  0.2036
20377W        W35846  13.215  12.907  14.405 -0.0825 -0.1615 -0.0055
20378W        W35847   4.925   5.987   4.713  0.0662  0.0992 -0.2907
20379W        W35848   8.232   4.657   5.395 -0.2347 -0.1118 -0.1799
20380W        W35849  18.290  10.949   3.797  0.1268 -0.0709  0.1850
20381W        W35850  14.815  17.744   2.999  0.2129  0.1753 -0.0767
20382W        W35851  16.138  17.029  10.316  0.1898  0.0757  0.1195
20383W        W35852   8.052  10.738   4.192 -0.2409 -0.1757 -0.2372
20384W        W35853   3.335   0.226  14.322 -0.1092 -0.1442  0.0230
20385W        W35854  15.111  13.479   1.448 -0.0441 -0.0405  0.1300
20386W        W35855  11.712  10.109  15.573  0.0858 -0.0518 -0.0481
20387W        W35856  15.955  12.649  13.179  0.0568 -0.0764  0.0328
20388W        W35857  18.029  16.991   5.972 -0.1755 -0.4135  0.1667
20389W        W35858   9.004   0.759  14.946 -0.1268 -0.0262  0.1338
20390W        W35859   8.368   8.333  11.388 -0.0031  0.0802  0.0374
20391W        W35860  10.180  15.810  12.906 -0.0310  0.0324  0.0867
20392W        W35861   6.721  16.214   3.893 -0.1556  0.0026  0.1478
20393W        W35862  15.170  14.139   4.068 -0.1604 -0.2863  0.0756
20394W        W35863   0.101   0.690   5.345 -0.0407 -0.0058  0.0094
20395W        W35864  14.304   2.590  15.455 -0.1656  0.0665 -0.1127
20396W        W35865   8.474   2.826  13.441 -0.2727 -0.1117  0.0312
20397W        W35866  11.800  16.090   0.522 -0.1551 -0.2177 -0.2200
20398W        W35867  12.194  14.614  11.108 -0.0745 -0.0169 -0.1781
20399W        W35868   3.880  15.060   2.225 -0.1788  0.1863 -0.2078
20400W        W35869   0.949   3.152   0.022 -0.1043 -0.2124  0.0908
20401W        W35870   3.599  15.271  14.251 -0.0687 -0.0043 -0.1639
20402W        W35871   3.447  17.224  10.277  0.2558 -0.1659  0.2842
20403W        W35872  10.966   9.798  15.122  0.2077  0.1449  0.0871
20404W        W35873  15.838  13.487   1.005  0.1998 -0.1548  0.3129
20405W        W35874  12.696   9.790  13.749 -0.1927 -0.0314  0.2917
20406W        W35875  14.046  13.293  11.632  0.1996  0.0959  0.1036
20407W        W35876   1.195  14.881   4.480  0.0539  0.0497  0.1624
20408W        W35877   8.978  13.227  13.380 -0.3765  0.1095  0.3636
20409W        W35878  10.196   9.512   5.800 -0.2698 -0.1105  0.1422
20410W        W35879   1.003   2.629  12.967  0.0233  0.0517  0.0020
20411W        W35880   8.233  11.352   0.079  0.1816  0.1752  0.1608
20412W        W35881   4.174  13.886   4.711  0.0837  0.4642 -0.1345
20413W        W35882   6.188   3.155  13.295  0.1120  0.0467 -0.0903
20414W        W35883  17.056  11.426   4.764 -0.1084 -0.1525 -0.2165
20415W        W35884   9.940  10.946  13.924 -0.2769 -0.1263 -0.0616
20416W        W35885  16.052   6.200   2.215 -0.1940 -0.2372 -0.1165
20417W        W35886  13.976   2.502  11.259 -0.0438 -0.1095 -0.0455
20418W        W35887   1.916  10.349   1.138 -0.1227  0.0734  0.0717
20419W        W35888   8.771  10.024   3.650 -0.4027 -0.0082 -0.2254
20420W        W35889  18.193  13.019   3.939 -0.1032  0.2023 -0.0327
20421W        W35890  13.008  12.538  11.322  0.0429  0.2000 -0.0959
20422W        W35891   9.557  18.002   3.347 -0.2746 -0.0146  0.1470
20423W        W35892   5.314  11.180   2.697  0.1041  0.2334 -0.0549
20424W        W35893  14.678  13.758   0.726 -0.0340 -0.1482  0.1242
20425W        W35894   0.229   9.738  14.845 -0.1579 -0.1572 -0.1768
20426W        W35895   2.240  10.188   1.527 -0.1244  0.0368  0.0436
20427W        W35896  15.024  17.542  12.190 -0.0886 -0.2681 -0.1004
20428W        W35897  12.120  15.643   2.231  0.2159 -0.1519  0.0435
20429W        W35898  11.932   7.814   3.344 -0.4199  0.0518 -0.0594
20430W        W35899  11.392   8.644  15.694 -0.1557 -0.1499 -0.0403
20431W        W35900  14.402  16.675  10.742 -0.2310  0.0984  0.1597
20432W        W35901  10.178  11.213  13.538 -0.0784 -0.0480 -0.0705
20433W        W35902   1.324  15.406  10.972 -0.2724 -0.2044  0.1066
20434W        W35903  11.469   4.749  11.111  0.1594  0.1368  0.0558
20435W        W35904   2.671  13.010   3.905  0.0141 -0.0824  0.2141
20436W        W35905  18.291   8.745  14.104 -0.4474 -0.3069  0.0181
20437W        W35906   2.977   2.514  14.698  0.3370 -0.1308 -0.0297
20438W        W35907   9.460   2.538   1.110  0.3454  0.0213 -0.0237
20439W        W35908  14.439   3.200   3.641  0.1115 -0.1134  0.1976
20440W        W35909   8.907  12.995   1.798 -0.0465  0.1839 -0.0325
20441W        W35910   4.121  16.285  13.969  0.3094 -0.1095  0.1343
20442W        W35911   0.225   7.391  13.114 -0.2065 -0.0264 -0.1599
20443W        W35912  17.499   6.454   1.579 -0.0955  0.0292 -0.3182
20444W        W35913   9.853   3.157  13.531 -0.3599  0.0881 -0.2375
20445W        W35914  12.136  14.668  13.123  0.1847  0.0854 -0.4530
20446W        W35915  10.237  17.567  14.771 -0.1271  0.1599  0.2896
20447W        W35916   0.636   4.859  11.254 -0.0996 -0.1820 -0.2506
20448W        W35917  10.829   2.479   0.198 -0.4520 -0.0012  0.0092
20449W        W35918   6.012   2.060   3.449  0.1046  0.3903 -0.1020
20450W        W35919   9.928   2.542   2.138  0.0767  0.2070 -0.0428
20451W        W35920   0.287  11.352  11.419  0.1034  0.0477 -0.0832
20452W        W35921  10.774  10.989  12.097 -0.5414 -0.2636  0.0255
20453W        W35922   3.798  13.697  15.680  0.2286  0.2080  0.2012
20454W        W35923  15.441   0.006   2.771  0.1083  0.0441 -0.3571
20455W        W35924  10.114  10.626   1.032  0.3007  0.0944 -0.0333
20456W        W35925   5.606   4.611  11.227 -0.0809  0.1823 -0.0897
20457W        W35926   0.137  17.047  14.330  0.0012  0.0141 -0.3622
20458W        W35927   6.629  12.799   3.298  0.2345 -0.2389  0.1210
20459W        W35928   6.715  13.936   1.009  0.1090  0.4358  0.0994
20460W        W35929  12.236   0.002  12.188  0.0968  0.1147 -0.0265
20461W        W35930   3.794  12.895   1.465  0.2039 -0.0653  0.1729
20462W        W35931  11.085  17.833  10.691 -0.0094  0.0773  0.2160
20463W        W35932  11.718  14.927   4.006  0.2124  0.2402  0.1347
20464W        W35933   4.692  10.291  15.176 -0.1322 -0.0704  0.1811
20465W        W35934   2.700  15.032  15.390  0.1144 -0.1478  0.2643
20466W        W35935   5.703   7.863  15.234 -0.2243 -0.2629  0.0633
20467W        W35936  11.025   1.706   3.878 -0.2133  0.1502  0.0206
20468W        W35937   0.472   1.565  15.644  0.4261 -0.2964  0.0661
20469W        W35938   0.874   1.595   3.150 -0.2961  0.1595 -0.0064
20470W        W35939   9.275  18.013   4.759 -0.0435  0.0258  0.0509
20471W        W35940   5.734   5.072   1.463 -0.2796 -0.0543 -0.0646
20472W        W35941   9.266  16.490  11.395 -0.0763 -0.2362 -0.1524
20473W        W35942   9.011   8.152  11.952  0.3829  0.1251  0.3483
20474W        W35943   7.598  12.934   4.352  0.0767 -0.5134  0.0397
20475W        W35944  17.066   2.161   9.175  0.3494 -0.1864 -0.2338
20476W        W35945   4.711   2.152   0.867 -0.0270 -0.1284 -0.0715
20477W        W35946  12.164   6.854   4.819 -0.1075 -0.5802 -0.0868
20478W        W35947  13.572  14.635  12.504 -0.0036  0.1666  0.0639
20479W        W35948   2.229   7.055   3.622  0.0099 -0.1336  0.0713
20480W        W35949   4.200  12.060  14.795  0.2350  0.3818  0.1597
20481W        W35950  17.363   2.864   3.573 -0.3352  0.2987  0.5156
20482W        W35951   7.969  13.765   0.991  0.2644  0.2990 -0.1657
20483W        W35952  16.207  11.855   4.558  0.1443  0.0533 -0.0747
20484W        W35953  11.121  15.065   0.145  0.3251 -0.0342 -0.0819
20485W        W35954   3.051  13.094   5.112  0.0445 -0.1748 -0.2275
20486W        W35955   0.943   1.870   0.826  0.0070 -0.0385  0.1981
20487W        W35956   7.284  15.919   1.533 -0.2159 -0.0583 -0.2899
20488W        W35957   0.347  12.966   3.802 -0.1720 -0.2862  0.0358
20489W        W35958   3.530   3.981   0.284 -0.0765 -0.1698 -0.4196
20490W        W35959   5.548  17.422   0.708  0.0178 -0.2142  0.2002
20491W        W35960   3.346  17.057   4.877 -0.2397 -0.1553  0.0046
20492W        W35961   6.726  14.756  13.832  0.1249  0.3879 -0.1307
20493W        W35962   8.009  11.281   3.805 -0.0892 -0.0397 -0.1091
20494W        W35963  16.635   2.871   3.872  0.0076 -0.0082  0.1738
20495W        W35964   2.736   5.755   1.699  0.1938  0.0685 -0.0254
20496W        W35965  17.106   7.555   3.407 -0.0055  0.1445  0.3478
20497W        W35966  16.713   2.091   3.634 -0.0488 -0.0574 -0.1227
20498W        W35967  10.766   1.565   0.822  0.1349  0.1331  0.1327
20499W        W35968   7.972   4.874  12.709  0.1921 -0.3412 -0.1951
20500W        W35969   4.087  13.189   2.359 -0.0977 -0.0313  0.1485
20501W        W35970   3.460  16.366  11.722  0.0394 -0.0332 -0.3586
20502W        W35971  15.521   8.506  15.102 -0.0306 -0.1509 -0.2679
20503W        W35972  14.664   9.014  13.242  0.3088 -0.2470  0.3874
20504W        W35973   3.838  10.528  14.946 -0.0541 -0.1429  0.4815
20505W        W35974  12.966   2.762  11.772 -0.1383 -0.0516 -0.3277
20506W        W35975  13.227  16.109  14.139  0.2363 -0.1866 -0.3366
20507W        W35976  10.254   1.222   0.985  0.1294 -0.3296 -0.0561
20508W        W35977  12.570   6.894  15.776  0.0516  0.2170  0.2303
20509W        W35978   7.958   4.353  12.668  0.1900 -0.1404  0.3651
20510W        W35979  11.909   5.950   4.947 -0.1357  0.1123 -0.1263
20511W        W35980   3.956   4.846   1.912 -0.0983  0.0980  0.0777
20512W        W35981   6.516   9.155   2.284 -0.5502  0.1990 -0.2059
20513W        W35982  10.949  11.324   3.572 -0.0466 -0.2155  0.4301
20514W        W35983  15.066   6.038  11.158 -0.1364  0.3031  0.0670
20515W        W35984   0.294  14.637   0.342 -0.0749  0.2363 -0.0887
20516W        W35985   8.923  11.273   2.065 -0.3841  0.1363  0.1291
20517W        W35986   0.294   0.952  10.930  0.1011  0.0346 -0.0397
20518W        W35987  15.933   7.221  15.533 -0.2081 -0.1504 -0.0181
20519W        W35988   0.892  12.086   1.700  0.3031 -0.2082  0.1102
20520W        W35989  16.342   2.670   1.424 -0.1324 -0.0333  0.1275
20521W        W35990  14.692   8.404   4.523  0.2002  0.0188 -0.0105
20522W        W35991   3.170   3.151  12.582 -0.1289  0.2721  0.2687
20523W        W35992  13.413  18.013   1.991 -0.0614  0.5240  0.0171
20524W        W35993  15.262  11.323  15.770  0.2423  0.0073  0.1368
20525W        W35994  17.204   9.965   9.895  0.2276  0.3367  0.0254
20526W        W35995  16.318   7.837   1.359 -0.0731  0.0056  0.0441
20527W        W35996   8.971  17.848  14.457  0.0284  0.3343 -0.2883
20528W        W35997  13.278  17.153   3.232 -0.3046 -0.4291  0.1726
20529W        W35998  15.393   8.432   1.301  0.1383 -0.0768  0.2552
20530W        W35999  11.045   6.302  11.518  0.2954 -0.1755  0.0448
20531W        W36000   2.221   2.337   4.968  0.0695 -0.1037 -0.3114
20532W        W36001   6.100   8.617   5.276 -0.0475 -0.0975  0.0582
20533W        W36002  15.806   6.720  12.468  0.2739  0.0346  0.1070
20534W        W36003  13.321   4.931   1.013  0.3380 -0.1329 -0.1715
20535W        W36004  14.303   8.879   1.811 -0.0912 -0.1914  0.2906
20536W        W36005   3.473  15.747  14.377 -0.2881 -0.0180 -0.0161
20537W        W36006   1.335   5.777  11.070  0.1369 -0.1387 -0.0437
20538W        W36007   0.881   9.920   4.812  0.0334  0.2129 -0.0393
20539W        W36008   9.837   5.807  14.015 -0.2043  0.1755 -0.3233
20540W        W36009   3.012   4.353  14.684 -0.1581  0.0913 -0.0405
20541W        W36010   3.640  10.997  12.294 -0.3913  0.3375 -0.2447
20542W        W36011  15.150   1.191  15.274 -0.2542  0.1594  0.0244
20543W        W36012  11.848  16.642  14.229 -0.0607 -0.1541 -0.0200
20544W        W36013  11.487  13.083   2.414 -0.1801 -0.1001 -0.0665
20545W        W36014  11.372  18.387  15.777 -0.4404  0.0352 -0.0959
20546W        W36015  14.788  11.002   2.638  0.0861 -0.0121 -0.0317
20547W        W36016   7.103   5.672  11.466 -0.3415 -0.1674  0.2109
20548W        W36017  17.063  12.610  13.021 -0.3238 -0.2662 -0.0573
20549W        W36018  17.201  12.817   1.206 -0.4491  0.1431  0.1215
20550W        W36019  11.471  15.406  13.706  0.0124  0.0549 -0.1293
20551W        W36020  17.179  15.925  13.093 -0.2470 -0.0534 -0.2282
20552W        W36021   7.108  15.313   2.018  0.1251  0.2443 -0.3539
20553W        W36022   2.512  13.333   4.239  0.0693  0.1227 -0.0070
20554W        W36023   9.854   2.780  13.970  0.3210  0.1248 -0.0615
20555W        W36024   7.415  17.141  15.543  0.2184 -0.1921 -0.1891
20556W        W36025   9.019   3.561  12.159 -0.0651 -0.1504 -0.1533
20557W        W36026   6.440   2.412  14.896  0.0263 -0.2869 -0.1298
20558W        W36027  14.024  17.355   2.085  0.1259 -0.0761  0.0710
20559W        W36028   3.958  15.328  15.434 -0.2687  0.0394  0.0530
20560W        W36029  11.550   2.742   4.883  0.1885 -0.3382 -0.1020
20561W        W36030  16.254  17.602   0.450 -0.2430  0.0702  0.0123
20562W        W36031  14.983   3.890   3.401 -0.0021 -0.1254  0.0607
20563W        W36032  15.849   7.236  12.447 -0.1608 -0.0931 -0.0591
20564W        W36033  10.601  18.343  15.168 -0.0101 -0.2400  0.0409
20565W        W36034   4.117   9.887   1.402 -0.1680  0.2946 -0.0514
20566W        W36035  11.954  11.094  12.724 -0.0872  0.1120 -0.4415
20567W        W36036  17.155  18.428  12.666 -0.0528  0.1510  0.2241
20568W        W36037  12.809   6.059  12.716 -0.4018  0.2567  0.1209
20569W        W36038  18.528   7.193  15.357 -0.1269  0.1100 -0.1490
20570W        W36039   4.724   4.857  14.232 -0.0363  0.1126 -0.1027
20571W        W36040  11.491   6.829   1.417 -0.1773  0.1101  0.2970
20572W        W36041  18.151   7.348   0.824 -0.1323 -0.1601 -0.2859
20573W        W36042  14.855   2.482  15.358  0.1380  0.1075 -0.3187
20574W        W36043  17.139   8.881   2.492 -0.0155 -0.0606 -0.1096
20575W        W36044   0.801   9.837  13.048 -0.0486 -0.0930 -0.2970
20576W        W36045   9.310   8.678  13.821 -0.1956  0.0863  0.0182
20577W        W36046   2.941  15.000   1.235 -0.2035 -0.3753 -0.1550
20578W        W36047  16.259   0.690  11.952 -0.2796  0.1346  0.0723
20579W        W36048   0.151  16.976   3.723 -0.2473 -0.0124 -0.1856
20580W        W36049  17.243  15.831  13.626  0.0256  0.3406 -0.0824
20581W        W36050   9.578   0.834   0.843  0.2223 -0.0122 -0.0246
20582W        W36051   0.975  12.761  10.480 -0.0560 -0.0270 -0.1169
20583W        W36052  11.488   3.155   0.070 -0.0320  0.1150  0.5512
20584W        W36053   5.118  16.861  14.828 -0.0817  0.1983 -0.0983
20585W        W36054   7.217  14.538   2.516 -0.0617 -0.1663  0.3250
20586W        W36055   9.976   4.763  11.458 -0.1086 -0.3965  0.2560
20587W        W36056   5.215   3.952  15.275 -0.0494  0.0867  0.1594
20588W        W36057   0.111   8.236  12.942  0.4390 -0.0843  0.0179
20589W        W36058   9.457   9.903  11.004  0.2177  0.2921  0.0747
20590W        W36059   0.454  18.552   3.203  0.1278 -0.2933 -0.0641
20591W        W36060   1.839  16.277  10.461 -0.4734  0.1242  0.1498
20592W        W36061   7.753  11.569  10.913  0.0799 -0.0965  0.0846
20593W        W36062  15.674  13.854   5.823  0.2156 -0.1002 -0.0101
20594W        W36063  14.956  10.262   5.049 -0.0298  0.0935 -0.1879
20595W        W36064   7.182   9.641  15.184  0.0273 -0.1618  0.0162
20596W        W36065   7.001   9.655   0.703  0.1646 -0.0855  0.1822
20597W        W36066  12.310  17.603   3.771  0.0735  0.0037  0.0803
20598W        W36067   1.558   0.798   2.889 -0.1158  0.0724  0.1596
20599W        W36068  15.291  16.167   1.199 -0.2421  0.2752 -0.2888
20600W        W36069   5.395  17.206   2.743 -0.0676  0.0242  0.0585
20601W        W36070   3.564  12.051  11.706 -0.1916  0.1903 -0.0230
20602W        W36071  12.228  10.478  14.002 -0.0677 -0.2054  0.1378
20603W        W36072  11.479   7.683  15.428  0.0124  0.0084  0.0440
20604W        W36073   4.286   8.596   1.621 -0.0596 -0.0947 -0.1920
20605W        W36074   2.390  10.930  13.319 -0.2735 -0.1960  0.0045
20606W        W36075   3.751  14.205   3.215 -0.0767  0.0804  0.1363
20607W        W36076  14.508   6.661   2.332 -0.0248 -0.2063 -0.0191
20608W        W36077  17.319  10.971  12.757 -0.1838  0.4666 -0.1343
20609W        W36078  15.665  14.804   1.655  0.1240 -0.1231  0.3382
20610W        W36079   2.024  13.813   3.952  0.1364  0.0515  0.0586
20611W        W36080  15.312  14.600   4.450  0.2279  0.0500  0.1212
20612W        W36081  11.272   1.603  15.729 -0.2099 -0.0939 -0.1548
20613W        W36082   4.315   5.821   5.566  0.0313  0.2013 -0.0926
20614W        W36083   3.379   2.335  13.710  0.1934 -0.7171 -0.1456
20615W        W36084  16.166  15.879  13.211  0.1381 -0.0376  0.1432
20616W        W36085   2.502  17.362  15.745 -0.1273 -0.1769  0.1922
20617W        W36086  13.219   7.808  15.587  0.1571 -0.0797  0.0069
20618W        W36087  14.256  10.259   4.463  0.0035 -0.2194 -0.3384
20619W        W36088  14.460  10.069   3.480  0.1253  0.2601 -0.2908
20620W        W36089  15.187  18.526   1.906  0.0817  0.1655 -0.0242
20621W        W36090   4.056  12.769   3.704  0.0917 -0.3249 -0.2132
20622W        W36091  12.482   0.629  13.034  0.0144  0.1474  0.0017
20623W        W36092  18.130   8.645  15.041  0.0967 -0.0587  0.2934
20624W        W36093  12.373  15.557   4.968  0.0694  0.0598 -0.1292
20625W        W36094   3.389   4.378  14.116 -0.0378 -0.0896 -0.0062
20626W        W36095   7.195  15.796  12.956 -0.2732  0.2681  0.0920
20627W        W36096  15.770   6.705   4.131 -0.3250  0.0172  0.0829
20628W        W36097  13.280   5.249   4.757  0.2497  0.1493 -0.0602
20629W        W36098  13.758   4.063  13.748 -0.1819 -0.0124  0.3107
20630W        W36099   2.132   5.739  12.463  0.0063  0.1045  0.0622
20631W        W36100  12.020   5.228   1.983 -0.0876  0.1241  0.2688
20632W        W36101   7.781   2.551  12.588  0.1844  0.1648  0.0387
20633W        W36102  11.606   6.222  15.318 -0.2265 -0.0618 -0.0853
20634W        W36103   9.720   1.938   1.631 -0.2079 -0.1491 -0.2073
20635W        W36104   4.523  12.239   2.341 -0.1143 -0.1007 -0.3583
20636W        W36105   6.357   4.195  11.658 -0.3615 -0.1600 -0.4268
20637W        W36106   8.393  18.195   0.896 -0.0790  0.3019  0.0930
20638W        W36107  12.674   5.320   4.261 -0.2368 -0.2807  0.1209
20639W        W36108   5.086   6.897   1.320 -0.0525 -0.3349  0.2240
20640W        W36109  14.834  18.570   5.036 -0.0290  0.0954  0.0563
20641W        W36110   7.952   2.622  13.527  0.0507 -0.2648  0.3221
20642W        W36111   5.627   9.778  15.549  0.1047  0.2343 -0.0025
20643W        W36112  14.845  16.957  12.138 -0.2228 -0.4171  0.0448
20644W        W36113  12.354   6.566  14.236 -0.0359  0.0264  0.1706
20645W        W36114   4.221  16.062   1.003 -0.1839 -0.2300  0.0260
20646W        W36115  17.036  12.767  11.243  0.0855  0.1240  0.1400
20647W        W36116  13.857   7.235  11.208  0.3444 -0.1839  0.3030
20648W        W36117   9.240   9.892  12.858  0.0537  0.2281  0.1785
20649W        W36118   8.562   5.572  12.888 -0.0417 -0.3442  0.1320
20650W        W36119  13.438  14.868   3.536 -0.0317  0.1962 -0.4366
20651W        W36120   0.782   7.735   3.126  0.2027 -0.1839  0.3613
20652W        W36121   5.800   0.248   1.747 -0.3419 -0.0509 -0.2751
20653W        W36122   7.415   1.363  14.923  0.0236  0.2751  0.1472
20654W        W36123  12.068  18.524   0.571 -0.1260 -0.2129 -0.0622
20655W        W36124   0.971   6.103   1.239  0.0497  0.1656 -0.1352
20656W        W36125   3.524  11.059  14.109  0.3861  0.1038 -0.0129
20657W        W36126   9.627   3.480   5.016  0.1733  0.0657 -0.0349
20658W        W36127  18.575   7.838   4.628 -0.0586 -0.0220 -0.1780
20659W        W36128   5.291   7.591   0.481  0.0100  0.1849 -0.1261
20660W        W36129   6.132  14.908   1.535  0.3546  0.0373 -0.1731
20661W        W36130   4.922   1.937  14.908  0.0645 -0.4398  0.0271
20662W        W36131   7.185   1.365  11.911 -0.0822 -0.0864 -0.2794
20663W        W36132   4.493   7.653   2.924 -0.1058 -0.1505 -0.4160
20664W        W36133   0.206  17.669  15.091  0.1030  0.2492 -0.0577
20665W        W36134  13.171  10.693   4.228 -0.3166  0.0341 -0.1674
20666W        W36135   4.156   3.969   1.878 -0.1487  0.1245 -0.2498
20667W        W36136   1.753   6.829  15.486  0.0700 -0.0169 -0.3693
20668W        W36137  10.604   1.081   0.570  0.2051  0.0042 -0.1488
20669W        W36138   7.874   6.224   4.968 -0.0170 -0.3613  0.0087
20670W        W36139   9.593   8.232   5.968 -0.0169  0.0086  0.1613
20671W        W36140   4.926   2.580  14.677 -0.0453 -0.0696 -0.2352
20672W        W36141  14.021   2.646  15.042  0.0271  0.3029 -0.0400
20673W        W36142  12.166  15.212   3.088  0.0693 -0.2129 -0.3475
20674W        W36143   0.675  13.458   9.836  0.0299 -0.2212 -0.1186
20675W        W36144   9.715  16.747  13.059  0.1755  0.1670  0.1326
20676W        W36145  17.171   3.291  12.620 -0.3437  0.1753  0.0279
20677W        W36146  13.877   8.358  13.289  0.0230 -0.1199 -0.1856
20678W        W36147  15.798   0.479   3.012  0.0996 -0.0482  0.0657
20679W        W36148   7.587   0.989  15.249  0.0919 -0.0716 -0.2296
20680W        W36149  12.724   1.070  11.784  0.1164  0.2298  0.1321
20681W        W36150  13.284   7.261  15.687  0.1338  0.0117  0.1694
20682W        W36151   5.582  14.539   6.175  0.0368  0.0713  0.1873
20683W        W36152   2.373   5.230   0.030 -0.2109 -0.3781 -0.1679
20684W        W36153  15.979   2.839   2.482  0.2733  0.0522  0.0554
20685W        W36154  16.912   7.441  15.123 -0.0845  0.6558 -0.0923
20686W        W36155   6.352  12.743   2.067  0.1564  0.1159 -0.1619
20687W        W36156   7.101   3.023   1.392 -0.0565  0.0134 -0.0248
20688W        W36157  17.270  12.022   3.227  0.0124  0.0361  0.0083
20689W        W36158   3.161  16.723   1.116 -0.4602  0.0204  0.0805
20690W        W36159  12.313  13.052   2.474 -0.1541  0.0588  0.0937
20691W        W36160   0.382  12.222   5.415  0.0027 -0.2654 -0.0251
20692W        W36161   9.000   1.920   3.098 -0.2878  0.1160  0.1096
20693W        W36162   5.073  11.785  13.652  0.0143 -0.4129 -0.1673
20694W        W36163   8.055  13.047   1.698  0.0793 -0.3648 -0.6881
20695W        W36164   6.133  17.724   0.059 -0.0992  0.1196 -0.1159
20696W        W36165   2.078   5.259  12.038 -0.2333  0.2182 -0.1496
20697W        W36166   4.619   0.905   1.375  0.0687  0.0715 -0.2292
20698W        W36167  15.963  13.394  15.779  0.0607 -0.2560 -0.0303
20699W        W36168   6.956   6.421   3.966  0.3247 -0.3843  0.5173
20700W        W36169   8.462  14.677   1.821  0.2749  0.2834  0.0047
20701W        W36170   7.146  17.869   3.663 -0.1821  0.1509 -0.2254
20702W        W36171   7.676   6.884   0.074  0.3149  0.2018 -0.1149
20703W        W36172  15.430   1.730  11.028 -0.0089 -0.0388  0.0073
20704W        W36173  14.135   1.995  15.607  0.2066  0.3139 -0.3611
20705W        W36174  18.221   9.140   1.398  0.1038  0.0186 -0.2548
20706W        W36175   7.431   3.888  11.635 -0.1363  0.1400  0.2706
20707W        W36176  13.983  12.717  11.820  0.0835 -0.2250 -0.0094
20708W        W36177   8.800   4.190  13.697 -0.1559 -0.2388  0.3549
20709W        W36178   5.614  18.480   0.063  0.0781 -0.2792 -0.1513
20710W        W36179  12.697   4.363  11.277  0.0792  0.0685  0.3061
20711W        W36180  16.207   1.522   2.997  0.1981 -0.1652 -0.2486
20712W        W36181  17.317  13.004   0.397  0.2920  0.1034  0.1451
20713W        W36182  17.535  18.395  13.695  0.0571 -0.0136  0.0751
20714W        W36183   0.149  10.103  11.855 -0.0458 -0.1917  0.0264
20715W        W36184  14.683   4.704  14.288  0.5031 -0.2063  0.0400
20716W        W36185  15.210  15.389  10.853  0.0817  0.1862  0.2160
20717W        W36186  15.652  13.707   3.345 -0.0224 -0.0146  0.0778
20718W        W36187   6.077   7.169   1.477  0.2232 -0.1172 -0.3560
20719W        W36188  14.924  14.242  10.279 -0.0388 -0.2235 -0.1471
20720W        W36189  15.414   3.695   1.766 -0.0517  0.0439 -0.0039
20721W        W36190   7.772   1.750   1.047 -0.0018  0.0753 -0.2317
20722W        W36191  13.601   8.392   1.485 -0.3215 -0.2603 -0.1129
20723W        W36192   4.610  11.642   1.123  0.2862 -0.1020  0.1268
20724W        W36193   3.979  14.808   1.816 -0.0493  0.0442  0.1001
20725W        W36194   2.582   7.642  11.653 -0.0367  0.2558  0.1007
20726W        W36195  12.697   3.969   4.282 -0.0409 -0.2082  0.1513
20727W        W36196   9.715   3.858   2.666  0.1846 -0.1196 -0.1271
20728W        W36197  16.261   1.232   4.371  0.1954  0.1877  0.1186
20729W        W36198   0.548   5.459  11.077  0.1665  0.3009  0.1773
20730W        W36199   4.313   5.807   4.258 -0.1548 -0.3529  0.0668
20731W        W36200  15.345  15.859  11.828  0.1108  0.3589 -0.0591
20732W        W36201   2.872  17.147   0.885  0.0548 -0.3240 -0.0476
20733W        W36202   2.522  13.065   2.392 -0.3912 -0.2754 -0.2463
20734W        W36203   0.324  17.345   1.662 -0.1113  0.0389  0.0689
20735W        W36204   4.149   2.859   0.935 -0.2441 -0.0369 -0.0996
20736W        W36205   9.870   7.168  15.048 -0.2304 -0.0874 -0.2431
20737W        W36206  11.839   5.641  11.301 -0.0267 -0.0281 -0.1049
20738W        W36207  15.691   5.986  13.329  0.2310  0.1236  0.2425
20739W        W36208   9.502   1.372   3.749 -0.3311 -0.2007  0.2471
20740W        W36209  11.183  10.831   3.272 -0.5394 -0.3392  0.1575
20741W        W36210  12.634   2.276   5.259 -0.0635  0.0469 -0.1949
20742W        W36211  11.217  17.615  11.116 -0.0077 -0.4955 -0.2357
20743W        W36212  11.997  14.255   0.427 -0.4365  0.1511 -0.1900
20744W        W36213  11.336   3.060  12.786  0.0085  0.0508 -0.1121
20745W        W36214  11.441  12.974  14.086 -0.1566 -0.1232  0.2959
20746W        W36215   4.414   7.588   2.465 -0.1559  0.0923 -0.0758
20747W        W36216  14.261  15.073   3.560 -0.0462 -0.1204  0.1591
20748W        W36217   9.820  15.833  10.644  0.0925  0.2340 -0.3496
20749W        W36218   4.349  15.827   4.046 -0.0071  0.2489 -0.0903
20750W        W36219  16.018  11.374   2.930  0.0001 -0.0239  0.1637
20751W        W36220   0.027   6.740   0.310 -0.0677  0.1414 -0.1802
20752W        W36221   0.607  13.155   1.387 -0.1816 -0.1215 -0.0640
20753W        W36222   5.894   8.285   0.761 -0.1462  0.0609 -0.1712
20754W        W36223  16.524   6.835  14.387  0.1465  0.0339  0.1203
20755W        W36224  12.020  14.916   1.696  0.2028 -0.4001  0.1026
20756W        W36225   8.454  10.820  13.651 -0.2281  0.0257 -0.2650
20757W        W36226   8.220   0.834   1.749 -0.3511 -0.1472  0.0012
20758W        W36227  12.503   8.693  15.268  0.1013 -0.0210  0.1125
20759W        W36228  17.870  10.196   4.347  0.2710  0.4197 -0.0489
20760W        W36229  10.308   6.212   1.627  0.0104 -0.0792  0.0944
20761W        W36230  17.919  15.689  11.502 -0.2245 -0.0542 -0.1415
20762W        W36231  18.024   7.958  15.500 -0.5620  0.0137 -0.0925
20763W        W36232   2.582  17.483   1.239 -0.2182  0.1881  0.2488
20764W        W36233   3.180  18.374   0.183 -0.1423  0.2844 -0.1271
20765W        W36234   0.433  18.215   3.609  0.4615 -0.0896  0.2061
20766W        W36235  10.269   0.009  10.992  0.1564  0.0774 -0.1002
20767W        W36236   5.313  17.950  11.768  0.1680 -0.1202  0.1489
20768W        W36237  14.755   8.991   1.978 -0.1637 -0.1256  0.0798
20769W        W36238   7.229  11.088   3.120  0.0271 -0.0537 -0.0319
20770W        W36239  18.012   9.233   1.926 -0.1211  0.0576 -0.2244
20771W        W36240   6.156  15.264  13.083  0.3647  0.3005  0.2222
20772W        W36241   5.200  17.712  15.023  0.1623 -0.1240 -0.3939
20773W        W36242  18.228  16.262  11.171 -0.0347 -0.3057 -0.1468
20774W        W36243  16.920   9.015   4.424 -0.1128  0.0050  0.0678
20775W        W36244  17.842   5.404  13.353 -0.3582 -0.1889 -0.0126
20776W        W36245  18.346   4.721  13.661  0.0585 -0.2963  0.0653
20777W        W36246   4.730   2.282   4.020  0.2791  0.1026 -0.3210
20778W        W36247  11.134   1.970  12.830  0.2191 -0.0202 -0.0182
20779W        W36248  15.726  10.353  14.689 -0.0715 -0.0884 -0.2018
20780W        W36249  15.849  12.011  10.904 -0.1111 -0.0109  0.0726
20781W        W36250  18.195  10.136   4.871 -0.1028  0.6663  0.1535
20782W        W36251   3.837  10.971  14.661  0.2038  0.2975 -0.0419
20783W        W36252  12.463   2.164   2.608 -0.4073  0.1288  0.1551
20784W        W36253  18.558   0.058   4.837  0.1758  0.1366  0.2613
20785W        W36254   5.040  17.647  10.436  0.1813  0.3530  0.1492
20786W        W36255   3.129   4.647   2.326  0.1105 -0.0111 -0.1766
20787W        W36256  18.660   1.819  13.859 -0.0721 -0.0576 -0.0653
20788W        W36257  15.971  17.274  11.751  0.2112  0.2714  0.0139
20789W        W36258  10.512   8.297  13.142 -0.0977 -0.0372 -0.0322
20790W        W36259  11.935   8.547  12.607  0.0004  0.1321  0.0456
20791W        W36260   1.918   9.823   3.611  0.1818  0.4694  0.0887
20792W        W36261   6.092  12.312  14.731  0.2250  0.0223 -0.1356
20793W        W36262   6.497  16.958   2.111 -0.4730 -0.0539  0.0277
20794W        W36263  11.985   3.300   0.844 -0.1494 -0.3021 -0.0512
20795W        W36264  10.142  18.634   3.833 -0.2172 -0.0285  0.0432
20796W        W36265   4.070   1.563  15.004  0.2079  0.0223 -0.0406
20797W        W36266   5.041   2.986  13.194 -0.0422 -0.0270 -0.2929
20798W        W36267  18.321   6.788   1.144  0.3296  0.1152  0.0329
20799W        W36268   4.548   8.934   2.357 -0.3158 -0.2855 -0.1465
20800W        W36269   0.777  13.504  11.296 -0.3425  0.0428 -0.1510
20801W        W36270   2.312  13.754  14.025  0.0141  0.0705  0.2154
20802W        W36271  13.974  11.363   0.757 -0.1800  0.0006 -0.1924
20803W        W36272   6.467   5.960   3.325 -0.2255  0.2000  0.1828
20804W        W36273  17.664  11.630   4.033  0.3536 -0.2059  0.0474
20805W        W36274   9.747  16.989  12.307  0.2503 -0.1524 -0.3423
20806W        W36275  15.810  17.743  10.740 -0.0023  0.1173  0.2544
20807W        W36276   2.289   8.570   3.324 -0.0641  0.1607 -0.1282
20808W        W36277  13.338  13.226  12.790  0.1212  0.1085  0.0843
20809W        W36278   8.234   5.934  12.742 -0.1135  0.1435  0.0152
20810W        W36279  11.905  16.713   4.880 -0.1998  0.0341  0.2225
20811W        W36280   4.132   3.580  12.134  0.2919 -0.2601  0.3559
20812W        W36281  17.963   2.127   3.822  0.0878  0.1179 -0.3090
20813W        W36282  15.060  18.416   0.712 -0.1375 -0.4237  0.2445
20814W        W36283   6.579  16.704  11.861 -0.1731  0.0645 -0.0490
20815W        W36284   6.282  16.857  14.033 -0.3375  0.1566  0.1049
20816W        W36285   4.144   6.433   1.791  0.1517 -0.0236 -0.0175
20817W        W36286   7.410   3.901   4.704 -0.0891  0.2859  0.3583
20818W        W36287   4.552   7.043   4.623  0.1551  0.0437  0.2568
20819W        W36288  13.343   9.238   5.774  0.0782  0.0843  0.0855
20820W        W36289  18.630   4.372  14.845  0.0615 -0.2072  0.2677
20821W        W36290  10.217  16.347   1.472  0.3448 -0.2974  0.0718
20822W        W36291   1.772   2.931   4.447  0.1708  0.0815 -0.2302
20823W        W36292   2.120  15.593   5.175  0.4634 -0.5321 -0.4654
20824W        W36293   3.558  17.424   0.136  0.1689  0.1156 -0.1393
20825W        W36294   1.697   5.052   2.429 -0.2377 -0.0756 -0.0845
20826W        W36295   6.967   6.629  14.494  0.1405 -0.1909  0.0194
20827W        W36296   8.903   3.702   1.633 -0.0310 -0.1067 -0.1854
20828W        W36297   9.714  16.839  11.767  0.1062 -0.2411 -0.0436
20829W        W36298   1.634   4.182   2.406  0.1472 -0.0881  0.1846
20830W        W36299   4.125   9.983   5.544 -0.2400  0.2245 -0.0716
20831W        W36300  15.594  11.047  11.077 -0.2193 -0.1125  0.1498
20832W        W36301  12.969   9.823   1.806 -0.3021  0.1509 -0.3031
20833W        W36302   3.571   2.084   4.243  0.0406 -0.0761 -0.0365
20834W        W36303  11.172  17.087  10.891  0.2200  0.0325  0.1420
20835W        W36304   7.256   4.411  15.633 -0.3863 -0.2477 -0.2545
20836W        W36305   3.289  14.853  12.920  0.0683 -0.0721  0.2089
20837W        W36306  15.394  14.102  11.772  0.0496  0.0881 -0.3287
20838W        W36307   5.122   2.708  11.912  0.2009  0.0502 -0.4055
20839W        W36308  14.599   0.562   1.977 -0.1583  0.1439 -0.0660
20840W        W36309   7.633   0.896  12.716  0.2069 -0.0428 -0.2970
20841W        W36310   1.226  16.636   3.129  0.0108 -0.0542  0.1213
20842W        W36311   9.657  18.027  12.001  0.1471 -0.1689 -0.1548
20843W        W36312  11.378   2.529   0.086  0.2174  0.1144 -0.3253
20844W        W36313   3.694   1.697  10.139  0.1388  0.1515  0.0939
20845W        W36314  16.079   5.691  14.639 -0.0698 -0.2522 -0.0583
20846W        W36315   1.512   9.793  13.581 -0.2851  0.5512  0.0938
20847W        W36316   8.643  14.778  11.206 -0.2993  0.2581  0.0956
20848W        W36317  12.090   7.657   0.450  0.2593  0.0261 -0.0929
20849W        W36318  12.977  11.205   5.094  0.1494  0.1274 -0.0495
20850W        W36319  14.823   7.630  13.975  0.4065  0.1665 -0.0488
20851W        W36320   5.324   1.098  12.039  0.0745 -0.2517  0.0352
20852W        W36321   0.749  12.734   2.382 -0.0582  0.4523  0.0712
20853W        W36322  12.870  17.115  12.106  0.2168 -0.0768 -0.1585
20854W        W36323  10.870  18.620  15.697 -0.0463 -0.0303  0.1568
20855W        W36324  13.192  15.009  12.348 -0.1849  0.1365 -0.0422
20856W        W36325  14.144   4.320  15.330  0.1107  0.0060 -0.0559
20857W        W36326  12.923  18.458   2.621  0.0419  0.1822  0.1445
20858W        W36327   9.679   1.784  14.618 -0.0702 -0.0626  0.1032
20859W        W36328   7.143   3.154   0.384 -0.1403  0.1597  0.1110
20860W        W36329  11.103   5.343  11.682 -0.6068  0.0878  0.1823
20861W        W36330  13.434   9.783  12.716 -0.1388 -0.3656 -0.1205
20862W        W36331   2.656  14.995   4.096  0.0020 -0.2282 -0.1407
20863W        W36332  14.341   8.975  11.755  0.1687  0.0382  0.2320
20864W        W36333  12.515  16.782   1.561 -0.2116 -0.0600 -0.0988
20865W        W36334  10.430  16.164   0.896  0.0239 -0.0876 -0.1019
20866W        W36335   9.555   4.936  11.819 -0.1037 -0.1696  0.3533
20867W        W36336   8.513   9.665   4.645 -0.0269  0.0001 -0.2371
20868W        W36337  17.593  15.197   0.484 -0.0640  0.1742 -0.1335
20869W        W36338  11.931  13.344   0.784 -0.1543  0.1375 -0.2364
20870W        W36339  12.018   2.723   0.811 -0.0781 -0.1191 -0.1397
20871W        W36340  13.812  11.841  13.033  0.0134  0.0242  0.0212
20872W        W36341   6.635  10.991   2.155  0.0070  0.0635 -0.1684
20873W        W36342   9.063   6.451   3.080 -0.0098  0.1409  0.1754
20874W        W36343   3.217   5.334   3.613 -0.3284 -0.0985  0.3057
20875W        W36344  17.955   4.644   3.528  0.0399 -0.3721 -0.0971
20876W        W36345  11.125   4.298  11.608  0.0166 -0.0383  0.1952
20877W        W36346   5.031  17.935  15.449  0.1038  0.1463 -0.2372
20878W        W36347  13.000   4.929   4.399  0.3411 -0.1150  0.0389
20879W        W36348   2.065  10.794   3.664  0.1529 -0.4073 -0.1632
20880W        W36349  10.380  18.362   3.292 -0.0195  0.2286  0.0667
20881W        W36350  14.784  13.835   1.193 -0.1077 -0.1118  0.2488
20882W        W36351   6.963   0.081   2.833  0.3756 -0.2623 -0.1776
20883W        W36352   6.978  13.197  11.252 -0.0776 -0.0315 -0.0905
20884W        W36353  16.129  10.736  14.571 -0.2849 -0.0164 -0.0834
20885W        W36354  14.246  12.956   2.892  0.3423  0.1024 -0.1198
20886W        W36355  11.603   9.108   5.919 -0.1199 -0.0701 -0.1687
20887W        W36356   2.686   7.083   1.484 -0.1323  0.1559 -0.1575
20888W        W36357   5.050  13.662  11.376  0.0416  0.3465 -0.0950
20889W        W36358   9.130   7.454  11.081 -0.1581  0.0029 -0.0075
20890W        W36359  17.684  13.965   4.302 -0.1496  0.1939  0.0841
20891W        W36360   2.891   4.462  11.113  0.0657 -0.1743  0.1027
20892W        W36361  12.068   4.047   0.238  0.2391 -0.1075  0.1918
20893W        W36362   3.529  16.375   2.361  0.0362 -0.1446 -0.1291
20894W        W36363  18.128   3.802   0.252  0.0172  0.0647 -0.0456
20895W        W36364  10.138   2.085  14.225 -0.0137  0.4810 -0.0860
20896W        W36365   3.325  16.791  12.053  0.0081  0.2752 -0.2583
20897W        W36366  14.703  18.372  14.223 -0.2171 -0.2971 -0.2334
20898W        W36367   4.900  10.565   1.135  0.0085  0.0275 -0.1881
20899W        W36368   7.471  17.265  15.040  0.0579 -0.0687  0.0654
20900W        W36369  15.272  18.528   5.339  0.1066  0.2418 -0.2487
20901W        W36370  13.070   9.513  12.907  0.0433  0.1400  0.4055
20902W        W36371   9.157   4.969  14.459 -0.1863  0.1231 -0.4339
20903W        W36372   7.194   3.094   4.087 -0.0330  0.0429  0.1616
20904W        W36373  17.134  14.081   1.392  0.1367 -0.1765  0.2122
20905W        W36374   6.165  13.810  14.096 -0.4532  0.2435  0.1215
20906W        W36375  15.161   2.442   0.648  0.0595  0.0705 -0.4467
20907W        W36376   6.779   7.581   0.374  0.1894 -0.5414  0.0883
20908W        W36377  11.395   7.918  12.008 -0.0049 -0.2764 -0.1749
20909W        W36378  17.765   0.778  13.589 -0.2136  0.0952  0.1801
20910W        W36379  16.846  11.135   1.011  0.3462  0.0525 -0.1528
20911W        W36380  10.315  15.050  11.274  0.3205 -0.1855  0.0996
20912W        W36381  10.889   2.116   3.657 -0.2066 -0.2509 -0.0415
20913W        W36382  16.587   5.888  14.050 -0.0051 -0.1594 -0.1879
20914W        W36383   6.039  16.504   1.477 -0.0676 -0.1185 -0.2493
20915W        W36384   9.992  12.388   0.779  0.0147  0.0518 -0.1563
20916W        W36385  16.143  15.077  11.706  0.2714  0.2949  0.1307
20917W        W36386   3.077   3.857   5.016 -0.0991  0.0156 -0.2855
20918W        W36387  17.429  11.749  14.570 -0.2120  0.3453 -0.2654
20919W        W36388   5.451  16.373   3.352 -0.0529  0.2172 -0.1269
20920W        W36389  14.303  13.932  13.502  0.2456  0.0458 -0.1695
20921W        W36390   5.319   5.812  14.961 -0.0930  0.3618 -0.0203
20922W        W36391   3.886  10.848   1.780  0.2146  0.0500 -0.0689
20923W        W36392   9.770   7.434   2.810  0.3288  0.4108  0.0410
20924W        W36393   3.895   1.921  10.614 -0.2261  0.1573 -0.1015
20925W        W36394  14.316  10.227  14.695  0.3033 -0.0938  0.2044
20926W        W36395   1.913   3.674  13.318 -0.3322  0.2440  0.2260
20927W        W36396   2.082   5.919   1.064  0.0162 -0.2280 -0.1581
20928W        W36397  18.100   5.978   1.288  0.3233  0.0048 -0.0353
20929W        W36398   8.949   7.671   1.698  0.1882 -0.1501 -0.4926
20930W        W36399  17.935   8.799   4.952 -0.0634 -0.0435  0.2179
20931W        W36400  11.754   6.225  14.502 -0.2506  0.0301  0.0913
20932W        W36401   1.378   0.447  13.433 -0.0332 -0.0263  0.1909
20933W        W36402   6.761   3.850  14.887 -0.3322  0.2267 -0.0687
20934W        W36403   0.517  15.754   1.068  0.1360 -0.3363  0.0737
20935W        W36404   2.121   0.434  14.766 -0.0587 -0.1233 -0.2621
20936W        W36405   0.592   7.074   3.885 -0.2874  0.0630  0.1789
20937W        W36406  18.381   9.206  13.139  0.2808 -0.0150  0.0496
20938W        W36407  13.638  12.569   0.212 -0.2919  0.0540 -0.0088
20939W        W36408  17.394   3.520  13.067 -0.2130 -0.1791  0.3903
20940W        W36409  17.109   8.681  12.694 -0.3427  0.2112 -0.2260
20941W        W36410   8.585   3.546  15.252  0.2843  0.0363  0.1862
20942W        W36411   2.467   7.220  13.020 -0.2875 -0.1641 -0.0625
20943W        W36412   6.348   4.298  13.113  0.1222 -0.0602  0.2819
20944W        W36413  13.620  17.013   2.063  0.2618  0.0529  0.3016
20945W        W36414   1.418  15.870  13.701  0.0102 -0.1561  0.2153
20946W        W36415   0.233  10.419   2.819  0.2997 -0.2224 -0.1979
20947W        W36416   3.693  16.800   5.112  0.0905  0.0753 -0.0677
20948W        W36417   7.971  10.491  11.755  0.0976 -0.0888 -0.5264
20949W        W36418   9.063   7.150   1.748  0.0779 -0.0280 -0.3468
20950W        W36419  10.637  18.595   3.721 -0.2760  0.1994  0.3777
20951W        W36420   8.097  10.361  13.351  0.0179 -0.2027 -0.4667
20952W        W36421   4.687   5.386   5.462 -0.1915 -0.1187 -0.1479
20953W        W36422   4.127  13.424   5.194 -0.0051  0.0013  0.3496
20954W        W36423   6.575  12.871  11.163  0.1245  0.2539  0.1235
20955W        W36424  13.646  17.630   1.861 -0.2510  0.0300  0.0355
20956W        W36425   0.991   5.002  12.868 -0.0027  0.0905 -0.1583
20957W        W36426   1.934   7.843  14.591 -0.0912  0.2293  0.1375
20958W        W36427  12.020   3.276   4.108 -0.2855 -0.1713  0.3615
20959W        W36428  10.171  11.592  13.884 -0.3072  0.2663 -0.0027
20960W        W36429  13.149   4.962  13.999  0.2460 -0.0324 -0.1964
20961W        W36430   1.075   1.271   4.396 -0.2335 -0.1103  0.1705
20962W        W36431  15.067  18.239   1.269 -0.2846 -0.1022 -0.2011
20963W        W36432  15.728  10.641   0.983  0.1038  0.1152 -0.3427
20964W        W36433   5.653   1.252   4.223 -0.0208 -0.0534 -0.1966
20965W        W36434  15.174  14.127  10.712  0.1662 -0.2259  0.0843
20966W        W36435   2.399  15.359  13.389 -0.2641 -0.1321  0.1315
20967W        W36436  12.128  18.027   3.550 -0.0316 -0.1936 -0.1428
20968W        W36437   9.421   4.012   0.041 -0.0225 -0.3319 -0.1863
20969W        W36438   7.665  10.216   4.783  0.0620 -0.5752 -0.0823
20970W        W36439  17.578   0.074   0.664 -0.1656  0.1995  0.0736
20971W        W36440   8.932  17.794   0.199 -0.1197 -0.1028  0.1070
20972W        W36441   3.597   2.228   1.492  0.0150  0.1812 -0.0893
20973W        W36442  12.626   0.309  15.609  0.2318  0.3164  0.0618
20974W        W36443   0.670  14.757  12.903  0.1205  0.0900  0.0902
20975W        W36444  12.493   8.898   5.194  0.2812  0.1971 -0.2587
20976W        W36445   5.623   9.770   0.269  0.1548  0.2635  0.1149
20977W        W36446   9.028   4.181  15.570  0.1762 -0.1799 -0.0162
20978W        W36447   8.113   0.272   5.385  0.0239  0.1497  0.1091
20979W        W36448   4.659   9.548   4.674 -0.2402 -0.0115  0.0523
20980W        W36449   9.929   0.254  11.700 -0.2149  0.1999 -0.1333
20981W        W36450  10.347   7.546   2.528  0.0259  0.2884 -0.2101
20982W        W36451   0.242   1.740   4.208 -0.0166  0.2394  0.3919
20983W        W36452  12.220  12.160   3.551  0.1380  0.0125 -0.1028
20984W        W36453  14.412   1.275   0.836  0.2957 -0.0995  0.1054
20985W        W36454  10.921  14.712  12.931 -0.0404 -0.0972 -0.3362
20986W        W36455   1.073   2.710   5.699 -0.0703  0.0739 -0.0680
20987W        W36456  16.781  12.933   2.973 -0.1099 -0.0965  0.3083
20988W        W36457   5.691   5.650  11.474  0.0326  0.0607 -0.2360
20989W        W36458  15.095  14.271  13.676 -0.1705 -0.2717 -0.1038
20990W        W36459  13.079   2.813  10.316 -0.1894  0.3600  0.1032
20991W        W36460   7.085   4.686   5.129  0.0695 -0.2169  0.0045
20992W        W36461  14.858  15.134  15.478  0.2500  0.0811  0.0431
20993W        W36462   9.809   7.057  15.767 -0.0712 -0.0156 -0.2204
20994W        W36463  14.589   9.603   3.695 -0.0167  0.1004  0.1130
20995W        W36464  16.086  16.357   4.764  0.0313  0.0218  0.0247
20996W        W36465   4.149   1.937  13.731 -0.1109 -0.0973  0.0202
20997W        W36466   9.450  18.634  15.548  0.2364  0.3337 -0.0638
20998W        W36467   1.696  11.846  11.515  0.2583 -0.0866  0.1954
20999W        W36468  12.815  17.347   2.419  0.0107 -0.3962  0.1073
21000W        W36469   1.543  14.288   5.043  0.2385 -0.0487 -0.1510
21001W        W36470   5.343  15.876  14.090 -0.0746  0.0797 -0.1615
21002W        W36471  13.864   0.046  10.917 -0.0387  0.4472  0.0770
21003W        W36472   3.873  12.357  10.633  0.1939 -0.1164 -0.0474
21004W        W36473  10.838  16.059   3.245 -0.0982  0.2966  0.0266
21005W        W36474   0.286  14.361   3.925  0.0055  0.0376 -0.0173
21006W        W36475  11.459   6.960  11.105 -0.0314 -0.1724  0.0101
21007W        W36476  12.537  12.095   2.746  0.2295  0.0654  0.4199
21008W        W36477   5.581   2.445  10.256 -0.1694 -0.2229  0.3965
21009W        W36478   0.602   0.537   5.112  0.0262  0.0045  0.1236
21010W        W36479   0.174   3.085   4.846  0.2293 -0.0199  0.2707
21011W        W36480  14.311   4.358   0.179  0.1097 -0.0147  0.0397
21012W        W36481   1.571  13.252   0.792  0.0568  0.4836 -0.3604
21013W        W36482  13.681   0.567  15.074 -0.1813  0.0690 -0.0339
21014W        W36483   7.751  17.371  12.197  0.1580  0.0341  0.3925
21015W        W36484   7.946  15.971   1.421  0.3779  0.4378 -0.1290
21016W        W36485   9.494  18.082  10.740 -0.1106  0.2268  0.0229
21017W        W36486   8.494   1.157   0.006 -0.1067  0.2076  0.2598
21018W        W36487  12.478  12.111   0.521 -0.0574 -0.0912  0.2100
21019W        W36488   0.259  16.568  14.049 -0.1138  0.2035 -0.3769
21020W        W36489  18.449  16.961  11.228  0.0565 -0.0595  0.0070
21021W        W36490  12.272   6.007  14.468  0.1166  0.1421 -0.2063
21022W        W36491  12.909   8.853   4.174  0.1830  0.1519 -0.0106
21023W        W36492   0.377  18.681  13.339 -0.1834 -0.0583  0.0876
21024W        W36493  17.521  13.597  12.526  0.0238  0.3519 -0.1541
21025W        W36494  11.493   5.274   1.686  0.1769 -0.1976 -0.1617
21026W        W36495   9.295   4.959   3.815 -0.1587 -0.2091 -0.1629
21027W        W36496  14.779  18.537  13.753  0.0603  0.1883 -0.3391
21028W        W36497   1.154   6.642   2.470  0.2181  0.2584 -0.1307
21029W        W36498  14.002   8.771  12.092  0.0252 -0.0531  0.0711
21030W        W36499  11.165  15.140   5.497  0.0042  0.0451  0.0084
21031W        W36500   9.469   5.717  13.678 -0.2323 -0.1033 -0.2754
21032W        W36501  13.157  16.791  14.208  0.1550  0.0085  0.1996
21033W        W36502   0.738  15.607  12.015  0.0357 -0.0013  0.1828
21034W        W36503   6.628  12.846  15.011 -0.0846  0.2605  0.3742
21035W        W36504   1.529   2.574   1.225  0.0796  0.1525 -0.2765
21036W        W36505   5.119   5.160   3.633  0.0475 -0.1945 -0.1183
21037W        W36506  13.855  10.410   2.993  0.1785  0.2571 -0.2690
21038W        W36507  15.358  11.697   4.623 -0.2211 -0.0860  0.2161
21039W        W36508  13.420   2.983   2.860 -0.0010  0.2354 -0.1420
21040W        W36509   9.268  15.194   3.421  0.1963 -0.2609  0.2071
21041W        W36510  15.867   4.957  15.564 -0.2020 -0.2640 -0.0701
21042W        W36511  16.980   2.996  12.135 -0.2701 -0.1125  0.2340
21043W        W36512   5.479   9.411  14.595  0.0283 -0.2984 -0.2422
21044W        W36513   6.515   8.799   1.925 -0.3136  0.3148  0.2075
21045W        W36514   3.982  18.005  14.296  0.2613 -0.2575 -0.0009
21046W        W36515   7.491   6.039   1.838 -0.1290 -0.1825  0.0780
21047W        W36516   4.417   5.095   1.137 -0.2475 -0.0541 -0.0156
21048W        W36517  18.031   8.750  10.236 -0.0889  0.2475 -0.2272
21049W        W36518   0.831   6.110  10.920 -0.1218 -0.2082 -0.2071
21050W        W36519   3.911   5.089  13.067  0.1637 -0.1577  0.0815
21051W        W36520   2.296   8.933   0.907  0.2442 -0.0148 -0.0734
21052W        W36521  16.431  11.693  13.466  0.3587  0.1493  0.2944
21053W        W36522  13.229  12.018  13.268  0.0792 -0.2884 -0.5814
21054W        W36523  12.808  15.066   0.942 -0.0291  0.0457  0.0159
21055W        W36524  17.913  12.325   1.814  0.0164 -0.0523  0.0408
21056W        W36525  13.410   8.339  10.470  0.0626  0.1990  0.1029
21057W        W36526   2.363   9.511   3.473  0.0598 -0.1370  0.2565
21058W        W36527   8.737  12.439   0.638  0.0337 -0.1250  0.2737
21059W        W36528  10.551  12.266   3.094  0.0450  0.0329  0.1058
21060W        W36529   9.839   0.892   2.265  0.1446  0.4339 -0.1429
21061W        W36530   1.317   3.362   3.818 -0.0808 -0.2105 -0.0055
21062W        W36531  14.914  12.231   1.936  0.1205  0.2709 -0.1152
21063W        W36532  12.836  12.656   5.365 -0.1482  0.1524  0.0496
21064W        W36533  13.229  12.291   0.090  0.2035  0.0784 -0.3967
21065W        W36534  12.598   1.399   4.677  0.3764  0.0762  0.2232
21066W        W36535   0.210  17.855  12.853 -0.2783  0.1048 -0.1403
21067W        W36536   8.998   3.334  13.550 -0.1336 -0.2647 -0.0976
21068W        W36537   1.217  10.096   5.143  0.1889 -0.0006 -0.0239
21069W        W36538   8.468   2.630   4.881 -0.0988 -0.0657 -0.1808
21070W        W36539  16.901   2.256  12.512  0.0083 -0.2128 -0.0592
21071W        W36540  14.861   8.011  13.244 -0.1740 -0.4075 -0.1081
21072W        W36541   3.013  16.385   0.151 -0.2784 -0.2148 -0.1107
21073W        W36542   6.511  14.759  15.651  0.1844  0.1740  0.0180
21074W        W36543   4.079   3.656  10.274  0.2763 -0.1495 -0.4946
21075W        W36544  16.381   5.409  14.330 -0.1725  0.1118  0.1915
21076W        W36545   7.797   9.754   4.232  0.0104 -0.2555 -0.3282
21077W        W36546   1.604  18.378  14.506  0.1133  0.2391 -0.0442
21078W        W36547   5.902  16.920   0.168 -0.0730  0.3310 -0.3689
21079W        W36548   1.235   5.021  14.975  0.1276 -0.0691  0.1764
21080W        W36549   4.505  13.819  15.194  0.0061  0.2186 -0.1143
21081W        W36550  16.069  13.698   4.156 -0.3034 -0.3250  0.2389
21082W        W36551   5.154  10.193  12.724  0.0980 -0.1378  0.1624
21083W        W36552  13.100   1.487   0.161  0.0605 -0.0476 -0.0675
21084W        W36553  17.979   9.218  14.462  0.0633  0.2926  0.0387
21085W        W36554  14.402   3.152  15.502 -0.2737 -0.1055 -0.0310
21086W        W36555   4.813  12.607   2.084  0.1506  0.0059  0.0493
21087W        W36556   6.508   6.783   5.566  0.1463  0.3985  0.1106
21088W        W36557   2.209   0.708   2.869  0.2467 -0.1717  0.3725
21089W        W36558  16.085  12.177  15.249  0.3386 -0.2243  0.0274
21090W        W36559   8.325   5.209  13.156  0.1117  0.0757 -0.0695
21091W        W36560  12.790   2.037  14.142  0.0877 -0.3807  0.1606
21092W        W36561  12.511  15.628  14.988 -0.0682  0.3343 -0.0929
21093W        W36562  18.645  14.383   0.598  0.1141  0.1685 -0.2190
21094W        W36563   6.065   9.581   1.617 -0.0427  0.0210  0.1104
21095W        W36564   8.279  16.187   1.068 -0.1130 -0.2568 -0.1460
21096W        W36565   2.657  13.229  12.129  0.0573 -0.1084 -0.2660
21097W        W36566   4.814  15.981  12.814  0.1367 -0.0198  0.0710
21098W        W36567  17.442   4.567  13.502 -0.0402  0.0521 -0.1070
21099W        W36568  18.582   4.518   0.367  0.0537  0.0008  0.2859
21100W        W36569   9.733   6.160   4.668  0.1312 -0.2997  0.2969
21101W        W36570  17.961  18.430   4.307 -0.1257  0.1499  0.1236
21102W        W36571  17.263  12.759  11.702 -0.0603  0.0583  0.1595
21103W        W36572   6.865   8.170   0.836  0.1424  0.0032  0.4225
21104W        W36573  16.528  17.828   9.472 -0.4308 -0.3761 -0.3486
21105W        W36574  18.336   5.840   2.448  0.0005 -0.4885 -0.3035
21106W        W36575  11.554   8.937   3.296 -0.3146  0.0564 -0.0176
21107W        W36576  13.425   2.226  11.383  0.3316  0.2320 -0.1778
21108W        W36577   4.816   6.622  11.088 -0.2329  0.0344  0.0868
21109W        W36578  12.677  17.214   4.015 -0.0381  0.1581  0.1737
21110W        W36579  11.311   6.948  14.214  0.1990  0.0131 -0.1137
21111W        W36580  16.648  17.554  11.427  0.0065 -0.0569 -0.1207
21112W        W36581  12.417  12.401   1.040 -0.1652  0.1846  0.1285
21113W        W36582   3.462  15.016  13.833 -0.2602  0.0930 -0.0391
21114W        W36583  11.379  14.592   4.327 -0.1322  0.0593  0.1705
21115W        W36584  16.619  14.494  14.309 -0.3208 -0.0305  0.1279
21116W        W36585   3.382  13.106  11.140 -0.1963 -0.1129  0.0149
21117W        W36586   0.265   8.998  13.399  0.2315  0.2332 -0.2117
21118W        W36587   0.996   0.714   4.958  0.0235 -0.1338 -0.0744
21119W        W36588   5.893   1.858   3.905 -0.0456 -0.0532 -0.0309
21120W        W36589   4.482  16.141   4.386  0.2471 -0.0786  0.1770
21121W        W36590  11.512   4.185   4.930 -0.2105  0.0749  0.1849
21122W        W36591  11.999   7.867  11.966  0.1862 -0.1566 -0.1235
21123W        W36592   5.556   7.199   5.454  0.0206  0.1624 -0.1182
21124W        W36593  18.019  15.009   2.553 -0.1061  0.1920  0.2617
21125W        W36594  11.133   1.996  14.728 -0.0761 -0.1228 -0.1924
21126W        W36595   0.885   7.824  13.950 -0.1334  0.3008  0.1568
21127W        W36596  10.253   7.850   1.173 -0.2817 -0.3208  0.0197
21128W        W36597  15.327   5.663  13.490 -0.2105 -0.2052  0.2067
21129W        W36598   7.390  17.899   1.933  0.1581  0.1890 -0.2077
21130W        W36599   6.339  11.516   2.143  0.0912  0.2425  0.2137
21131W        W36600  11.655   7.751   9.658 -0.1393  0.2857 -0.3419
21132W        W36601  16.090  18.098   9.604 -0.0057  0.1239  0.0947
21133W        W36602   1.420  12.518   3.513 -0.1592 -0.0551 -0.3392
21134W        W36603  11.301  12.200   1.718 -0.5108  0.0628  0.3978
21135W        W36604   5.803   6.159  10.214 -0.3541  0.1536 -0.1969
21136W        W36605   1.735  12.935   3.623 -0.1067  0.0376 -0.0684
21137W        W36606   9.875  14.717  11.390 -0.0937 -0.1978 -0.0514
21138W        W36607   9.198  11.773   2.657  0.6115  0.1958 -0.1115
21139W        W36608  14.231   6.880   4.426  0.1593 -0.1299  0.1328
21140W        W36609  17.342  12.034   5.672  0.1662 -0.3370 -0.1157
21141W        W36610   0.505  12.326   3.258 -0.1353 -0.0969 -0.1500
21142W        W36611   8.745   6.707   2.338 -0.1566  0.0287  0.1667
21143W        W36612   8.791  11.167  13.425  0.0939 -0.2400 -0.1308
21144W        W36613  13.078  13.550   5.064 -0.2264  0.0478  0.3232
21145W        W36614  14.657   4.888   4.822  0.1505  0.1010  0.1273
21146W        W36615  10.556   2.689   3.785  0.2395  0.0817 -0.0715
21147W        W36616   3.779   2.401  10.604  0.0703  0.2178  0.1311
21148W        W36617   6.998  13.003   4.762 -0.0653  0.1614 -0.0637
21149W        W36618  13.426  14.922  12.893 -0.1472  0.2930 -0.2695
21150W        W36619  16.106   4.139   2.434 -0.0454 -0.0617 -0.2588
21151W        W36620   4.256  13.043  10.161  0.4155 -0.2611  0.2782
21152W        W36621   7.642   1.530   3.539  0.4527  0.1692  0.4388
21153W        W36622   8.703  15.495   3.401  0.0186 -0.0197  0.1416
21154W        W36623   3.100  15.360   4.313 -0.0444  0.2607 -0.2036
21155W        W36624   3.349  11.895   2.678 -0.0020  0.0097 -0.0064
21156W        W36625   4.420  14.935  11.868  0.1581 -0.4865  0.2949
21157W        W36626   9.303   9.107  13.225  0.1118 -0.1272 -0.0685
21158W        W36627   9.737   4.038   4.786 -0.0592 -0.3986 -0.2870
21159W        W36628   8.025  17.080  12.923  0.0269 -0.0661 -0.0636
21160W        W36629  14.329   4.970   3.154  0.3083 -0.5864 -0.1351
21161W        W36630   3.947   8.947   0.243 -0.1632  0.0634  0.3527
21162W        W36631   8.230   7.804  11.112 -0.2729 -0.0579  0.3073
21163W        W36632   5.615   6.522  11.947 -0.0216 -0.0039 -0.0586
21164W        W36633  13.713  13.257   2.715  0.3761  0.1605 -0.2831
21165W        W36634  17.327  11.015  15.570 -0.2631 -0.1987 -0.1364
21166W        W36635   1.515   3.330  13.440 -0.3188  0.4328 -0.1571
21167W        W36636   3.063   2.765   1.109 -0.0367 -0.1958 -0.0096
21168W        W36637  16.553   5.590   5.000 -0.3246 -0.2098 -0.0750
21169W        W36638   6.893   6.305  11.297 -0.0803 -0.0258 -0.1902
21170W        W36639  17.728   2.851   4.168 -0.2977 -0.1690  0.1886
21171W        W36640  11.312  11.629  14.938  0.0145  0.0937  0.0398
21172W        W36641   2.593   5.343  14.089  0.0873  0.1240 -0.4383
21173W        W36642  15.356   1.076   9.676  0.1235 -0.5016 -0.3159
21174W        W36643  12.158   7.054   0.821  0.3700  0.0165 -0.0194
21175W        W36644   5.411   5.343   9.683 -0.0003  0.4111  0.0358
21176W        W36645   6.739   9.972  15.183  0.0105  0.4540  0.1711
21177W        W36646   2.348   4.808  14.035 -0.0185  0.1626 -0.0956
21178W        W36647  10.039   6.861  12.927 -0.4233 -0.0228  0.0747
21179W        W36648   3.911  14.467  13.833 -0.0728 -0.2579  0.1377
21180W        W36649   7.992  14.994  12.619 -0.0629 -0.0176  0.0509
21181W        W36650   7.577   2.908  13.594 -0.1807 -0.2365  0.1060
21182W        W36651  12.672  12.528  13.343  0.0231  0.1721  0.0108
21183W        W36652  13.446  13.745  12.955 -0.0759 -0.1666 -0.0011
21184W        W36653  13.076  18.255   4.684 -0.1461  0.1848 -0.2033
21185W        W36654  15.835  10.022  12.747  0.1535  0.2076  0.1379
21186W        W36655   2.073   1.926   0.691 -0.0069  0.0441 -0.0801
21187W        W36656  12.266   4.287   0.633  0.3567  0.1236 -0.1776
21188W        W36657   2.846  11.048   4.440  0.1828 -0.1886 -0.0409
21189W        W36658   5.847  11.084   1.093  0.0354 -0.7192  0.2374
21190W        W36659   9.374  17.199   2.781 -0.2455  0.1833 -0.0123
21191W        W36660   2.121   9.092   5.184  0.3134 -0.0893 -0.1158
21192W        W36661  16.966   2.547   3.553  0.0351  0.1043  0.3337
21193W        W36662  13.578  10.964  15.355 -0.1681  0.1378  0.1195
21194W        W36663  17.457  15.496   2.301  0.2638 -0.4848  0.0206
21195W        W36664   5.253  11.630  11.488 -0.1963 -0.0486  0.3474
21196W        W36665   8.501   0.535   4.089  0.4162 -0.0503 -0.0722
21197W        W36666  12.108  13.800  14.260  0.0285 -0.2197 -0.5726
21198W        W36667  17.319  12.094   4.729 -0.0411  0.0013 -0.0610
21199W        W36668   2.810  12.583  10.634 -0.0665 -0.1040 -0.0803
21200W        W36669   8.116   1.592   3.231 -0.0549 -0.1114 -0.1464
21201W        W36670  15.912  15.702  10.889  0.1262  0.0480 -0.0080
21202W        W36671   0.685  11.230   3.161 -0.0293  0.1866 -0.0847
21203W        W36672  10.739   4.744   5.181  0.0789  0.1188 -0.2068
21204W        W36673   5.212   4.455  15.475  0.1026  0.0425 -0.3493
21205W        W36674  18.453  10.339   0.710  0.0852  0.2229  0.2494
21206W        W36675   9.375  15.287  12.916 -0.1608  0.0106  0.1695
21207W        W36676  11.701   1.390  13.217  0.2805  0.0810  0.2357
21208W        W36677  16.081   1.210  11.305  0.1920 -0.1687 -0.3033
21209W        W36678  17.399  18.275   0.706  0.1998 -0.3855  0.0696
21210W        W36679   8.152   5.797   5.196  0.1020 -0.1662 -0.3934
21211W        W36680  12.623   7.091   2.717  0.0062 -0.1272  0.2192
21212W        W36681  17.314   9.444  15.260  0.2321 -0.1178 -0.0041
21213W        W36682   0.712   1.886   4.198  0.0533 -0.3883  0.0352
21214W        W36683   5.882  14.081   0.879  0.0559 -0.0040  0.0295
21215W        W36684   0.757  13.194  10.277  0.1308  0.1208 -0.1703
21216W        W36685  15.583  14.469  13.676 -0.1089 -0.2137 -0.1313
21217W        W36686   8.457   9.144  10.797  0.3449  0.4332 -0.2860
21218W        W36687  12.956  15.228   0.066  0.0254 -0.0139  0.0360
21219W        W36688   9.556  11.289   2.796 -0.0012 -0.3647  0.0646
21220W        W36689   1.747   9.189   4.807 -0.1250 -0.0416  0.3293
21221W        W36690  14.459   7.558  14.994 -0.0296  0.0327 -0.0767
21222W        W36691   1.877   9.248  14.211  0.0588 -0.0814  0.4391
21223W        W36692  12.865  12.541  12.383  0.2628  0.1468  0.0122
21224W        W36693  14.561   5.028   0.616 -0.1793  0.3522 -0.2884
21225W        W36694  11.767   7.177   1.229 -0.2751  0.0085  0.0134
21226W        W36695  10.943   9.159   1.651  0.2593 -0.0195 -0.0386
21227W        W36696  17.858  18.227  13.237  0.1638  0.2704 -0.4318
21228W        W36697  13.599   4.156   4.535  0.1402 -0.0480  0.1377
21229W        W36698  18.478  13.824  11.008  0.1447  0.2975  0.1225
21230W        W36699  10.020   2.692  13.427 -0.1980  0.0652  0.2397
21231W        W36700   4.862  12.748  12.914  0.0125 -0.2267 -0.2426
21232W        W36701   0.113   1.189   0.071 -0.2127 -0.2437 -0.2303
21233W        W36702  10.835   5.654  13.527  0.0804  0.1381 -0.1932
21234W        W36703   9.043   7.763  13.895  0.1735  0.0202 -0.0549
21235W        W36704  13.755   4.599   2.627  0.1506  0.0427 -0.2924
21236W        W36705  14.220  11.345  12.463  0.0582 -0.0996  0.4115
21237W        W36706  17.460   6.851   4.016 -0.1051  0.1259 -0.2314
21238W        W36707   6.607  12.196   0.245  0.2253  0.1809  0.0317
21239W        W36708   5.423  17.513   5.001 -0.1900  0.0990  0.2299
21240W        W36709   4.857  13.864  10.967 -0.0507 -0.0652 -0.3227
21241W        W36710   2.692  11.992  12.484  0.2563  0.0747  0.0585
21242W        W36711   2.438  11.954   2.722 -0.0884  0.4056  0.0473
21243W        W36712  17.924  11.521   3.094 -0.3855  0.2606  0.2852
21244W        W36713   0.249   1.838  14.791 -0.2476  0.1388  0.0737
21245W        W36714  13.765  17.752  11.216 -0.0436  0.2025 -0.3842
21246W        W36715   3.135   8.337   6.086  0.0945  0.3959  0.1286
21247W        W36716  12.807   1.330  12.747 -0.1621  0.0912 -0.1839
21248W        W36717   5.534  15.010   1.322  0.2916  0.3073 -0.0069
21249W        W36718   4.321  15.840   2.475  0.3744 -0.0205 -0.0387
21250W        W36719  14.769  12.123  14.685 -0.2611 -0.0553 -0.3613
21251W        W36720  18.319  12.211  14.402 -0.2061 -0.2507 -0.3372
21252W        W36721   7.163  14.009   1.799 -0.0471 -0.0982 -0.1716
21253W        W36722   5.903  15.160  12.611 -0.2023 -0.1384  0.0021
21254W        W36723   7.560  14.248  10.835  0.0618  0.0387  0.2434
21255W        W36724   6.046  18.182  12.300 -0.1275 -0.1441 -0.2694
21256W        W36725   5.550  14.416   3.324 -0.2545  0.1682  0.1123
21257W        W36726   7.886   5.324   0.477 -0.0436 -0.1226 -0.0711
21258W        W36727   1.636   8.786  15.211  0.0057  0.1044  0.1039
21259W        W36728   2.485   6.377   2.956  0.0275  0.0850  0.1220
21260W        W36729   0.709   3.761  14.250 -0.2145 -0.1451  0.1804
21261W        W36730   9.609   8.594  14.428 -0.2209  0.2793  0.1644
21262W        W36731   9.627   7.452  11.983 -0.0169 -0.0302  0.0637
21263W        W36732   3.034  13.970  15.185  0.0412  0.0621  0.2567
21264W        W36733   1.574  10.261   9.576 -0.2598  0.1518  0.0594
21265W        W36734   6.343   0.283  11.618 -0.5567 -0.2555 -0.0500
21266W        W36735   6.680  10.850  13.623 -0.0860  0.1784  0.0289
21267W        W36736   5.937   6.513  11.559 -0.1406  0.1767  0.0912
21268W        W36737  13.726  15.739  13.394  0.0776 -0.2683 -0.0554
21269W        W36738  13.594   4.567  13.867 -0.2063 -0.0396  0.2294
21270W        W36739   8.360   2.975  14.368 -0.1089  0.3132 -0.3725
21271W        W36740   9.811   1.633  14.171  0.4604  0.2278 -0.1785
21272W        W36741  14.202   5.240  11.454  0.0354  0.1613  0.1690
21273W        W36742  13.507   5.006   3.195  0.1372 -0.1127  0.0745
21274W        W36743   0.535   7.032  12.792  0.2212 -0.0931 -0.0273
21275W        W36744  18.491  11.458  13.148 -0.2626 -0.0026  0.1494
21276W        W36745   6.552  12.064  13.344  0.1746 -0.0255  0.0456
21277W        W36746   6.738  12.538   5.643  0.0748  0.0088 -0.3292
21278W        W36747   6.763  14.778  11.833 -0.0640 -0.0222 -0.1594
21279W        W36748  12.329  12.101   5.889 -0.1153  0.1080  0.1728
21280W        W36749  11.341   7.488  13.367 -0.1723  0.0309 -0.1823
21281W        W36750   7.304   3.643   0.237 -0.0411 -0.1495 -0.0998
21282W        W36751  11.150  13.425  13.784 -0.1377  0.2162  0.1001
21283W        W36752   9.712   8.358   2.338 -0.0426 -0.0838  0.2789
21284W        W36753  11.709  12.417  14.223  0.0256 -0.0547 -0.0941
21285W        W36754   9.858  18.398  15.731 -0.0737 -0.4085  0.2433
21286W        W36755   9.073   0.372   1.991 -0.0782  0.1250 -0.0699
21287W        W36756   5.299   3.829  12.635  0.2075 -0.0593  0.2977
21288W        W36757   4.037  11.184  12.524  0.0615 -0.1271  0.0608
21289W        W36758   3.219   2.945  13.580 -0.1131 -0.2150 -0.1268
21290W        W36759  14.471   2.947  13.114 -0.1401  0.0041 -0.1598
21291W        W36760  10.748   1.600  14.845 -0.1782  0.2148  0.1193
21292W        W36761   2.020   2.699   3.538 -0.0349  0.0577 -0.0030
21293W        W36762   2.403   3.724  12.265  0.0440  0.3771 -0.1606
21294W        W36763  11.972   5.796   3.095 -0.2457 -0.0866 -0.0180
21295W        W36764   9.381   3.929   4.186 -0.0682 -0.2275  0.1517
21296W        W36765   6.512  15.797  12.218  0.2661  0.1633  0.3752
21297W        W36766  11.384   9.212  15.576 -0.0706 -0.3100 -0.2553
21298W        W36767  11.635   9.056   0.144  0.1958  0.1624 -0.1743
21299W        W36768  16.391   9.417  13.544 -0.2554 -0.1627 -0.1653
21300W        W36769  12.686   0.577   4.751 -0.0498 -0.1825 -0.0737
21301W        W36770  15.549   8.483  12.989  0.0170  0.0273 -0.2482
21302W        W36771  14.783  11.340   1.708 -0.1389  0.4035 -0.0147
21303W        W36772  17.855   8.854   1.638 -0.0642 -0.4380  0.1619
21304W        W36773  15.147   8.479  12.402 -0.1167 -0.4892  0.3531
21305W        W36774  17.974   4.128  11.983  0.0457 -0.0433 -0.3170
21306W        W36775   5.400   9.910  13.754 -0.0161 -0.0371 -0.1098
21307W        W36776   9.768  15.611   5.721  0.0247 -0.4906 -0.0215
21308W        W36777   5.510   4.803  15.648  0.1096  0.0020  0.1854
21309W        W36778   1.748  14.402  11.333  0.1652 -0.0037  0.1990
21310W        W36779  12.209  11.972   3.068 -0.0028 -0.1161  0.3314
21311W        W36780   3.036   1.286   2.734  0.0916 -0.3804 -0.1799
21312W        W36781   0.072   9.989   0.830  0.0298  0.2101  0.0402
21313W        W36782   8.252  15.331  13.804  0.1669  0.0384  0.1468
21314W        W36783   2.989  12.157  13.472 -0.1626 -0.6772  0.0574
21315W        W36784  13.645   0.707  12.024 -0.2208  0.0671 -0.0734
21316W        W36785  11.903  13.293  13.337 -0.0675 -0.3126  0.0696
21317W        W36786  13.602   2.889   4.069 -0.3091  0.0688 -0.1260
21318W        W36787  10.942  12.072  12.706 -0.1189  0.1365  0.0465
21319W        W36788   0.331  13.687   4.672  0.0400  0.1699 -0.1353
21320W        W36789  11.166   4.790   3.381  0.0184  0.0725 -0.2499
21321W        W36790  13.883   7.814  14.901 -0.1031  0.1876  0.1893
21322W        W36791   3.033   5.795  15.059  0.0941 -0.0794 -0.0119
21323W        W36792   8.195  11.504  11.177 -0.0314 -0.1905  0.2349
21324W        W36793  16.129   0.010  13.381  0.0209 -0.2031  0.0693
21325W        W36794  12.962  14.348  13.765 -0.2872  0.1568 -0.0344
21326W        W36795  14.022   2.366   0.124  0.2105 -0.0650 -0.0870
21327W        W36796   5.235   7.770   1.239 -0.0895 -0.0150  0.0587
21328W        W36797   2.715   4.398   0.684 -0.2297  0.0251  0.0202
21329W        W36798  11.654  13.173   3.250  0.0287  0.0620 -0.2963
21330W        W36799  16.953   8.745  15.432  0.0094  0.2812 -0.0949
21331W        W36800  13.890   9.181   5.012  0.1090  0.2359  0.0549
21332W        W36801   2.974  15.205   2.162 -0.0227  0.2406  0.1336
21333W        W36802  10.112   1.479   5.377  0.4571 -0.1990  0.3288
21334W        W36803  14.484  17.240  14.952 -0.4467 -0.0475  0.1030
21335W        W36804  14.572  18.159  15.203  0.0344  0.0789 -0.5899
21336W        W36805  16.144   5.863   1.186  0.1773  0.2314  0.0120
21337W        W36806   9.685   8.249  15.246  0.1569 -0.2530  0.0320
21338W        W36807  14.771   6.342   4.013  0.0685 -0.0592 -0.2827
21339W        W36808  18.602  15.132  13.992 -0.1021 -0.0396  0.0950
21340W        W36809   7.927   8.131  12.832 -0.0703 -0.1799 -0.0455
21341W        W36810   1.367   5.480  11.446 -0.4878 -0.1454 -0.1710
21342W        W36811  11.549  17.022  15.557 -0.5219 -0.0447  0.0032
21343W        W36812   2.344  11.552  11.635  0.1890 -0.0610 -0.3130
21344W        W36813  11.716   3.153   3.368  0.2823 -0.0370  0.3850
21345W        W36814   2.759  12.090   1.985  0.1818  0.0063 -0.0192
21346W        W36815  14.151  10.956   0.956  0.0456  0.4296  0.1619
21347W        W36816  17.760  14.513   2.548  0.3290  0.1161 -0.1550
21348W        W36817   3.260  10.907  12.701  0.0497 -0.1254 -0.0613
21349W        W36818  17.025   8.479  10.444 -0.1823 -0.2012  0.2678
21350W        W36819   5.939   0.419   5.262 -0.0804  0.0343  0.0384
21351W        W36820  12.577  13.343  14.600 -0.1428  0.1317  0.1364
21352W        W36821   5.658   3.604  11.335  0.1322 -0.1738 -0.0648
21353W        W36822   4.089   2.228  15.222 -0.2967 -0.1224 -0.3446
21354W        W36823  11.130  14.229   1.852  0.1410  0.1788 -0.2229
21355W        W36824  16.420   7.212   0.193 -0.3567  0.1350  0.2517
21356W        W36825  14.512   2.778   2.908 -0.3174  0.0888 -0.2913
21357W        W36826   2.753  14.581  12.840  0.0634 -0.0785 -0.3993
21358W        W36827   1.260  12.906   0.390 -0.0325  0.0442 -0.4116
21359W        W36828   7.733   0.806   2.085 -0.3065  0.0308 -0.2699
21360W        W36829   8.235   0.180   2.375  0.1550 -0.0857  0.1735
21361W        W36830  10.152  11.899   2.917 -0.0594 -0.0828  0.1302
21362W        W36831  18.318  10.768  13.160 -0.2011 -0.0322 -0.2607
21363W        W36832   7.665  17.140   3.978 -0.1100  0.0525 -0.0938
21364W        W36833   0.581  10.806   1.586  0.1427  0.0291 -0.0864
21365W        W36834   0.334   6.300  12.947 -0.0008 -0.1956  0.0407
21366W        W36835  12.547   7.184  11.790  0.0122  0.0136  0.1913
21367W        W36836  18.161   3.196  15.711 -0.0680 -0.0482  0.2298
21368W        W36837   9.696   4.989  14.316  0.4371 -0.0469 -0.0919
21369W        W36838   4.649   2.206  15.275 -0.2786 -0.3293 -0.2142
21370W        W36839  15.191  14.275   0.118 -0.2149  0.0213  0.0787
21371W        W36840   1.065  12.192   3.261 -0.1649  0.0234  0.1816
21372W        W36841   7.415  17.032   0.250  0.0960  0.1541 -0.2290
21373W        W36842   0.607   4.890  12.656  0.2703  0.2535  0.1130
21374W        W36843   9.116  12.734  14.970  0.0601  0.3508 -0.1429
21375W        W36844  13.319   6.683   5.939  0.6026 -0.0636  0.1284
21376W        W36845   1.525   2.939   0.245  0.1369 -0.1681 -0.0294
21377W        W36846  14.667   7.213  13.027 -0.2598 -0.0446 -0.2489
21378W        W36847  18.668  10.946   2.018  0.1208 -0.1536 -0.3067
21379W        W36848   7.021   0.757   0.879 -0.0275  0.0341  0.1520
21380W        W36849  17.322  16.609   3.348 -0.2503  0.0441  0.2810
21381W        W36850  13.717  11.665  12.527  0.2213 -0.2763 -0.3143
21382W        W36851   8.234   1.143   4.202 -0.0658  0.0958 -0.0364
21383W        W36852  14.155   4.805   1.327  0.0002  0.0423  0.0591
21384W        W36853   8.186   7.212   2.342  0.1467  0.0569 -0.1999
21385W        W36854  10.091  13.138   1.485 -0.1096 -0.1980  0.2376
21386W        W36855   0.721  12.951  14.616 -0.2125 -0.3564  0.0398
21387W        W36856   0.896   3.138   2.212 -0.4630  0.0899 -0.0168
21388W        W36857  11.641  15.043   9.943 -0.1449 -0.0475 -0.0308
21389W        W36858   7.643   8.570  15.421 -0.1838 -0.1025 -0.2435
21390W        W36859   1.595   3.949   3.403  0.0879 -0.0468 -0.2015
21391W        W36860   4.467  11.407   3.582  0.2174 -0.3705  0.0152
21392W        W36861  16.974  16.974   5.213  0.1349 -0.0403 -0.1353
21393W        W36862  13.330   2.740  15.534  0.2248 -0.1044 -0.0345
21394W        W36863   8.593   0.655  12.835 -0.3976  0.0773 -0.0048
21395W        W36864   5.211   3.812  11.232  0.0395 -0.2059 -0.1823
21396W        W36865  13.768   6.968   5.908 -0.3915 -0.2576 -0.2130
21397W        W36866   8.166  13.018  13.828 -0.0289  0.1605 -0.1253
21398W        W36867  14.331   5.213  10.906 -0.0277 -0.0065 -0.0382
21399W        W36868  17.686   1.044   4.772  0.1874  0.1707 -0.0343
21400W        W36869  13.568  16.974   3.708 -0.0195  0.2335  0.1340
21401W        W36870  18.536   6.449   2.405 -0.1048  0.0424 -0.1767
21402W        W36871  15.660  14.342   0.466 -0.0634  0.0500  0.0244
21403W        W36872  10.942   9.466  13.080 -0.0700  0.3279  0.2667
21404W        W36873  10.709   8.270  13.604  0.0303  0.2369  0.3850
21405W        W36874  18.085  17.983  15.014  0.2649  0.0381 -0.2682
21406W        W36875   2.859  12.862   1.536  0.1894  0.2007 -0.0374
21407W        W36876   0.316   9.952   2.654  0.0047  0.1082  0.0203
21408W        W36877   7.095  10.661   5.160  0.3295  0.0274 -0.1780
21409W        W36878   0.878  17.334  12.313  0.1427 -0.0971  0.2787
21410W        W36879  18.557   8.215   5.284 -0.2673 -0.1581 -0.1393
21411W        W36880   2.387  12.860  12.873 -0.3805  0.2738 -0.1193
21412W        W36881  14.784   6.170  14.156  0.1264 -0.2056  0.1843
21413W        W36882   5.175   4.779   5.815  0.3384 -0.3211 -0.1765
21414W        W36883  13.665   5.210   5.060 -0.2537  0.3913  0.1193
21415W        W36884   0.881   1.625   3.666  0.2958  0.1759  0.1474
21416W        W36885   6.530  12.703  12.144 -0.3337  0.2500  0.4160
21417W        W36886  15.455   4.183   4.172 -0.1192 -0.1779  0.0489
21418W        W36887  14.633   7.883   5.505  0.2026  0.1643 -0.0215
21419W        W36888   8.099  16.098   0.030 -0.0546 -0.0982  0.0132
21420W        W36889  14.688   9.091  15.046  0.3737 -0.0027 -0.2733
21421W        W36890   5.607   0.430  12.714  0.2852 -0.1519  0.1754
21422W        W36891  12.076   3.800   3.647 -0.0260 -0.0758  0.0454
21423W        W36892   0.918   7.869  11.304  0.3167 -0.1456 -0.1697
21424W        W36893  16.852  12.535   2.504 -0.1969  0.0577  0.1331
21425W        W36894  15.614  16.625   1.169 -0.2594  0.1173 -0.3042
21426W        W36895  17.403   5.866   1.736 -0.1670 -0.4624  0.0338
21427W        W36896  18.265  16.377   3.669 -0.2764 -0.0653  0.0663
21428W        W36897   6.798  10.515   2.523  0.2491  0.2814 -0.0870
21429W        W36898   1.912   4.826  10.769 -0.2120  0.2119  0.1742
21430W        W36899   7.615   3.980  11.080  0.1744  0.4985  0.2207
21431W        W36900  13.273   6.713  10.085 -0.1996  0.0843 -0.3498
21432W        W36901  14.654   5.422  10.530  0.1485  0.2360  0.0819
21433W        W36902   8.223   5.052  11.400 -0.1784  0.0699  0.2058
21434W        W36903  16.455   3.444  11.618 -0.0727  0.0973 -0.3533
21435W        W36904  16.702  15.963  13.279 -0.0601 -0.0438  0.0203
21436W        W36905   4.129  16.977  11.609  0.1540  0.0359 -0.3015
21437W        W36906   9.318   1.162  10.992 -0.0290 -0.2500 -0.1964
21438W        W36907   1.646  14.373  13.524  0.1878  0.2129 -0.0125
21439W        W36908   5.794  12.837   4.356 -0.4028  0.0555 -0.0984
21440W        W36909   8.165   1.979  12.916 -0.0520  0.0856  0.1467
21441W        W36910  16.969   1.739   2.351  0.0460 -0.2756  0.1694
21442W        W36911   1.952   9.039   4.220 -0.0048  0.1085 -0.0993
21443W        W36912  16.913   9.154  11.476  0.1630  0.0842 -0.1442
21444W        W36913   8.759  10.027  10.552 -0.2800 -0.2040  0.1599
21445W        W36914  16.443  15.059  12.825  0.1719  0.1122 -0.0368
21446W        W36915   7.845  11.916  11.227 -0.2023  0.2833  0.1355
21447W        W36916   4.870  17.153   1.907 -0.0500 -0.1000  0.0493
21448W        W36917  14.791  12.872  13.313 -0.1153 -0.1508 -0.1259
21449W        W36918   1.165   1.649   4.072  0.0374  0.2168 -0.1195
21450W        W36919   7.436   1.898  14.958 -0.1276  0.1293 -0.0589
21451W        W36920  13.099   1.295   1.219  0.0825 -0.0603  0.1318
21452W        W36921   0.347  12.232  11.688 -0.2716 -0.1270  0.0865
21453W        W36922   0.761   8.927  13.236  0.1940  0.2778  0.1273
21454W        W36923   1.178  14.700  12.819  0.0170  0.0172 -0.0217
21455W        W36924  14.346   2.221   4.802 -0.1335  0.2048 -0.0874
21456W        W36925  11.337   2.623   1.494 -0.1342 -0.3311  0.1514
21457W        W36926  14.771  14.245  13.153  0.0561 -0.2350  0.2947
21458W        W36927   8.158  15.655   3.548 -0.0252 -0.0824 -0.1832
21459W        W36928  14.275   2.614   0.947  0.0835  0.0985 -0.1873
21460W        W36929   0.882  16.885  12.511  0.0491 -0.0385  0.1196
21461W        W36930   8.057   5.730  12.333  0.1529  0.0129  0.0669
21462W        W36931  13.516   0.050   1.356  0.2041  0.0309 -0.1999
21463W        W36932  12.787   3.169  13.022  0.1685 -0.3454 -0.0952
21464W        W36933   1.575   2.351  10.818  0.0802 -0.1787 -0.0286
21465W        W36934  14.019   3.739  15.163 -0.1248 -0.0472 -0.0748
21466W        W36935  17.310   8.604   0.505  0.3083  0.2735 -0.4821
21467W        W36936   2.481   6.079  13.610  0.0416  0.3702 -0.2052
21468W        W36937  13.495   1.723   1.762  0.1505  0.1975 -0.3633
21469W        W36938  12.365  17.706  11.283 -0.0606 -0.1457  0.0846
21470W        W36939  15.068   1.442   4.200 -0.1173  0.2500  0.0517
21471W        W36940   4.116  11.301   4.246 -0.1586 -0.2149  0.6134
21472W        W36941  13.049  10.059   0.471 -0.0277  0.1512  0.1717
21473W        W36942   3.992   2.483   4.271 -0.2865 -0.1194 -0.4700
21474W        W36943   7.914   5.143  14.322 -0.0953  0.0823  0.2551
21475W        W36944  12.653  17.637   6.080  0.0162  0.1276  0.3804
21476W        W36945  11.426   4.972  13.589 -0.1361 -0.2110  0.0900
21477W        W36946  11.904   5.104   1.463 -0.2449 -0.1281 -0.0061
21478W        W36947   8.909   8.656   1.247  0.1613  0.2663  0.0435
21479W        W36948   3.706  14.413  15.009  0.0376 -0.0712 -0.5749
21480W        W36949   8.197   2.789  15.248 -0.4110  0.2636  0.3351
21481W        W36950  10.675  10.460  12.083  0.1816 -0.1436 -0.0731
21482W        W36951  16.058   3.441  11.966 -0.1463  0.2727 -0.1829
21483W        W36952   6.867  12.863   1.150  0.1901  0.1956  0.0699
21484W        W36953  11.843  15.569  12.409 -0.1154  0.1081 -0.0747
21485W        W36954   3.810  16.299  13.135  0.2682 -0.0290 -0.1165
21486W        W36955  16.197   6.867   0.472 -0.0767  0.1741  0.1615
21487W        W36956   4.806  15.802  15.572  0.2168  0.0767  0.2026
21488W        W36957  13.661  12.049  12.276 -0.2357 -0.3084  0.1750
21489W        W36958   6.492   4.383   2.547  0.4567 -0.0591  0.0656
21490W        W36959  15.086   9.130   4.981 -0.1151 -0.0308 -0.1672
21491W        W36960   4.388  10.674  15.083  0.1689 -0.0563 -0.0509
21492W        W36961  17.360  14.674  14.411  0.0121  0.1387 -0.0355
21493W        W36962   9.033   1.743   0.557  0.0290  0.0456  0.1443
21494W        W36963  11.406   5.386  11.274 -0.1787 -0.1306  0.4745
21495W        W36964   8.112   3.001   3.693 -0.1441 -0.0441  0.0104
21496W        W36965  13.911   0.478   2.908  0.0547  0.1254  0.0637
21497W        W36966  10.235  15.633   3.033  0.2114 -0.0901  0.1754
21498W        W36967   0.767  11.203  14.046  0.1580 -0.0594 -0.0161
21499W        W36968  16.813  18.358  10.251  0.3165  0.0629 -0.3606
21500W        W36969  14.859   6.851   1.838 -0.2146  0.1317 -0.0669
21501W        W36970  15.659  12.721   3.231 -0.2806  0.0393 -0.1698
21502W        W36971  17.704   4.246   4.352 -0.1773 -0.4438 -0.3019
21503W        W36972  15.882  14.383  10.776 -0.2791  0.0691 -0.0417
21504W        W36973   1.342   9.546  12.322  0.0750 -0.1267 -0.0461
21505W        W36974   1.591   9.800   5.371  0.0802 -0.1708  0.1595
21506W        W36975  11.731  16.205  14.866  0.0638  0.1811 -0.0588
21507W        W36976   6.516   0.374   2.637  0.1194  0.1152 -0.2713
21508W        W36977   5.797  15.264   0.925 -0.2576  0.0513 -0.0874
21509W        W36978  17.708   8.759  11.436 -0.1129 -0.0783  0.2093
21510W        W36979  13.730   6.954   3.320 -0.2173  0.0153 -0.0542
21511W        W36980  12.749  12.551  15.491  0.2518  0.2365 -0.0211
21512W        W36981   4.016   8.259   1.883  0.0041  0.0873  0.0405
21513W        W36982   2.476   8.236  12.588 -0.0299 -0.0236 -0.0753
21514W        W36983   5.033  17.488   5.343  0.4587  0.2920 -0.0812
21515W        W36984  15.712  15.345   1.849  0.0158 -0.0486  0.0869
21516W        W36985   8.594  10.213   0.991 -0.0513  0.0565 -0.0617
21517W        W36986  16.661   9.192  13.929 -0.0814 -0.1898 -0.0611
21518W        W36987   0.421  13.957   1.131 -0.0825 -0.1791  0.0848
21519W        W36988  10.401   9.136  12.030  0.3326  0.1925  0.0637
21520W        W36989  12.905  12.288  11.980 -0.3482 -0.1393  0.4096
21521W        W36990   9.112   6.741   2.678  0.1344  0.0224  0.4779
21522W        W36991   8.481   8.025   4.191 -0.1993 -0.2221  0.1936
21523W        W36992  14.633  11.060  12.571  0.0868  0.0366 -0.0870
21524W        W36993  12.676  11.442   1.094  0.0332  0.0200 -0.1639
21525W        W36994   4.919  11.167   4.336 -0.2221  0.2036  0.2391
21526W        W36995  16.220  17.395   3.145 -0.0420  0.1728  0.0454
21527W        W36996   2.223  15.562  14.322 -0.0128 -0.0477 -0.0136
21528W        W36997   6.041   0.618  14.763  0.1351  0.1708  0.2566
21529W        W36998   6.989   2.403  14.996  0.0910  0.0388  0.4299
21530W        W36999   5.482  15.441   5.250 -0.0123 -0.2981  0.0910
21531W        W37000  17.097  14.113   0.828  0.0663  0.2156  0.2391
21532W        W37001   0.323  13.414   3.610  0.2939 -0.2674 -0.1793
21533W        W37002  12.681   6.225   0.328  0.1661  0.3671 -0.2386
21534W        W37003  16.514   1.462  11.284 -0.0696 -0.0179  0.2771
21535W        W37004  16.286  13.636  14.804 -0.1331 -0.0624 -0.3594
21536W        W37005  14.172   3.688   1.538 -0.2060 -0.0267  0.2604
21537W        W37006  17.507   4.130   2.841 -0.3224 -0.2194  0.0034
21538W        W37007   3.778  13.769   3.531  0.3497 -0.2201  0.0964
21539W        W37008  17.635   4.293  10.308  0.2600 -0.2410  0.0463
21540W        W37009  14.118   0.720  12.251 -0.1098 -0.0484 -0.0701
21541W        W37010   0.769   2.264  10.818  0.1235  0.0432  0.0086
21542W        W37011  17.051  13.920  10.853  0.0201 -0.0466 -0.2099
21543W        W37012   5.106   1.566  12.209 -0.1289  0.1055 -0.0637
21544W        W37013   9.982  11.513   1.789  0.2518 -0.0671  0.1130
21545W        W37014  16.682   6.714   0.528  0.0716 -0.1541  0.2464
21546W        W37015   8.452   9.977  14.737  0.0479 -0.1286 -0.1719
21547W        W37016  17.869  13.564  15.045  0.0494  0.0239 -0.0726
21548W        W37017  18.303   9.291   0.395  0.2118  0.0028 -0.1829
21549W        W37018   9.238   4.769   2.972  0.3029  0.3182 -0.2259
21550W        W37019  16.210   2.289   1.638 -0.0826 -0.1654 -0.2519
21551W        W37020  10.429  14.524  14.188  0.1352 -0.1308  0.2434
21552W        W37021   6.280  12.071   3.376  0.0408  0.0019 -0.0222
21553W        W37022  13.247  10.190  14.915 -0.0935 -0.0415  0.1830
21554W        W37023   6.069   6.478   4.053 -0.1584 -0.0053 -0.0665
21555W        W37024   8.200  15.798   1.983 -0.0157 -0.0816  0.3083
21556W        W37025   6.224   5.909  15.582  0.1120  0.0807  0.3006
21557W        W37026   7.177   2.180  11.612 -0.0667  0.4498 -0.3977
21558W        W37027   0.124  17.855  14.077 -0.0290 -0.0350  0.0218
21559W        W37028  15.335   4.425   2.860  0.2652 -0.0096 -0.2933
21560W        W37029  14.884  17.778   1.248 -0.0292  0.1464  0.1703
21561W        W37030  17.710  13.509  14.541 -0.1334 -0.1933 -0.3199
21562W        W37031   8.226   7.968  12.257  0.1094  0.0880  0.1460
21563W        W37032  14.746  15.957   2.532 -0.0914 -0.3578 -0.0777
21564W        W37033   3.447  15.815   1.051 -0.0775  0.0461  0.0058
21565W        W37034   0.428   3.192   0.003  0.1614  0.1080 -0.0506
21566W        W37035   1.471  12.294   2.965  0.0174 -0.2382 -0.0775
21567W        W37036   3.056  13.055   5.978 -0.0266  0.3342 -0.2398
21568W        W37037   1.434   0.101   5.412  0.1238 -0.1994  0.3452
21569W        W37038   5.871   3.198   3.622 -0.2703  0.1190 -0.0976
21570W        W37039   8.842  12.985  15.484 -0.1807 -0.1087  0.1271
21571W        W37040   1.861  13.368   2.609  0.3595 -0.1932 -0.0447
21572W        W37041   5.969   3.681   1.807  0.0104 -0.2957 -0.1994
21573W        W37042  10.563  16.677  15.008 -0.0158 -0.0071  0.1240
21574W        W37043   4.280  18.364  11.460 -0.0814  0.1910  0.1844
21575W        W37044  10.732  17.159  14.839  0.0414 -0.4251 -0.0654
21576W        W37045  16.700   8.614  10.859 -0.0586  0.2954 -0.0361
21577W        W37046   6.233   7.268  14.972 -0.0061  0.2601 -0.0981
21578W        W37047  17.979  10.114   1.362 -0.1102  0.3455 -0.1500
21579W        W37048   4.479   4.427  14.381 -0.0478 -0.1007  0.2375
21580W        W37049  15.662   5.876   0.262  0.0219 -0.0555 -0.2416
21581W        W37050   2.353   4.450  12.065 -0.1240 -0.2034  0.1702
21582W        W37051  13.641   4.723  11.354  0.1719 -0.1027 -0.1993
21583W        W37052  11.911   2.573  12.526  0.0546  0.0761 -0.2290
21584W        W37053  12.767  15.894  13.915  0.1007 -0.1779  0.0459
21585W        W37054  15.598   9.570  13.671  0.0035  0.0906 -0.2805
21586W        W37055   7.034   2.827  14.035 -0.3854 -0.1988 -0.0731
21587W        W37056   5.999   6.539   2.729 -0.0280 -0.0307 -0.3168
21588W        W37057  13.521  10.137   1.799 -0.0720  0.1381 -0.1502
21589W        W37058   1.177  15.465   3.665  0.1336 -0.0713 -0.2685
21590W        W37059  18.391   9.197  12.225  0.0678  0.0195  0.0222
21591W        W37060   5.347  18.374   2.888 -0.0866 -0.1893 -0.2339
21592W        W37061   0.183   6.942  13.608 -0.1042  0.1533 -0.0114
21593W        W37062   5.420   1.389   2.163 -0.2931 -0.4956  0.1811
21594W        W37063  11.738  14.676  10.707  0.2167  0.2098  0.1114
21595W        W37064  13.374  18.209  14.870 -0.0005 -0.0754  0.2209
21596W        W37065   5.474  11.329  14.832 -0.0964 -0.1426  0.2522
21597W        W37066   8.892   0.908  11.813  0.2842  0.1872 -0.1161
21598W        W37067   1.291   2.436  13.534 -0.0386  0.1721  0.0295
21599W        W37068   3.122  13.578   5.281  0.0461 -0.0538 -0.0435
21600W        W37069  14.690  12.895   4.995 -0.4039 -0.0204  0.4407
21601W        W37070   2.749  16.604  12.956 -0.2231  0.2118  0.0697
21602W        W37071   9.666   2.775  15.749 -0.1370  0.3068 -0.0842
21603W        W37072   6.146  15.730   3.626 -0.0253 -0.2252  0.1569
21604W        W37073  17.931  14.935  12.459 -0.2918 -0.0115  0.0547
21605W        W37074   0.014   1.682   0.284 -0.0651  0.0748  0.2242
21606W        W37075   4.726  14.188  15.436  0.2537  0.0384  0.1986
21607W        W37076  10.540  16.616   2.817  0.1704 -0.1605  0.1883
21608W        W37077   7.611   8.900   2.765 -0.1711  0.0169  0.3885
21609W        W37078  18.674  12.327   2.472 -0.2649  0.0944 -0.0957
21610W        W37079  13.118  13.982  14.130 -0.2769 -0.0105 -0.1620
21611W        W37080  11.004   7.189   3.679 -0.3598 -0.2356 -0.0755
21612W        W37081  18.189   8.095  13.075  0.2604 -0.1147 -0.1155
21613W        W37082  15.723  14.765   4.744 -0.1396  0.0017 -0.1631
21614W        W37083  12.373   1.673   2.287 -0.3077  0.3739 -0.3707
21615W        W37084   7.610  14.161   0.017  0.1662  0.4055  0.0153
21616W        W37085   5.487   2.824   0.877 -0.1775  0.2825  0.1805
21617W        W37086   8.182  16.613   2.294  0.1228 -0.0185  0.1596
21618W        W37087   3.047   0.498  13.218  0.0681  0.2170  0.1626
21619W        W37088   7.368   6.779   4.294  0.1603 -0.1391 -0.0660
21620W        W37089  13.290   3.573  13.700  0.2603 -0.1792 -0.2068
21621W        W37090  15.119  13.163  15.446 -0.2612 -0.2727  0.1527
21622W        W37091   4.181  10.272  14.142  0.2370  0.0187  0.1295
21623W        W37092  11.609  13.220   4.560 -0.2115  0.0420  0.1032
21624W        W37093  16.640   7.676   4.847 -0.1052  0.2549  0.0985
21625W        W37094  15.210   8.359   0.830 -0.4150  0.1150  0.2153
21626W        W37095  12.112   8.825  10.865 -0.3606  0.2369  0.3948
21627W        W37096   2.849  12.938  11.397 -0.1472 -0.0721  0.1869
21628W        W37097  12.087   6.363   2.729  0.0708 -0.2035 -0.1017
21629W        W37098  11.806  16.969   2.221  0.1671  0.1158  0.0803
21630W        W37099  16.586   6.427   1.167 -0.2720  0.0182 -0.2279
21631W        W37100  12.321  16.523  11.594 -0.0940  0.0756 -0.0598
21632W        W37101  12.311   1.233   3.753  0.0607  0.1528 -0.2576
21633W        W37102   7.132  16.797  11.123  0.1243 -0.3500  0.1187
21634W        W37103   3.876  14.253  13.339 -0.0062  0.0650 -0.1894
21635W        W37104  11.278  10.505  11.384 -0.0121 -0.0045  0.1906
21636W        W37105  13.494   1.009   1.345 -0.1684  0.0306 -0.0834
21637W        W37106   9.145  18.593   1.741  0.2644  0.3760 -0.1484
21638W        W37107   1.544  13.139  12.626  0.3130 -0.1295  0.0764
21639W        W37108  14.600  11.394   5.141 -0.1556  0.2662 -0.1053
21640W        W37109   7.830   6.229   2.337 -0.1266 -0.2201  0.0764
21641W        W37110  15.620   3.139   2.359 -0.3180 -0.0025 -0.0010
21642W        W37111  13.010  13.278   3.261  0.0075 -0.3137 -0.1742
21643W        W37112   8.412   9.597  15.087 -0.0434 -0.0190 -0.0872
21644W        W37113   3.440   3.944   4.699  0.1872  0.2436  0.0959
21645W        W37114  15.250  12.087  13.898  0.1096  0.0686 -0.4347
21646W        W37115   8.108   9.281   5.507 -0.2210  0.0399 -0.2338
21647W        W37116  11.470   5.195   5.240 -0.0760 -0.1683  0.0640
21648W        W37117   4.114   7.992   3.330  0.2045  0.0194  0.0570
21649W        W37118  10.839   8.267   5.106  0.0004 -0.1249  0.4219
21650W        W37119  18.286  13.904  14.808  0.3840  0.0768 -0.3697
21651W        W37120  15.490   2.316  13.641  0.0440 -0.0520 -0.1042
21652W        W37121  17.811  11.038   0.109 -0.0867  0.4013 -0.1255
21653W        W37122   4.509  18.536  13.536  0.0035 -0.2024 -0.1023
21654W        W37123   6.973   8.500  14.158  0.0808 -0.0154  0.0465
21655W        W37124  17.176  11.524  13.488  0.0065 -0.0430 -0.4274
21656W        W37125  18.510   8.509  10.543 -0.1747  0.2661  0.0609
21657W        W37126  11.843  11.009  11.676 -0.1123 -0.3216  0.0005
21658W        W37127   7.568  10.577   4.430 -0.1453  0.2808 -0.2645
21659W        W37128   0.373  14.242  13.695 -0.1739  0.0848 -0.1327
21660W        W37129   8.489  17.817   5.349  0.1740  0.0521 -0.2585
21661W        W37130  18.217   4.148   4.939 -0.0301  0.0402  0.1668
21662W        W37131  11.001   5.125   5.086 -0.0192 -0.0240 -0.3656
21663W        W37132  16.923  15.770   3.352  0.0028  0.0177  0.2590
21664W        W37133   4.330  10.011  12.027  0.3428 -0.1640 -0.1796
21665W        W37134   2.507  17.061   4.086  0.1355 -0.0421  0.1619
21666W        W37135   4.891   2.848   9.679  0.1562  0.2944 -0.1670
21667W        W37136   6.868   4.085  12.957  0.1692 -0.1762 -0.0379
21668W        W37137   2.313  11.069   6.141  0.1360  0.0703  0.0621
21669W        W37138  11.886   3.024  15.153  0.0001  0.2420 -0.4375
21670W        W37139  11.395  16.035  10.751  0.1872  0.0836  0.2426
21671W        W37140  13.663   5.670  11.074 -0.1120 -0.0236 -0.2356
21672W        W37141   3.224   9.819  13.850 -0.2893 -0.1437 -0.0587
21673W        W37142   0.872   0.815   1.415 -0.1855 -0.0276 -0.2554
21674W        W37143   2.664   5.395  14.837 -0.2640  0.0644 -0.0193
21675W        W37144  17.009   1.392  10.253 -0.1917 -0.0280 -0.1590
21676W        W37145  14.736  14.891  11.242  0.2266 -0.1357 -0.3100
21677W        W37146  13.102  16.386  13.786  0.0327 -0.1785  0.1591
21678W        W37147   9.956  17.919  15.585  0.0585  0.3219  0.1627
21679W        W37148  11.911  18.237  13.259 -0.0277  0.0440  0.0660
21680W        W37149   1.469  15.483  14.639 -0.0755  0.0165 -0.2177
21681W        W37150  14.782  14.526   1.129  0.0773  0.1936  0.0411
21682W        W37151  17.393   0.473   1.538  0.0809 -0.1874 -0.2158
21683W        W37152   7.176  16.264  12.649  0.0308 -0.1726 -0.1037
21684W        W37153   8.657  12.427   1.152 -0.1323 -0.0618  0.2591
21685W        W37154  17.863   6.005   0.892 -0.2747  0.0818  0.0746
21686W        W37155  17.563  12.763  11.128  0.0211 -0.1279 -0.0542
21687W        W37156   3.972   9.637  15.557 -0.0607 -0.0007  0.0051
21688W        W37157  13.813   2.904  15.404  0.1243  0.2405  0.1275
21689W        W37158   9.704  10.154  15.200 -0.1107 -0.0312  0.1683
21690W        W37159  10.913   6.308  12.974  0.0759  0.0455  0.0941
21691W        W37160   4.718   3.145  13.664 -0.0209 -0.3261  0.0736
21692W        W37161  12.409   3.558   4.382  0.1898 -0.5347 -0.0706
21693W        W37162  14.099  18.203   0.673 -0.1793 -0.0826 -0.1524
21694W        W37163  10.992  18.501  12.652 -0.1768 -0.1852  0.0627
21695W        W37164   2.326   4.384   2.871 -0.1434 -0.1753  0.0496
21696W        W37165  17.744  14.159   2.174 -0.1047 -0.0092  0.0984
21697W        W37166   5.511   1.086   3.215 -0.0243 -0.0022 -0.1843
21698W        W37167   1.083   3.158  13.133 -0.0864  0.1965  0.3259
21699W        W37168  18.511   6.297   4.874 -0.1679  0.3301  0.3390
21700W        W37169   3.127   5.109   3.092 -0.2949 -0.0135  0.1115
21701W        W37170  10.759   5.795  15.744 -0.2324  0.0885 -0.0702
21702W        W37171   0.838  15.095   4.746  0.3385 -0.1714  0.0030
21703W        W37172   0.779   7.452  12.909  0.0105 -0.2041 -0.0996
21704W        W37173  12.432  13.582   0.759  0.1206  0.2394  0.1111
21705W        W37174  10.627  13.323   4.338 -0.0213 -0.1159  0.2167
21706W        W37175   4.536  10.564  13.343  0.3004 -0.2629 -0.0082
21707W        W37176   4.399  13.201   1.644 -0.3167 -0.2310  0.2389
21708W        W37177   7.503  18.403  13.143 -0.0608 -0.1504 -0.3539
21709W        W37178   5.241  18.311   0.457  0.0957  0.2032  0.1678
21710W        W37179   0.013  14.768  13.514 -0.1314  0.0908 -0.1350
21711W        W37180   1.419   3.612   1.141  0.0859 -0.0469  0.1009
21712W        W37181   4.820  12.464  15.236  0.0081 -0.0459  0.1774
21713W        W37182   6.115  16.087   5.418  0.3218 -0.2352  0.0320
21714W        W37183  17.168  16.900  12.797 -0.1337 -0.2859  0.1136
21715W        W37184   5.481  15.808   3.346 -0.1544 -0.2280  0.2236
21716W        W37185   8.683  10.682   4.857  0.0613  0.0165 -0.0336
21717W        W37186  17.891   3.937   4.677 -0.2101  0.1749  0.1079
21718W        W37187  14.391   8.701   2.983 -0.2384  0.3468  0.1571
21719W        W37188   4.712  11.903  14.500 -0.0826 -0.2475 -0.0244
21720W        W37189   5.623   1.521  10.955 -0.1418 -0.0346 -0.1332
21721W        W37190   6.596  14.528   4.059  0.1770  0.2336  0.1347
21722W        W37191  16.906   5.292   2.700  0.1253  0.1032  0.3768
21723W        W37192  16.168   7.902  11.889 -0.0517 -0.0249  0.2882
21724W        W37193  15.719  16.786  12.568 -0.1113 -0.0623  0.0927
21725W        W37194   3.735   7.731  15.355 -0.0705 -0.0487 -0.0893
21726W        W37195   5.901   4.211   1.866  0.3211  0.1397 -0.0726
21727W        W37196   1.631   5.785  14.447 -0.1649  0.0681  0.1970
21728W        W37197  17.221   6.029  10.901 -0.2150 -0.0581 -0.0145
21729W        W37198   5.045   3.466   2.031  0.2113  0.0931  0.0314
21730W        W37199   3.420   4.009   0.806 -0.1396 -0.0720  0.0520
21731W        W37200  13.372  14.813  15.734  0.0444 -0.2636  0.2924
21732W        W37201  12.855  10.297   4.260 -0.2275 -0.1053 -0.1415
21733W        W37202   5.102   4.648   0.623 -0.3192  0.1980  0.0339
21734W        W37203   2.266  16.924  15.462  0.2477 -0.0191 -0.0662
21735W        W37204   6.625  12.383  14.698 -0.2861 -0.0089 -0.0899
21736W        W37205   0.320   8.795   3.716  0.0823  0.0360  0.3339
21737W        W37206   1.548   2.322  15.244 -0.2003  0.3682 -0.1651
21738W        W37207   2.226  15.161   4.752 -0.1152 -0.0649  0.0815
21739W        W37208   5.263   1.084   5.122  0.4735  0.1020 -0.0032
21740W        W37209  10.527  17.114  12.305  0.0092  0.0145 -0.1051
21741W        W37210   3.161   2.306   5.778 -0.3687 -0.0016  0.4558
21742W        W37211   2.640   8.795   2.381  0.2404  0.1378  0.2096
21743W        W37212   1.928  15.743   0.589 -0.1604  0.1048  0.0861
21744W        W37213   3.277  15.699   3.500  0.0011 -0.2980  0.5845
21745W        W37214   6.382   4.412   1.527 -0.1063  0.1127 -0.1676
21746W        W37215  15.376  15.593  11.321  0.0019 -0.0004  0.2790
21747W        W37216  10.514   3.652   2.385  0.1897  0.0278  0.1340
21748W        W37217   3.688  11.483   2.614 -0.1609 -0.1021  0.2760
21749W        W37218  13.471   6.684   3.723 -0.3437 -0.1406 -0.2823
21750W        W37219   7.496  15.774  11.272  0.2152  0.0814 -0.0182
21751W        W37220   6.858   2.334   5.004  0.1052 -0.0129  0.0369
21752W        W37221  12.391  11.920   4.414  0.2615 -0.3189 -0.1384
21753W        W37222   1.826  17.448  12.902 -0.0880  0.0871 -0.0565
21754W        W37223   0.956   4.224   4.021 -0.3023 -0.1669 -0.2059
21755W        W37224  17.589  15.928  11.917  0.1718 -0.3674  0.0929
21756W        W37225   6.576  15.330   2.837  0.1235 -0.2976  0.2063
21757W        W37226  12.867   3.699  13.443 -0.1988  0.0149 -0.1533
21758W        W37227  10.406   1.449   4.743 -0.1388 -0.0373  0.2573
21759W        W37228  17.265   9.269  13.439 -0.1736  0.0900 -0.0489
21760W        W37229   7.878   8.058   2.608 -0.2156 -0.0600 -0.0459
21761W        W37230   7.814  10.988   4.542  0.0207  0.0399  0.0061
21762W        W37231  10.719  15.605   2.167  0.2581 -0.1236 -0.0220
21763W        W37232   3.635   8.156  14.597 -0.1223  0.0140  0.3313
21764W        W37233   7.232   6.238   4.989 -0.3998  0.1578  0.3457
21765W        W37234  10.659   6.400  12.540  0.1715  0.0518  0.1179
21766W        W37235   5.550   1.834  14.970 -0.1802  0.0456 -0.4492
21767W        W37236   9.722  13.865   0.742 -0.0851  0.2204 -0.0450
21768W        W37237   4.211   0.305  14.631  0.0130  0.3540  0.2328
21769W        W37238   9.434  14.925   4.382 -0.0593 -0.0100 -0.1436
21770W        W37239   6.727   3.176   3.009  0.1178 -0.2673 -0.0687
21771W        W37240   5.751  18.570   2.075 -0.1619 -0.0322 -0.2065
21772W        W37241  16.122   1.773   9.899  0.3094 -0.1795  0.1579
21773W        W37242   9.501  13.474  10.760 -0.0057 -0.0910 -0.1067
21774W        W37243  18.060   7.015  11.709  0.1770  0.0041  0.0721
21775W        W37244  11.904   3.889   5.077 -0.1471 -0.0933 -0.3197
21776W        W37245   6.622   2.583   4.632 -0.0142  0.3549 -0.0043
21777W        W37246   8.477  12.644  13.732 -0.0214 -0.1337 -0.1159
21778W        W37247   4.391   9.124  15.442  0.0126  0.2478 -0.1030
21779W        W37248  16.766  13.749   1.487  0.0007 -0.1609 -0.0560
21780W        W37249   8.211   7.022  13.245 -0.0008 -0.2726  0.2519
21781W        W37250   3.318  12.734  10.800 -0.0756  0.3043  0.1469
21782W        W37251  12.025  12.929   4.284  0.1441  0.0175  0.2144
21783W        W37252  17.402   5.877  14.757  0.2181 -0.1421  0.0129
21784W        W37253   4.107   0.075   4.520 -0.2275 -0.0655  0.1884
21785W        W37254  16.623  10.827   2.910 -0.1071 -0.1472  0.1704
21786W        W37255  16.241  18.503   1.710  0.0690 -0.3220  0.1874
21787W        W37256  11.898   3.304  15.588  0.1954 -0.2652  0.0153
21788W        W37257  13.591  11.752   3.606  0.0332  0.1486 -0.4833
21789W        W37258  12.500   7.643   4.319 -0.0865  0.3184  0.1040
21790W        W37259   3.778  12.398  15.361  0.1373 -0.1880  0.2420
21791W        W37260   5.439   2.564   4.281 -0.0814 -0.1653 -0.1199
21792W        W37261   0.606  14.384  14.518 -0.1471  0.0030 -0.1060
21793W        W37262   8.767   6.794   4.873 -0.2331  0.0987  0.0802
21794W        W37263   9.711  14.825   0.281 -0.0024  0.2010 -0.0511
21795W        W37264   4.911   3.373  12.701  0.1392  0.2572 -0.2207
21796W        W37265   5.520  15.953  12.818  0.3683  0.1845  0.3227
21797W        W37266   0.378  12.105  13.899 -0.3270 -0.2560  0.0460
21798W        W37267   2.089   0.968  14.674 -0.0131 -0.1244 -0.0234
21799W        W37268  10.220   5.960  14.228  0.1112 -0.1486 -0.0188
21800W        W37269   0.077   9.644   3.435 -0.0096 -0.3044 -0.2637
21801W        W37270   9.019  18.436   3.873  0.0441  0.1017  0.0771
21802W        W37271  15.415  11.446  15.278 -0.1786  0.1613  0.0142
21803W        W37272   7.426   1.636  14.478 -0.1448  0.1410 -0.0240
21804W        W37273  13.769  12.991  11.354 -0.0309 -0.1034  0.0923
21805W        W37274   3.611  14.936   3.204  0.0318 -0.0914  0.0394
21806W        W37275  12.609  17.352  14.767  0.2415 -0.0753  0.1312
21807W        W37276  13.914   5.133   1.996  0.2665  0.2274 -0.0173
21808W        W37277   6.367   2.710  14.262 -0.0425 -0.2994 -0.2026
21809W        W37278   6.524  11.048   0.250  0.0342  0.2155  0.1758
21810W        W37279  16.125   5.346  15.294 -0.0549 -0.0456 -0.2451
21811W        W37280   7.581  14.746  12.478 -0.2580 -0.0066  0.0177
21812W        W37281  18.473   4.919   1.540  0.0360  0.1462 -0.0961
21813W        W37282  15.530  16.277  11.734 -0.0162  0.0048  0.2961
21814W        W37283  14.028  10.111  15.127 -0.0912  0.4008 -0.1990
21815W        W37284   9.544  13.827  12.059 -0.1718 -0.2388  0.1508
21816W        W37285   1.029  16.204  13.748  0.2762  0.0505  0.1159
21817W        W37286  14.130   4.900  14.672  0.4612 -0.3807 -0.2257
21818W        W37287   5.497  17.817  10.962  0.0270  0.0120  0.0843
21819W        W37288   6.958   6.189   0.310  0.0745 -0.0140 -0.0434
21820W        W37289  13.657   3.393  15.170 -0.1040 -0.1748  0.1386
21821W        W37290   6.627  17.814   2.993  0.1381 -0.0505  0.3298
21822W        W37291   3.578   9.446   3.293  0.1603  0.0123  0.0281
21823W        W37292  11.046   6.234  15.268 -0.1799 -0.0741 -0.0396
21824W        W37293  10.875  12.632  14.357 -0.2325  0.1478  0.2187
21825W        W37294  13.859  12.248   1.081  0.4694 -0.0384  0.3278
21826W        W37295  16.096   5.503   1.563 -0.0912  0.1219 -0.0133
21827W        W37296  15.637   2.424  11.531  0.1166 -0.0927  0.1573
21828W        W37297   6.571  15.439  14.931 -0.1050 -0.0398 -0.1208
21829W        W37298  18.392  14.281  11.433 -0.0989 -0.4455 -0.0075
21830W        W37299  16.052   9.715  12.400 -0.1368  0.0280  0.1505
21831W        W37300   6.001  13.161  14.347 -0.1738 -0.2952  0.0580
21832W        W37301   1.576  17.635  14.616 -0.1773  0.0027  0.0981
21833W        W37302  10.105   0.087   4.764  0.0743  0.0955  0.0522
21834W        W37303   4.547  16.440  11.937  0.0146  0.0521  0.0223
21835W        W37304  16.422  13.227   3.246 -0.0215  0.0836 -0.4185
21836W        W37305   6.802  14.288  11.546 -0.1163 -0.0231 -0.2679
21837W        W37306   9.665   9.458  10.373 -0.3237 -0.0934  0.2355
21838W        W37307  17.441  17.837  11.799  0.2360 -0.2885  0.1420
21839W        W37308   1.927   3.396  12.284  0.1124  0.1021  0.3619
21840W        W37309  12.888  15.987   1.248  0.1421  0.0201  0.0193
21841W        W37310  14.004   0.820  13.268  0.1361  0.0205 -0.1503
21842W        W37311  18.302   9.127  11.171 -0.1566  0.1230 -0.1787
21843W        W37312   6.356  18.568  15.470 -0.0964 -0.4396 -0.2322
21844W        W37313   2.253   3.814   0.718 -0.0088  0.1225 -0.0316
21845W        W37314   8.303   7.969  13.194  0.2756 -0.2624 -0.0500
21846W        W37315  11.986  17.887  15.014  0.1235 -0.0154 -0.2773
21847W        W37316  14.000  15.605  12.436  0.0480 -0.0292  0.4225
21848W        W37317   1.768  15.795   2.988  0.1120 -0.2611  0.0512
21849W        W37318   2.155  15.567   1.156  0.0459 -0.1390 -0.0794
21850W        W37319  10.962  14.501  12.520 -0.3745  0.1270 -0.2532
21851W        W37320   9.592   0.046   0.239  0.3024  0.3660  0.2410
21852W        W37321   4.382  16.375   3.317 -0.2173 -0.2966 -0.1436
21853W        W37322   2.015   8.479   1.012 -0.1405  0.0319 -0.2274
21854W        W37323  18.639  16.110   0.345 -0.0622  0.0871  0.1196
21855W        W37324   9.889  14.689  10.590  0.0802  0.2963 -0.0052
21856W        W37325   0.311   8.946   3.201 -0.4291 -0.2396  0.0297
21857W        W37326   5.340   8.585   2.637  0.1369  0.0191 -0.2114
21858W        W37327  17.605   9.447   3.830 -0.1227  0.0264 -0.1200
21859W        W37328   8.882   3.410  14.843  0.1556  0.1030  0.1467
21860W        W37329   3.127  11.438   2.623  0.0250 -0.4101  0.0662
21861W        W37330  17.162   0.406  13.190  0.1646  0.2160  0.2153
21862W        W37331  18.398   9.234   4.235  0.0402  0.0191 -0.0216
21863W        W37332  18.340  17.046  10.582  0.1127 -0.0544  0.0782
21864W        W37333  14.735   3.202  10.748  0.0771 -0.0034  0.1415
21865W        W37334   4.030   0.858  11.446 -0.3483 -0.0255 -0.2516
21866W        W37335   0.292   0.841  12.156  0.3550  0.0990 -0.0732
21867W        W37336   1.647   6.475   2.602  0.2676 -0.0669 -0.1693
21868W        W37337   4.295  16.764  12.279 -0.2051 -0.2424 -0.0267
21869W        W37338  11.082  16.483   3.295  0.0274 -0.3231 -0.0253
21870W        W37339   6.384  16.585  15.028 -0.3983  0.3714 -0.2615
21871W        W37340  12.935   7.013  12.714  0.2805  0.1780  0.0610
21872W        W37341   3.553  17.038  14.964 -0.0670  0.0039 -0.2107
21873W        W37342   7.191   1.391   2.640  0.2021 -0.1040 -0.2529
21874W        W37343  17.186   6.702   0.557  0.0062  0.1014 -0.2298
21875W        W37344  10.563   2.395  15.503  0.2715  0.0891 -0.4054
21876W        W37345   2.878  13.345   2.546 -0.0886  0.2413  0.0488
21877W        W37346  16.028   8.953  15.657  0.1052 -0.0545 -0.1164
21878W        W37347  10.903   0.469  13.997 -0.0800  0.0022  0.1549
21879W        W37348   5.539  10.600   2.770  0.2922 -0.2477 -0.0217
21880W        W37349   9.408  10.591  15.129 -0.0219 -0.0176  0.0325
21881W        W37350   7.556   1.435  10.822 -0.5483 -0.0129 -0.2182
21882W        W37351  12.656   4.052  10.799 -0.2791  0.0655 -0.0281
21883W        W37352  10.811  17.942  11.294 -0.1752  0.2160 -0.1206
21884W        W37353   3.611   1.631  11.185 -0.2693  0.3091  0.0252
21885W        W37354   9.264  15.090   1.606 -0.0295  0.0382 -0.0255
21886W        W37355   1.156  10.461   3.431 -0.0590  0.0973 -0.0801
21887W        W37356  15.448   6.876   0.934 -0.1085 -0.1005  0.3000
21888W        W37357   7.659   3.000   0.518 -0.1056  0.0432 -0.0826
21889W        W37358  12.656   0.024  15.185 -0.0889 -0.0533 -0.0550
21890W        W37359  13.844  14.976   1.179 -0.1080  0.0364  0.2110
21891W        W37360  10.160  16.816   1.684  0.1519  0.1483  0.4421
21892W        W37361  12.467  10.977   4.812 -0.2406  0.0678  0.1739
21893W        W37362   4.106  10.621   3.905 -0.1350 -0.4513  0.0350
21894W        W37363  16.224   6.711   2.010  0.0513  0.3600  0.0702
21895W        W37364   9.351   7.298   5.359 -0.0769 -0.0847 -0.0209
21896W        W37365   3.321   7.935   6.285 -0.1922 -0.0914 -0.1325
21897W        W37366  10.277   1.970  12.726  0.1236  0.2809  0.1712
21898W        W37367  15.362  10.931  12.593  0.0750 -0.0944 -0.1682
21899W        W37368  10.156   6.935   4.905  0.0085  0.0146  0.2465
21900W        W37369   3.325  12.979   0.008  0.0158 -0.3267  0.0302
21901W        W37370  16.189   5.776  11.603  0.3365 -0.1532  0.2625
21902W        W37371  15.101  16.671  13.873  0.5606 -0.4480  0.2007
21903W        W37372   7.954   9.112   4.287 -0.0706  0.0394  0.2376
21904W        W37373   4.516   8.715   4.978 -0.1099  0.2423 -0.1967
21905W        W37374  17.009  17.228  14.127  0.1430 -0.1386  0.0905
21906W        W37375  10.536  11.758  14.333 -0.1141  0.0195 -0.2485
21907W        W37376   9.516   3.961  13.906  0.1027  0.1418 -0.0083
21908W        W37377   1.960   9.032  15.539 -0.0158 -0.1162 -0.4510
21909W        W37378   5.940  18.093  10.899  0.2210 -0.0979  0.2184
21910W        W37379   9.354   7.633   3.627  0.3709  0.0003 -0.2742
21911W        W37380  17.187   1.911  13.266 -0.0740 -0.2982  0.1513
21912W        W37381  11.182   0.493   2.317  0.1359  0.4337 -0.3308
21913W        W37382  14.877  15.452   1.227  0.1481  0.4106  0.0423
21914W        W37383  14.261  18.004  12.414 -0.1274  0.2762 -0.0670
21915W        W37384   2.936   5.994   2.126  0.1185 -0.0380 -0.1263
21916W        W37385  11.359   7.631  11.583  0.2075  0.0155  0.1585
21917W        W37386   2.090   4.399   4.407  0.1373 -0.1682  0.1101
21918W        W37387   0.317   1.246  12.472  0.0092 -0.2939 -0.0178
21919W        W37388   4.479   6.262  12.576 -0.0548  0.2762 -0.2603
21920W        W37389   3.048  15.186   0.523  0.2226  0.1653  0.1106
21921W        W37390   8.469  10.364  15.567  0.1747  0.0216  0.0902
21922W        W37391   0.386  18.218   5.092 -0.0427  0.0849 -0.2747
21923W        W37392   7.888  12.619  15.267  0.1257  0.1329 -0.1277
21924W        W37393   0.127  15.821  10.443  0.1032 -0.0047 -0.3743
21925W        W37394   2.318   9.774  11.935 -0.1619 -0.2131  0.2357
21926W        W37395  16.016   9.203   0.313 -0.3590 -0.1593 -0.2173
21927W        W37396   2.299   1.138   3.252  0.0066  0.1206 -0.1900
21928W        W37397  16.239  14.769  10.603 -0.2272 -0.1029  0.0683
21929W        W37398   6.828  17.738  11.107  0.0395  0.0957 -0.2750
21930W        W37399   1.836   1.302   3.106  0.3939  0.3474 -0.2595
21931W        W37400   3.623   7.367   2.852 -0.1939  0.0499  0.2133
21932W        W37401  12.444   8.130   4.120 -0.0781  0.1782  0.0603
21933W        W37402   9.688   9.373  15.439 -0.4680  0.1444  0.2153
21934W        W37403   8.870  18.175   1.479 -0.0951 -0.0173  0.0109
21935W        W37404   1.640  15.523   5.335  0.3188  0.2463  0.0250
21936W        W37405  11.523  14.255   2.222 -0.0345 -0.2439 -0.0307
21937W        W37406   7.320   2.340  10.700  0.0679  0.1078  0.3844
21938W        W37407  18.375  15.650   0.201 -0.0857  0.0852 -0.1166
21939W        W37408   5.802  10.683   0.753  0.1682 -0.0796 -0.1359
21940W        W37409   8.155   9.784   5.263 -0.1760 -0.1257  0.0146
21941W        W37410   2.991   2.511   3.541  0.0167 -0.0976  0.1201
21942W        W37411  13.212  10.638   2.459  0.0831 -0.0599  0.0746
21943W        W37412  10.479   2.004  11.952 -0.0673  0.2092 -0.0202
21944W        W37413   4.523   8.713  13.552 -0.0763  0.0985  0.0697
21945W        W37414   8.767  14.357   5.944  0.0104  0.0689 -0.1396
21946W        W37415   7.826   9.307   3.384  0.3111  0.1757 -0.1061
21947W        W37416   0.491   4.276   2.051 -0.2258  0.0265 -0.1207
21948W        W37417  16.416  16.750   4.831  0.3079 -0.1894  0.0323
21949W        W37418  10.999   4.514  14.034 -0.1176 -0.0094 -0.2299
21950W        W37419   2.796   0.028   5.016 -0.2835  0.0715  0.4172
21951W        W37420   9.310  14.752   0.645  0.0673  0.0010  0.1029
21952W        W37421   0.673  16.097  13.398  0.1550  0.0226 -0.1885
21953W        W37422   5.976   7.599   5.477  0.2312  0.1028 -0.1494
21954W        W37423  14.878  13.157  14.733  0.0632 -0.1647 -0.3004
21955W        W37424  12.746   2.800  12.289 -0.0922 -0.1751  0.1880
21956W        W37425   0.552   4.599  10.686 -0.2162  0.2675  0.1615
21957W        W37426   6.583  12.377  10.444 -0.1335 -0.1140 -0.0452
21958W        W37427   4.122  15.422   3.418  0.3325  0.0881  0.2171
21959W        W37428  17.958   7.159   4.365  0.2945  0.0412  0.1837
21960W        W37429   7.368  13.396   0.676 -0.5023  0.1530  0.2572
21961W        W37430  18.672  14.177   2.640  0.0807 -0.0631  0.0642
21962W        W37431  11.530  10.880  14.765 -0.0046 -0.0173  0.2825
21963W        W37432   3.520   1.524   4.323  0.0640  0.0010 -0.0891
21964W        W37433  12.066   8.063  12.406 -0.2022  0.0521 -0.0869
21965W        W37434  18.614  15.576  13.341  0.2041  0.0753 -0.1266
21966W        W37435   1.917   6.444   2.195 -0.1533 -0.2351 -0.2817
21967W        W37436  15.169  14.689  15.523  0.1642 -0.0996 -0.1341
21968W        W37437   8.630   6.153  13.547 -0.1872  0.0419  0.0409
21969W        W37438  18.322  12.053  11.180  0.2940  0.2663  0.0146
21970W        W37439   5.671  17.820   4.019 -0.0658 -0.1213 -0.1205
21971W        W37440  12.005   4.443   1.459 -0.3228 -0.2005  0.0965
21972W        W37441   8.661   9.885   1.416  0.1480  0.1746  0.2752
21973W        W37442  13.123   9.676  13.389  0.0716 -0.0776  0.1531
21974W        W37443  10.342  10.928  11.875  0.2844 -0.0165  0.0440
21975W        W37444   0.424  15.656  13.557  0.2635  0.4291  0.0452
21976W        W37445   6.806   7.919   3.959  0.1802 -0.1446  0.0658
21977W        W37446   8.123   2.602  13.985 -0.1415  0.1992 -0.0034
21978W        W37447   0.024   5.986   2.114 -0.0443  0.3864  0.1853
21979W        W37448   2.189   0.807   3.813  0.1270 -0.3580  0.0990
21980W        W37449  10.485  14.125  11.883 -0.0322 -0.1522 -0.0498
21981W        W37450   8.622  14.619   3.894  0.1657  0.0672  0.0235
21982W        W37451   4.328  15.382   2.209 -0.0146 -0.0661 -0.2649
21983W        W37452  10.008  12.827   2.570  0.2345  0.1227 -0.1680
21984W        W37453   9.368  11.913  14.184 -0.0516 -0.2793 -0.0061
21985W        W37454  14.087   9.970  14.342 -0.1535 -0.1873  0.3131
21986W        W37455  10.386   6.488  13.044  0.0907  0.0822  0.1855
21987W        W37456   4.217  12.278  12.881  0.0828 -0.3911 -0.2609
21988W        W37457   6.261  10.541  13.476 -0.2517 -0.1806 -0.0586
21989W        W37458   1.706   5.672  13.924  0.0909  0.0675  0.0508
21990W        W37459   9.671  14.270   1.623  0.1058 -0.0062  0.0879
21991W        W37460  18.359  15.791  14.494  0.0170 -0.3597 -0.0772
21992W        W37461   3.357  17.848   9.492 -0.0109  0.0969  0.1053
21993W        W37462   0.570   9.104   5.971  0.0257 -0.2467  0.0588
21994W        W37463   3.698  11.783  15.084  0.1083  0.0609  0.1638
21995W        W37464  15.752  10.326   1.391 -0.2978  0.1150  0.0696
21996W        W37465   8.190  18.017  10.143 -0.2332  0.1392  0.1582
21997W        W37466   2.626   5.263   1.032 -0.1104  0.0572  0.4320
21998W        W37467  12.767   3.917   5.303 -0.0562  0.1849  0.1836
21999W        W37468  13.152   3.394   0.389  0.0754 -0.1413 -0.0718
22000W        W37469   5.660   4.239  12.564  0.1672 -0.1676  0.0813
22001W        W37470  10.931  16.190  13.235  0.0160 -0.1670  0.0949
22002W        W37471  10.934  18.325   4.353  0.1282 -0.1406  0.3523
22003W        W37472  15.130  17.992   5.235 -0.0221 -0.2183 -0.1064
22004W        W37473   1.889  15.576   5.778 -0.0383 -0.1751 -0.3011
22005W        W37474  14.427  15.814   1.420 -0.0649 -0.1569 -0.0191
22006W        W37475   9.814   3.834   0.410  0.0213  0.0389 -0.2838
22007W        W37476  17.602  14.105  11.038 -0.1036 -0.1444 -0.1442
22008W        W37477  16.906   0.138   3.930  0.1200  0.1226  0.1628
22009W        W37478   5.751   6.114  11.266  0.1127  0.6355  0.3848
22010W        W37479   8.766   7.016  12.072  0.0856 -0.4031  0.0945
22011W        W37480   6.674   4.534   4.294 -0.1821  0.3352  0.1273
22012W        W37481   7.416   1.634   9.673 -0.4517 -0.1989  0.0824
22013W        W37482  11.989  17.373   4.047  0.0646  0.0444 -0.0440
22014W        W37483   9.869  16.386   4.075  0.1528 -0.1015 -0.0738
22015W        W37484   9.681  16.537   1.071 -0.1532 -0.2310 -0.0231
22016W        W37485   8.757  12.868   0.829  0.0758 -0.1353 -0.2465
22017W        W37486  16.679   9.422  14.744 -0.2224  0.1451 -0.0586
22018W        W37487   0.936  13.369  12.962 -0.2059  0.3234 -0.4383
22019W        W37488   1.111  11.551  12.277 -0.1980  0.2095  0.4620
22020W        W37489  11.080  16.186  11.727 -0.0739  0.0648  0.0499
22021W        W37490  15.427   8.882   0.608 -0.1691  0.0211  0.1005
22022W        W37491  13.642   2.151  13.837 -0.2329 -0.1179  0.0027
22023W        W37492  10.209  14.693  13.746  0.0262  0.1129 -0.1889
22024W        W37493   6.584  15.269  12.045  0.2651 -0.0333 -0.1104
22025W        W37494  15.302   4.092   3.713 -0.1111 -0.1663 -0.2375
22026W        W37495  16.306   5.152   5.183 -0.0705  0.1900 -0.3119
22027W        W37496  16.278   7.804   2.867 -0.5640  0.1941  0.2558
22028W        W37497  17.297   5.120   2.996  0.0006  0.2468 -0.2275
22029W        W37498   2.375   9.286  15.453  0.4276  0.0662  0.2347
22030W        W37499   4.393   2.438  14.761  0.1619 -0.1546  0.1347
22031W        W37500   4.100   2.727  15.360 -0.1005 -0.0527  0.1721
22032W        W37501   0.946  17.208  15.281  0.2137 -0.1233 -0.2616
22033W        W37502  13.610  14.767  10.778  0.0783  0.1247 -0.3312
22034W        W37503  11.859   1.307   2.547  0.1206  0.1807 -0.1700
22035W        W37504   2.401  15.733   0.719 -0.0324  0.1452 -0.0501
22036W        W37505  17.765  11.076   3.527 -0.1034  0.1575 -0.0713
22037W        W37506   7.555  11.886   0.079  0.0888  0.1485  0.2914
22038W        W37507  12.820  14.428   5.973 -0.1118 -0.2124  0.1917
22039W        W37508  14.193   1.977  10.921  0.2657 -0.0127 -0.1235
22040W        W37509   7.816  14.413  14.002 -0.0522 -0.1387  0.1317
22041W        W37510   7.056   8.034  14.062  0.0775 -0.1722  0.1393
22042W        W37511   3.666   8.031   1.457  0.0473  0.2940  0.0014
22043W        W37512   9.167  18.057   4.254 -0.0494  0.0507  0.1306
22044W        W37513  13.731   6.213   1.149 -0.0929 -0.1220  0.1488
22045W        W37514  11.354   6.705  11.537  0.0938 -0.0783  0.0131
22046W        W37515  10.178  10.798  14.344  0.1225 -0.1492 -0.1069
22047W        W37516  17.602   9.480  13.731  0.4951  0.3218  0.1052
22048W        W37517  16.209  16.577  12.483 -0.0831  0.0859 -0.1714
22049W        W37518   1.463  15.754  12.813  0.2978  0.1363 -0.0938
22050W        W37519  11.557   5.194   2.158 -0.4015 -0.2452  0.1699
22051W        W37520   4.054  14.204   2.373 -0.3200  0.1102  0.0704
22052W        W37521   5.199   2.925   1.967 -0.1036 -0.1906 -0.3190
22053W        W37522  11.420   9.346  13.926  0.1831 -0.0613  0.0214
22054W        W37523   7.893  14.547  13.446  0.0177  0.0822 -0.2137
22055W        W37524   0.909   0.444  11.244 -0.2455  0.4431  0.3098
22056W        W37525   5.430  10.988   1.803  0.0894  0.0224  0.2952
22057W        W37526   6.989   5.042   2.446 -0.0724 -0.0540  0.1575
22058W        W37527  14.603   8.428  15.586 -0.0144 -0.1830 -0.2272
22059W        W37528  11.641   4.336  10.825  0.2068  0.1317 -0.0222
22060W        W37529  15.073  11.547   5.035  0.0372  0.3931 -0.1305
22061W        W37530   3.726   4.504   1.629  0.1114  0.0912 -0.1934
22062W        W37531   4.358  11.411   1.439 -0.1022 -0.1195  0.1175
22063W        W37532  10.933   3.752   2.003 -0.0120  0.2466  0.0024
22064W        W37533   3.945  15.623   3.847  0.0689  0.3250 -0.1037
22065W        W37534   4.534   0.699  14.736  0.0741 -0.0204  0.2357
22066W        W37535   8.831   0.515   4.530  0.1276 -0.0285  0.0007
22067W        W37536   7.423   6.071   2.620  0.0792 -0.1995  0.0420
22068W        W37537  16.774  10.318   1.607 -0.0149  0.1612  0.0570
22069W        W37538   5.909  14.097   1.341  0.2791  0.1088  0.1716
22070W        W37539  12.013   5.777  11.783 -0.0205 -0.3665 -0.0921
22071W        W37540   7.575   2.520   4.912  0.1703 -0.1490  0.0146
22072W        W37541  16.734  14.895  11.867 -0.2692  0.1786  0.2652
22073W        W37542   3.023  17.332  15.761  0.0365 -0.0304 -0.1884
22074W        W37543   8.216  16.250  14.263  0.0993  0.2683 -0.1529
22075W        W37544  10.284  16.961  13.327  0.0354  0.2663 -0.1649
22076W        W37545  14.508   0.621   4.029  0.0447 -0.3085 -0.1105
22077W        W37546   1.301   5.480  15.340  0.3363 -0.3303 -0.4286
22078W        W37547   5.928   1.451  11.400 -0.2431 -0.0667  0.1218
22079W        W37548  10.141   5.576  15.081  0.1080 -0.0160  0.0060
22080W        W37549  14.212  18.288  14.163  0.0968 -0.0074 -0.3025
22081W        W37550   4.360  15.752  14.494  0.0538  0.5606  0.1948
22082W        W37551   3.419  13.622   0.612  0.3485 -0.1008 -0.0826
22083W        W37552  16.093  13.911   5.155 -0.2609  0.0791  0.1876
22084W        W37553   4.601   6.504   1.615  0.4567  0.2285  0.1101
22085W        W37554  16.572   7.927   9.744 -0.3373 -0.3076 -0.0324
22086W        W37555  14.646  10.037   1.173 -0.2423  0.2785  0.2023
22087W        W37556   6.925  10.112   1.570  0.1128 -0.1524  0.0823
22088W        W37557   0.032   8.772   0.519 -0.1057 -0.1091 -0.1207
22089W        W37558  11.073  15.634  10.871  0.1635  0.0880  0.1193
22090W        W37559   0.138   2.420   4.953  0.3665  0.1406 -0.2609
22091W        W37560   4.867   8.171  13.146  0.0902  0.1582 -0.4238
22092W        W37561  11.829  12.549  14.677 -0.0918  0.2996 -0.3480
22093W        W37562  15.395   9.001   0.051 -0.0515  0.0567  0.1076
22094W        W37563  18.520   8.382   2.614 -0.1763 -0.0167  0.1041
22095W        W37564   4.280  18.514  12.541  0.1462  0.0985 -0.2482
22096W        W37565  13.629  12.023   0.214 -0.0394 -0.2061  0.2482
22097W        W37566  16.044  15.502  14.719  0.0940  0.2685 -0.1647
22098W        W37567   9.204  16.568   0.504 -0.0075 -0.1397  0.2595
22099W        W37568   5.730  12.839   2.093  0.2871 -0.2471 -0.0670
22100W        W37569  13.051  10.348   1.794  0.0780 -0.2101 -0.3843
22101W        W37570   2.281  15.066   0.971  0.2896  0.0031  0.0871
22102W        W37571   4.134  18.439   3.288  0.0076  0.2041  0.1753
22103W        W37572   1.956  11.391  14.095  0.1752 -0.1810 -0.2085
22104W        W37573  12.329   2.971  12.535  0.2540  0.0392 -0.0568
22105W        W37574  18.029   0.094  15.128 -0.1777 -0.1107 -0.3541
22106W        W37575   1.960   7.152  12.918  0.0772  0.2020  0.1507
22107W        W37576   5.143  17.460   4.503 -0.1981 -0.1702  0.0037
22108W        W37577   5.082  16.770  10.869 -0.1760 -0.0296 -0.1082
22109W        W37578  16.982   9.431   1.693  0.2059  0.0774 -0.0654
22110W        W37579   6.244   4.699   3.403 -0.1261  0.0531 -0.1390
22111W        W37580  12.804  12.996   2.658  0.2332 -0.1680 -0.0512
22112W        W37581   2.745   5.599  13.655 -0.0907  0.0511 -0.0376
22113W        W37582  13.789  15.422   4.736  0.0576  0.0439  0.2376
22114W        W37583   2.706   2.095   4.808  0.0025 -0.3679  0.1296
22115W        W37584  11.780  15.594   5.793  0.0706  0.0382  0.1940
22116W        W37585   8.504   7.742   2.229 -0.0650 -0.1452 -0.1941
22117W        W37586   0.884  12.841  11.515  0.2395 -0.0520  0.0243
22118W        W37587   9.038  12.614   3.054 -0.0616 -0.1167 -0.2856
22119W        W37588   2.102   3.790  14.069  0.1210  0.0105 -0.0275
22120W        W37589   7.228   1.549  11.375 -0.2118 -0.2543 -0.0367
22121W        W37590   0.509  10.683   1.107  0.1410  0.1945  0.1842
22122W        W37591   7.899   2.213  14.668  0.3352  0.1200 -0.1474
22123W        W37592   3.697   0.582  12.405 -0.1029  0.2066  0.0983
22124W        W37593   2.150  13.425   9.991  0.1726  0.2173  0.1372
22125W        W37594   8.860  16.906   3.663  0.3421 -0.0773  0.0952
22126W        W37595   8.403   3.090   5.077 -0.1448 -0.0992  0.4991
22127W        W37596  12.387   3.814  13.705 -0.1000  0.1769  0.4191
22128W        W37597   9.981  14.831   4.000 -0.3644 -0.2405  0.1307
22129W        W37598   9.205   5.301  11.457  0.2027 -0.4317 -0.1745
22130W        W37599   9.855  14.027   0.210 -0.2766  0.2824 -0.0225
22131W        W37600  17.147   5.676   3.705  0.0145  0.0013  0.1215
22132W        W37601   0.839  12.221  15.494 -0.1224 -0.0479 -0.2216
22133W        W37602  15.897  14.234  11.917 -0.0982  0.5195 -0.1074
22134W        W37603   3.976  15.766  15.079  0.0802  0.0418  0.0152
22135W        W37604   0.044   4.544   2.908 -0.1544  0.1755  0.0360
22136W        W37605  11.623   5.707   0.858  0.1272 -0.3965 -0.0598
22137W        W37606  16.923  11.821   4.556  0.0126 -0.2356  0.0686
22138W        W37607   3.465  18.596  11.918  0.2194  0.0247  0.0750
22139W        W37608   6.567   6.206  15.729  0.0409  0.0055 -0.0867
22140W        W37609   5.296   0.888   2.801 -0.2409  0.3348 -0.2658
22141W        W37610   4.768   8.217   1.052 -0.2059  0.0299  0.0432
22142W        W37611   1.027   4.182   4.530 -0.0151 -0.0410 -0.1829
22143W        W37612   8.831  17.630   5.005 -0.0312 -0.1475  0.1945
22144W        W37613  14.540  15.368  14.433  0.0322  0.2963 -0.2225
22145W        W37614  13.998   6.292   2.091  0.2337  0.3139  0.3514
22146W        W37615   4.795   5.485  15.428  0.2694 -0.2555  0.3167
22147W        W37616   1.579  17.191   9.407 -0.2005 -0.2309  0.0924
22148W        W37617   3.123   7.442  13.559  0.1679  0.1251  0.0755
22149W        W37618   6.626  16.430  13.191  0.1532 -0.0940  0.1642
22150W        W37619  16.395   1.724   4.540 -0.2384 -0.3340  0.1098
22151W        W37620  16.982   3.969   3.675 -0.3271  0.2635  0.0324
22152W        W37621   1.542   8.182  13.509  0.1363  0.2775  0.0624
22153W        W37622   9.831  17.312  15.657 -0.0639 -0.2432 -0.0191
22154W        W37623  15.716   0.335  13.127  0.4856  0.1399 -0.0385
22155W        W37624  15.520  17.185   0.016  0.1191 -0.2922  0.0501
22156W        W37625  13.943   0.677   2.412  0.1531 -0.0563 -0.1483
22157W        W37626  10.993  10.973   5.345 -0.0437  0.1778 -0.2557
22158W        W37627  14.351  15.393  10.801  0.0393 -0.1544  0.1945
22159W        W37628   0.354  17.867   1.510  0.0210  0.0454  0.1354
22160W        W37629  15.997  15.494  13.737  0.0696  0.0058 -0.1972
22161W        W37630   3.932   3.041  15.757 -0.0151 -0.1289  0.0006
22162W        W37631   3.299  12.588  11.839 -0.0951 -0.1796 -0.0206
22163W        W37632   6.592   4.523  14.059 -0.0035 -0.0241 -0.0481
22164W        W37633   1.938  17.052  13.200  0.0250  0.0233  0.0430
22165W        W37634  18.645   0.626  15.171 -0.0610  0.0449 -0.0939
22166W        W37635   4.468   8.085   2.493  0.3936 -0.0712  0.3596
22167W        W37636   1.437   2.863  10.954  0.5043  0.0972 -0.1440
22168W        W37637   3.629  14.461  12.115 -0.0531  0.4236  0.3388
22169W        W37638  18.684  17.390   5.403 -0.1710  0.1030  0.1364
22170W        W37639  18.410  13.722   2.451  0.1189  0.2721 -0.3970
22171W        W37640  10.947   1.756  13.282  0.2615  0.1267  0.4066
22172W        W37641   7.431  15.443   0.689  0.1037 -0.0247  0.1537
22173W        W37642  18.407   2.783   4.184  0.2483  0.0316  0.2538
22174W        W37643   4.997   3.308   3.840 -0.1019 -0.1762  0.2796
22175W        W37644   3.056  11.778   0.923 -0.0917 -0.1867 -0.1409
22176W        W37645   6.555  14.860   1.302  0.0316  0.1981  0.2710
22177W        W37646  11.206  11.362   2.114  0.0188  0.2146  0.1671
22178W        W37647   0.594  12.067   4.071  0.1504 -0.0336  0.0674
22179W        W37648   2.858  16.021   4.980 -0.2673  0.1701  0.0614
22180W        W37649  15.505   2.673   1.266  0.0748 -0.0795 -0.1186
22181W        W37650   7.497  12.389  15.700 -0.2553 -0.0125  0.2133
22182W        W37651   3.102   6.415   2.870 -0.1550  0.2787  0.0805
22183W        W37652   6.273  12.795   0.319 -0.1775  0.2071 -0.2389
22184W        W37653   8.212   0.723   1.059  0.1188 -0.1608 -0.0260
22185W        W37654  11.355  13.773  15.742 -0.2586  0.0936  0.1755
22186W        W37655  16.757   5.277   5.410  0.0231 -0.3316  0.2972
22187W        W37656   6.986   6.834   1.910  0.2881  0.2472  0.0145
22188W        W37657   3.946   7.338  13.864  0.0810 -0.0006  0.0853
22189W        W37658  11.877   4.350  11.379  0.0080 -0.3496 -0.1040
22190W        W37659   5.144   9.362   0.508  0.0144 -0.0327  0.1909
22191W        W37660  11.281  18.688  14.239 -0.0070  0.0710 -0.2718
22192W        W37661  12.813  11.110  13.006  0.0420 -0.2348  0.3357
22193W        W37662   1.147  11.816  13.508 -0.0720  0.2032 -0.0807
22194W        W37663  15.694  17.440   0.386  0.0065  0.1385 -0.0785
22195W        W37664  18.229  17.182   4.004  0.1285  0.1712 -0.2372
22196W        W37665   0.000  10.818  15.381 -0.3201  0.1087  0.0265
22197W        W37666  12.405   1.195  12.986 -0.1045 -0.3046 -0.4186
22198W        W37667   6.587   5.852  11.459 -0.3587  0.3316  0.2001
22199W        W37668   5.502   3.916   1.895 -0.2194 -0.1301 -0.3901
22200W        W37669   9.553  13.240   0.584 -0.2721 -0.0268  0.0691
22201W        W37670  15.334  11.305  12.029 -0.2988 -0.0540 -0.1881
22202W        W37671  12.340   8.927  14.864 -0.2954 -0.0268  0.3475
22203W        W37672  16.871   2.353  14.426  0.5321  0.2402  0.1204
22204W        W37673   0.360   1.566  13.581 -0.1309 -0.0432 -0.0523
22205W        W37674  16.130   8.537  11.236  0.1813 -0.1424 -0.0544
22206W        W37675   3.635  11.873  14.555 -0.3641 -0.0512  0.1222
22207W        W37676   5.872  11.020  12.618 -0.3207  0.3124 -0.2739
22208W        W37677   5.882  18.531  13.701  0.3033 -0.2344  0.2262
22209W        W37678  16.020   8.545  14.963  0.0533  0.2578  0.0988
22210W        W37679   8.660  18.198  11.503  0.0146  0.0313 -0.1677
22211W        W37680  17.989  10.025  13.020  0.1042 -0.1078  0.3337
22212W        W37681  10.464   1.795   3.804 -0.0546 -0.2839  0.1288
22213W        W37682  10.173   1.210  11.029 -0.1269 -0.0863  0.0014
22214W        W37683   7.238  16.363   1.985 -0.2340  0.1755  0.1743
22215W        W37684   8.465  15.974  10.977  0.2967  0.0086 -0.0353
22216W        W37685   0.783  13.810  15.066  0.2209  0.1458  0.1985
22217W        W37686  13.603  14.427  14.418  0.0143  0.0492 -0.4857
22218W        W37687  16.134   7.733   5.790 -0.1633  0.0464 -0.0919
22219W        W37688   9.194   5.751  11.282  0.0262  0.2795 -0.1630
22220W        W37689  18.591  18.273  14.419 -0.2224  0.0886  0.0408
22221W        W37690  14.071   3.191   2.269 -0.0388  0.1868 -0.2682
22222W        W37691  17.448  15.279   3.313  0.1348  0.3550  0.0627
22223W        W37692   9.192  18.541   0.650  0.1583 -0.0031  0.2169
22224W        W37693  15.618   3.347  11.734 -0.0079 -0.3155  0.1491
22225W        W37694  13.305   9.317   4.258  0.0162 -0.0493 -0.3967
22226W        W37695   9.556   8.041   1.574  0.0390 -0.3051  0.0886
22227W        W37696   5.762  14.713  11.286  0.2528 -0.3343 -0.0405
22228W        W37697  16.064   2.602  12.364 -0.3981 -0.2125 -0.1283
22229W        W37698  16.260  14.291  10.449 -0.2491 -0.1643 -0.3457
22230W        W37699  14.406  17.446   3.029 -0.1511  0.4022  0.2408
22231W        W37700  14.546   9.014   1.340 -0.0658  0.0676  0.1055
22232W        W37701  13.676   4.597   3.540 -0.0251  0.1587 -0.0278
22233W        W37702   8.035   7.245  13.653  0.2627  0.0890  0.2615
22234W        W37703   1.974   1.272   3.653 -0.1440  0.0463 -0.2427
22235W        W37704   7.206  13.866   0.827 -0.0335  0.0012  0.0330
22236W        W37705  12.952   4.619  10.881  0.1118  0.0163  0.1771
22237W        W37706   0.627   6.462  10.606 -0.1649 -0.2550 -0.0496
22238W        W37707  16.287   3.858   0.789  0.0318 -0.2227  0.0662
22239W        W37708  11.419   2.966   1.973 -0.3962 -0.4293  0.0327
22240W        W37709   9.454  13.778   0.020 -0.1508 -0.3211 -0.3891
22241W        W37710  12.389   9.770   5.063 -0.0013 -0.0033  0.1525
22242W        W37711   6.082   4.846  10.679 -0.0602  0.1214 -0.0962
22243W        W37712   2.526   3.992  11.842  0.0990  0.1211  0.0035
22244W        W37713   2.064  11.225   2.210  0.1807 -0.3460 -0.3364
22245W        W37714  13.869   6.389  15.296 -0.0677 -0.0240  0.3011
22246W        W37715   4.551  10.657  14.133  0.0070 -0.0967  0.1102
22247W        W37716   0.072   1.761  15.296  0.2076  0.2003  0.3218
22248W        W37717  18.444   2.647   3.278 -0.0668 -0.0740 -0.3588
22249W        W37718   4.267   9.116  13.303 -0.1799 -0.1250 -0.0236
22250W        W37719  14.259   4.007  13.868 -0.3709 -0.1154  0.0154
22251W        W37720   1.354   1.754  11.557  0.0049  0.0648 -0.0866
22252W        W37721   5.798  16.336  12.711  0.0467 -0.2709  0.1167
22253W        W37722  13.375   8.565  13.002  0.0015 -0.1839  0.0404
22254W        W37723  13.751   6.133   1.638  0.1358  0.1962  0.2136
22255W        W37724   6.919  12.095  14.377 -0.4257  0.0378 -0.2096
22256W        W37725  13.847   7.991  11.132 -0.0883  0.0336 -0.2397
22257W        W37726  16.653   3.460   1.459  0.1958 -0.2803 -0.0946
22258W        W37727  16.359   5.736  15.064 -0.0617 -0.0454  0.1816
22259W        W37728   4.834   9.720   2.151  0.0167 -0.0409  0.1985
22260W        W37729  13.035   7.676   3.243  0.1427 -0.1301  0.2413
22261W        W37730   8.539   5.583  13.549 -0.5803 -0.0466  0.4529
22262W        W37731   8.944   3.403   1.245 -0.0995  0.2618 -0.0142
22263W        W37732   2.611   6.139  14.696 -0.0564 -0.0462 -0.0499
22264W        W37733   5.852   8.794   3.530 -0.2152  0.0991 -0.0570
22265W        W37734   2.165  12.930   3.412 -0.2365 -0.1928  0.0682
22266W        W37735   4.587   7.257   5.749 -0.2939 -0.0997  0.0399
22267W        W37736  16.384   2.313  12.624  0.3631  0.0264 -0.0128
22268W        W37737  12.711  12.710  10.418  0.1123 -0.0817  0.0137
22269W        W37738   6.690  16.513  14.246  0.1433 -0.1163  0.3705
22270W        W37739  12.508  14.529  11.545  0.1184 -0.1016 -0.0328
22271W        W37740  17.845  17.521   1.205  0.0835 -0.1201  0.1032
22272W        W37741   9.466  18.064   3.835  0.0280 -0.0392  0.2680
22273W        W37742   4.041  13.823   3.038  0.2308  0.2568  0.2144
22274W        W37743   9.741  18.450  14.648 -0.0877 -0.0128 -0.1852
22275W        W37744   9.966   5.187   4.102 -0.0155  0.0532 -0.2054
22276W        W37745   2.386  17.891  15.665 -0.1449  0.2105 -0.0750
22277W        W37746   1.452  11.977  15.061  0.3788 -0.2741 -0.1313
22278W        W37747  10.416   1.106  15.424  0.0883  0.1161 -0.3306
22279W        W37748  10.913   2.130   4.577  0.0762  0.0754 -0.0101
22280W        W37749  14.040  18.100  11.961 -0.3140 -0.0401 -0.3055
22281W        W37750  17.531   6.308   0.612 -0.0127 -0.0436 -0.1224
22282W        W37751  12.179  17.577   0.669 -0.1389 -0.0258 -0.0200
22283W        W37752   0.791  17.538  10.628 -0.0345  0.0689 -0.0695
22284W        W37753  16.344   9.743   0.814 -0.2461 -0.3108  0.0545
22285W        W37754   9.322  18.262   2.588  0.1872  0.1584  0.1072
22286W        W37755   1.498  12.031  13.768 -0.1043  0.1856  0.1153
22287W        W37756  18.615  14.531  12.158  0.2827  0.1052 -0.0905
22288W        W37757  18.627   2.362  11.308 -0.0971 -0.0752 -0.0041
22289W        W37758   8.377  12.316  14.468 -0.0467  0.0849  0.1613
22290W        W37759   6.709   2.967   0.528  0.1274  0.1897  0.3130
22291W        W37760   1.515  18.471  10.399  0.2537  0.0734  0.1668
22292W        W37761   0.490   4.277   4.699  0.3310  0.1162 -0.3083
22293W        W37762   5.268   8.737   3.986  0.0069 -0.0875 -0.0072
22294W        W37763  13.904   3.508   0.695 -0.2094 -0.1970  0.2794
22295W        W37764   9.535   7.102   3.484  0.0641 -0.0099  0.2934
22296W        W37765   0.160   2.162   1.170  0.3291 -0.2737 -0.4641
22297W        W37766   5.545   1.044  10.699 -0.0659  0.2063 -0.0795
22298W        W37767  16.828  13.929  14.077 -0.3698 -0.0011  0.1404
22299W        W37768  11.686  14.383  11.147 -0.4016  0.2994  0.1940
22300W        W37769   3.148   2.372   4.817 -0.0022 -0.2207 -0.0041
22301W        W37770   6.196   3.946  11.246 -0.1434 -0.1842 -0.1781
22302W        W37771  10.842   6.224  12.120 -0.2433  0.1042  0.3236
22303W        W37772   8.780  12.539   2.625  0.1918  0.0899 -0.1478
22304W        W37773  16.098   4.078  12.806 -0.0341 -0.0143 -0.0345
22305W        W37774   3.737   8.777   2.686 -0.0655 -0.0695 -0.2252
22306W        W37775   4.734   9.207  12.595  0.2267  0.1021 -0.0729
22307W        W37776   1.716  10.095   4.936 -0.2195  0.1638 -0.0797
22308W        W37777   0.969   7.422   2.143 -0.0611  0.1020  0.4593
22309W        W37778  13.869   2.322  12.929  0.0032 -0.0830  0.3250
22310W        W37779  17.772   1.270   2.261 -0.0965  0.0571  0.5709
22311W        W37780   4.801   5.542  11.401  0.0849  0.1067  0.1846
22312W        W37781   0.162   1.003  14.831  0.1193  0.0756 -0.0211
22313W        W37782  16.331  10.562  10.556  0.0907 -0.1036  0.3845
22314W        W37783  15.838   2.136   9.649 -0.2150  0.1547 -0.2087
22315W        W37784   2.943   4.965  10.902  0.1531 -0.1700 -0.0972
22316W        W37785  12.773  18.681  13.511 -0.0898  0.3563  0.3314
22317W        W37786  13.169  14.403  11.724 -0.0971  0.0909  0.0238
22318W        W37787   8.545  17.509   0.021 -0.2353 -0.0681 -0.2997
22319W        W37788  10.343   9.454   5.310  0.2571  0.1241  0.0036
22320W        W37789   8.387   6.839  12.791 -0.1418 -0.0712  0.3133
22321W        W37790  16.679  12.443  12.152  0.0378  0.0197 -0.1876
22322W        W37791   2.415   2.795  12.812  0.0320 -0.1969 -0.0722
22323W        W37792  17.149   0.904   0.439  0.0988 -0.1588 -0.2137
22324W        W37793   1.970  13.832   2.760  0.0149  0.1139 -0.0861
22325W        W37794   4.337  17.778  11.116  0.0767  0.3080  0.0308
22326W        W37795   4.986   0.574  10.349 -0.0237 -0.0313 -0.0355
22327W        W37796   5.811  14.653  12.604  0.1984  0.0236  0.1571
22328W        W37797   3.794   8.079   0.956 -0.4412  0.1027 -0.2656
22329W        W37798  12.831   5.894   2.120 -0.0356 -0.3836  0.1351
22330W        W37799  16.458   5.188   4.678 -0.1935 -0.0377 -0.0587
22331W        W37800  12.746   8.096   1.638  0.1532 -0.2659 -0.1498
22332W        W37801   5.799  12.701  14.499 -0.1131  0.0193 -0.2250
22333W        W37802   4.928  18.362  15.126  0.4902  0.1290 -0.0328
22334W        W37803  12.289   3.270  10.582  0.0088  0.1295 -0.3336
22335W        W37804   7.243   1.161  14.480 -0.0007 -0.0729  0.1435
22336W        W37805  13.398  11.584   3.171 -0.4049  0.2804 -0.0338
22337W        W37806  17.777  16.917  13.417  0.0376  0.3375 -0.2425
22338W        W37807   7.032   1.113   1.472  0.2001 -0.0867  0.1361
22339W        W37808   8.490  15.232   1.975  0.0391 -0.0561  0.3985
22340W        W37809  15.479  17.904   1.635 -0.1851 -0.2351  0.1728
22341W        W37810   3.059   1.198  14.551  0.3271  0.4981 -0.1772
22342W        W37811  10.416  18.421   1.444 -0.0017 -0.1457  0.0379
22343W        W37812  15.883   7.941  12.251 -0.0055 -0.2747 -0.1774
22344W        W37813  17.751   8.796  12.068 -0.0823  0.1723  0.3715
22345W        W37814   7.181   0.371   4.631 -0.0903 -0.2643 -0.3677
22346W        W37815   2.344  17.690   9.885 -0.1163  0.0274  0.1028
22347W        W37816  14.693   7.769   0.126  0.3688 -0.0055  0.3310
22348W        W37817  17.507   5.809  10.598 -0.0354 -0.0598 -0.2638
22349W        W37818  12.175  16.778   1.195 -0.1515  0.4033  0.1999
22350W        W37819  14.603   9.738  15.726 -0.0352  0.0330 -0.3222
22351W        W37820   4.764   9.253  14.150  0.0847 -0.2495 -0.3183
22352W        W37821   7.591  11.648  10.442 -0.0913 -0.0126  0.1822
22353W        W37822   8.462   4.558   1.981  0.3093 -0.2659  0.1879
22354W        W37823   7.043  11.094  15.247  0.1757  0.1811 -0.2384
22355W        W37824  14.548  17.938   4.301  0.0318  0.1516  0.2116
22356W        W37825   8.864   7.543  14.782 -0.1525  0.0856 -0.0728
22357W        W37826  12.331   3.440   5.385  0.0955 -0.0543 -0.1671
22358W        W37827   4.012  17.674  12.767 -0.0905 -0.0724  0.2616
22359W        W37828   2.996  11.436   4.052 -0.0345 -0.0695 -0.4208
22360W        W37829  12.072   4.263  15.428 -0.0690  0.1861  0.2456
22361W        W37830   8.406   8.756  15.065 -0.0450  0.0861  0.2019
22362W        W37831  15.949   8.739   5.261  0.3892  0.0246  0.0023
22363W        W37832   7.778  17.731  14.659  0.0316 -0.0134 -0.2098
22364W        W37833   6.598  14.120   1.875 -0.1522 -0.1112 -0.1329
22365W        W37834   0.624   2.826  12.287 -0.0415 -0.2624  0.2526
22366W        W37835  13.344   7.582   0.271 -0.2120  0.0395  0.1107
22367W        W37836  10.406   4.171   1.685 -0.2336  0.0878  0.3346
22368W        W37837   0.251   6.186  15.629 -0.1993  0.3000  0.0097
22369W        W37838  15.751  10.944   2.861 -0.0588 -0.1587  0.1478
22370W        W37839   0.881   8.033  13.053  0.0522 -0.2148 -0.1577
22371W        W37840  17.996   2.780   2.046  0.0599 -0.2248 -0.0758
22372W        W37841   3.493   0.098   0.268 -0.0852  0.2761  0.2084
22373W        W37842   3.293   6.836   5.774 -0.1277 -0.0669  0.0528
22374W        W37843  18.334  13.532   3.886  0.0661 -0.0964 -0.0284
22375W        W37844  13.623   3.596   4.773 -0.2650  0.2759 -0.4713
22376W        W37845   4.571  16.607   0.697  0.1239 -0.0596 -0.0421
22377W        W37846   2.172   5.117  13.167 -0.3435 -0.0274 -0.0734
22378W        W37847  16.133   1.405   1.461 -0.2260  0.1443 -0.3142
22379W        W37848  14.987   8.448   2.239 -0.1040 -0.2481  0.1123
22380W        W37849  10.640  14.133  11.353  0.1876 -0.1775  0.2781
22381W        W37850   6.994   1.516  14.726 -0.1037 -0.1467 -0.0008
22382W        W37851  12.414   1.833  13.400 -0.1824  0.2420 -0.1101
22383W        W37852  11.885   6.537   4.166 -0.0140 -0.0871  0.1253
22384W        W37853  10.726  11.739  11.706 -0.2815  0.0570 -0.0372
22385W        W37854   9.426  15.134   0.980  0.0084 -0.1175 -0.4378
22386W        W37855  12.632   6.933  12.291 -0.3288 -0.0110 -0.0522
22387W        W37856  15.945   7.364  10.122  0.6653  0.1457  0.2228
22388W        W37857  11.830   2.827   0.318  0.0619  0.0279  0.0822
22389W        W37858  13.972  10.100   3.366  0.3495 -0.0632  0.2779
22390W        W37859   1.538  11.470  11.177 -0.0700  0.1115 -0.1995
22391W        W37860   1.532  15.303  11.540  0.1373  0.0726  0.0335
22392W        W37861   2.969  17.068   3.804 -0.2568 -0.3866  0.1111
22393W        W37862  12.887   3.475   4.200  0.1124 -0.2392 -0.1548
22394W        W37863  10.180   9.399  15.684 -0.0870  0.1367  0.3235
22395W        W37864  14.533   9.534   4.952  0.2104 -0.1248  0.2884
22396W        W37865   5.038  13.597   3.571  0.1307 -0.0180  0.1934
22397W        W37866  10.088  13.012   3.409 -0.3163 -0.1429 -0.1345
22398W        W37867   1.467   0.590  12.294  0.1922  0.3470  0.2736
22399W        W37868   8.053   1.698  14.894  0.0518  0.0190 -0.0712
22400W        W37869   2.819   9.123   4.021  0.1312  0.2601 -0.1481
22401W        W37870   9.871   8.617  13.958 -0.1484 -0.0403 -0.2633
22402W        W37871   1.154  11.209   1.288 -0.0415 -0.0495  0.0669
22403W        W37872   2.610   3.596   0.993 -0.0257  0.0780  0.0430
22404W        W37873   3.974   3.818   0.529  0.2163  0.2027  0.1228
22405W        W37874   2.698  13.950  10.481 -0.1051  0.2069  0.2975
22406W        W37875  14.634   8.192  12.765 -0.0943  0.0273  0.0109
22407W        W37876   7.224   5.716   1.456 -0.0089 -0.0440  0.0022
22408W        W37877  10.877  10.578  13.718 -0.0882 -0.2134  0.0124
22409W        W37878  13.363   6.373   2.898  0.1400 -0.3421 -0.1482
22410W        W37879   2.120  16.091  14.490 -0.0693 -0.0259  0.1650
22411W        W37880   7.931   7.455   4.555 -0.1355 -0.3674  0.3921
22412W        W37881   7.256  10.218   1.117 -0.0437  0.0225  0.5900
22413W        W37882   4.802  12.851  12.084 -0.0231 -0.4413  0.0504
22414W        W37883  17.524  12.466   3.138  0.4463  0.0062 -0.3196
22415W        W37884  13.240  16.220  12.202  0.0961  0.2625 -0.0451
22416W        W37885   0.824   7.930  12.598  0.0499  0.0453  0.1144
22417W        W37886   7.940  11.836  11.759  0.1439 -0.2723 -0.1278
22418W        W37887  14.523   7.909  10.960  0.0339 -0.5211  0.1743
22419W        W37888  16.404   1.966   0.291 -0.1644  0.2179  0.0677
22420W        W37889   0.297  18.630   1.052 -0.1430 -0.0396  0.2168
22421W        W37890  11.084  13.438   0.226 -0.0314  0.2848 -0.3243
22422W        W37891  13.519   8.506   0.711  0.4355  0.0062  0.0805
22423W        W37892   6.430  13.905  13.175  0.0031  0.2137 -0.0373
22424W        W37893  14.855   4.018  15.635 -0.0102  0.0905  0.2354
22425W        W37894   5.756  12.577  15.291 -0.2333 -0.0963  0.1668
22426W        W37895   0.796   2.318  11.982  0.1029 -0.5883 -0.1992
22427W        W37896   4.682   0.364   2.697  0.0034 -0.3246 -0.2637
22428W        W37897  13.114   2.559   3.339  0.1127  0.2631 -0.3146
22429W        W37898  16.418  13.474  13.400  0.1691 -0.0981 -0.1404
22430W        W37899   9.036  11.748  13.262 -0.0400 -0.0365  0.0364
22431W        W37900  12.049  10.273   3.220 -0.4256  0.1229 -0.2018
22432W        W37901   0.728  10.515  10.719  0.0072  0.1176 -0.0296
22433W        W37902  12.404  10.915  15.223  0.1217  0.1873  0.1663
22434W        W37903   5.688  13.250  15.311 -0.1194 -0.2959  0.0939
22435W        W37904  12.277   5.205  14.020  0.0534 -0.0656 -0.0802
22436W        W37905   5.812  16.228  14.573 -0.2251  0.3622  0.5835
22437W        W37906   2.151  10.553   0.743  0.0347  0.0028 -0.0183
22438W        W37907   8.127   5.492   4.871 -0.1348  0.4875  0.0697
22439W        W37908  16.361   8.593  15.760  0.1665  0.1837  0.1611
22440W        W37909   6.648   9.320  11.280 -0.0237 -0.1293 -0.3109
22441W        W37910   7.236  12.304   3.263  0.2314  0.0349 -0.2474
22442W        W37911   7.873  17.082   0.015 -0.0736  0.1497 -0.3103
22443W        W37912   4.825  13.470  14.261  0.3078 -0.2173 -0.0341
22444W        W37913   8.596   5.650   1.268 -0.1274 -0.0306 -0.2167
22445W        W37914  13.141   3.037  12.597 -0.0885  0.0057 -0.1968
22446W        W37915  16.534   7.255   0.719 -0.2439 -0.1538 -0.2218
22447W        W37916   8.332   3.514   1.763 -0.1301 -0.0131  0.1883
22448W        W37917  18.564   5.456  14.851  0.1829 -0.3797  0.3448
22449W        W37918   9.680  16.356  10.877 -0.0719 -0.3613  0.0903
22450W        W37919   4.992  16.143  14.154 -0.0377  0.0484  0.1234
22451W        W37920   1.958  14.286   2.083 -0.1702  0.3995 -0.1226
22452W        W37921  15.097   5.684   5.208  0.3662 -0.0898 -0.2179
22453W        W37922   9.208  13.050  11.900 -0.1224  0.0061 -0.2137
22454W        W37923   5.495   0.555  10.519 -0.2083  0.0635 -0.0289
22455W        W37924  16.114   4.699  11.491  0.2567  0.1360 -0.3718
22456W        W37925   8.951  11.245  11.968 -0.0498  0.2439  0.2086
22457W        W37926  15.960   3.924  13.283 -0.3323 -0.4873  0.0775
22458W        W37927   9.930   8.065   2.018  0.1561  0.3427 -0.1411
22459W        W37928  12.220   1.752   4.763  0.1391  0.0930  0.0592
22460W        W37929   9.946   3.003  13.059  0.1446  0.2024  0.1189
22461W        W37930  14.392  14.929   0.244  0.0359 -0.0529  0.1912
22462W        W37931   6.239  17.257   0.275 -0.3290 -0.3941  0.5255
22463W        W37932   1.441  17.896  14.117  0.2396 -0.0542  0.0627
22464W        W37933  14.863   0.982  10.951 -0.0936 -0.4315 -0.1092
22465W        W37934  14.484  13.834  15.535  0.0847  0.0264  0.3679
22466W        W37935   4.246  15.941  12.642  0.1882 -0.0874 -0.1100
22467W        W37936   7.569   5.827   3.059  0.1373 -0.3679 -0.0340
22468W        W37937   5.472   4.147   3.709  0.3739  0.1583 -0.0458
22469W        W37938   5.470   3.592   1.434 -0.5072  0.1763  0.0091
22470W        W37939  14.722  14.034  12.564  0.0449  0.2651  0.2631
22471W        W37940  16.484   0.707   2.054 -0.0864 -0.0184  0.1221
22472W        W37941  11.606   0.104   3.632 -0.0878 -0.0097 -0.1117
22473W        W37942   6.008   8.721  12.464 -0.2103  0.2930 -0.2247
22474W        W37943  11.040   5.883  10.530  0.1991  0.1010 -0.3643
22475W        W37944  11.778  12.155   1.964 -0.0300 -0.0484  0.0121
22476W        W37945   5.684   6.101  15.676 -0.4173 -0.3373 -0.0725
22477W        W37946   9.552  13.648  13.734 -0.1690  0.0812 -0.1283
22478W        W37947   2.025  16.332   0.985  0.2110 -0.1573  0.0488
22479W        W37948   0.082   1.258   3.396 -0.0430 -0.0186 -0.0042
22480W        W37949  14.775  15.422  13.998  0.0680  0.0281  0.2536
22481W        W37950  13.169   8.065  10.913 -0.4536 -0.3314  0.0672
22482W        W37951  17.622  14.452   3.484  0.4199 -0.0632 -0.1456
22483W        W37952  13.624  15.995  13.880 -0.2935  0.2206 -0.0268
22484W        W37953  18.505  17.803  10.946  0.2871 -0.0141 -0.1038
22485W        W37954  16.029   6.354  13.404 -0.3588  0.2573 -0.0062
22486W        W37955   1.631   4.825   1.707  0.0029 -0.0404 -0.0600
22487W        W37956   2.371   2.593  11.490 -0.3007  0.0311  0.2707
22488W        W37957  10.713  14.076  12.713 -0.2732  0.3930  0.2265
22489W        W37958   3.387  18.347   2.119 -0.2429  0.1033 -0.1770
22490W        W37959  10.090   4.457   4.687 -0.0085  0.2278 -0.0377
22491W        W37960  17.741   3.374  11.920 -0.2288  0.0855 -0.4404
22492W        W37961  10.832   4.278   2.896  0.1801  0.0391  0.2158
22493W        W37962  10.767  16.419   5.073  0.3573 -0.2726  0.2409
22494W        W37963   3.744   0.700   4.948 -0.1819 -0.1047  0.2198
22495W        W37964  13.599  14.236  11.679  0.0181  0.0151  0.1459
22496W        W37965  17.497  13.309   1.922  0.1082  0.1893  0.1313
22497W        W37966  13.609   8.580  11.868  0.0829 -0.1875  0.0780
22498W        W37967  13.390   6.090  12.620  0.0111  0.1536 -0.2133
22499W        W37968  16.066  13.702  12.201 -0.1354  0.2735 -0.0701
22500W        W37969   9.419  15.179   0.433  0.0131 -0.0329  0.0258
22501W        W37970  12.034  13.457  11.911 -0.2202  0.0398  0.0913
22502W        W37971   4.386  16.856  15.514 -0.0990 -0.3116 -0.2802
22503W        W37972   4.860  12.036   4.291  0.2649 -0.0188 -0.1855
22504W        W37973  14.953  15.875   1.497 -0.3262 -0.0674  0.1787
22505W        W37974  18.195  12.298  12.652  0.2859  0.2927 -0.1314
22506W        W37975  17.447  14.448   1.526 -0.2866  0.2204 -0.0247
22507W        W37976   6.499   7.100   5.994 -0.3011  0.1357 -0.2005
22508W        W37977   4.436  15.349  14.253 -0.2696 -0.0238 -0.0040
22509W        W37978   4.239   3.874   4.935  0.0501  0.0621 -0.3400
22510W        W37979  12.680   6.008   1.636  0.2141  0.1125  0.1694
22511W        W37980   4.695  17.806   2.093 -0.2896 -0.0056  0.0250
22512W        W37981  16.203   4.547   1.571  0.0387  0.1682  0.0140
22513W        W37982  15.542   2.310   4.260  0.0268 -0.0113  0.0399
22514W        W37983  14.489  14.465   2.272  0.1563 -0.1040  0.2934
22515W        W37984  12.171  16.119   2.720 -0.0378 -0.1373  0.2170
22516W        W37985  10.800  13.647  13.202  0.0781  0.1037  0.0667
22517W        W37986  16.850  18.265  14.122  0.1963  0.0094 -0.2156
22518W        W37987   3.881  16.963  12.110 -0.1767  0.0962  0.1450
22519W        W37988   2.381   3.913   3.089 -0.3495  0.1920  0.2506
22520W        W37989  12.422  17.662   1.536  0.2275 -0.1100  0.0652
22521W        W37990   4.529   0.376  13.435  0.0210 -0.0258 -0.1673
22522W        W37991   2.727  11.282  13.242  0.0147 -0.1819  0.1876
22523W        W37992  10.592   8.412  10.813 -0.0466 -0.0038  0.2891
22524W        W37993   6.587   9.344  13.822 -0.1269 -0.0495  0.0609
22525W        W37994   5.715   6.953  11.703  0.0104 -0.2565  0.1715
22526W        W37995   7.833   5.238   1.769  0.0131  0.1410  0.1270
22527W        W37996  18.388   0.800   9.182 -0.2286 -0.2004  0.0180
22528W        W37997   0.846  11.587  15.003 -0.2125  0.3341 -0.0507
22529W        W37998  14.176   4.064  12.470 -0.1980  0.3553 -0.0715
22530W        W37999  12.875   5.568  13.288  0.2781 -0.0602 -0.1475
22531W        W38000  16.236  12.229  14.248 -0.0744  0.1465 -0.1199
22532W        W38001   1.739   0.905   0.151 -0.1265 -0.0422 -0.0297
22533W        W38002   9.731   0.487  11.319 -0.0747  0.1726 -0.0832
22534W        W38003  15.333   7.290  14.783 -0.1462  0.0221 -0.0641
22535W        W38004  14.693   2.680  11.499 -0.0514  0.1872  0.1311
22536W        W38005   0.501   5.854  13.338 -0.1563 -0.0785  0.1070
22537W        W38006   0.633   7.369  15.491  0.0581 -0.2923 -0.2216
22538W        W38007   8.239   7.883   0.194  0.1140 -0.1659 -0.0604
22539W        W38008   2.901   5.032  14.393  0.6539  0.2279 -0.0141
22540W        W38009  16.351   1.181  11.690 -0.0849  0.1667  0.1642
22541W        W38010   3.136  16.991   2.771 -0.1588 -0.2649  0.0612
22542W        W38011   3.742  11.761   5.230  0.0284 -0.1913  0.1808
22543W        W38012   5.238   7.307   3.612 -0.0046 -0.1439  0.1383
22544W        W38013  17.602   7.610   3.977 -0.0218  0.0705 -0.0664
22545W        W38014   5.923   6.075  13.317 -0.0536  0.1271  0.3357
22546W        W38015   9.282   8.995   1.199 -0.0284  0.1919  0.2472
22547W        W38016   1.637  11.028  14.953 -0.0871  0.0419 -0.0265
22548W        W38017  11.468  11.787   2.006 -0.0036  0.0778  0.0271
22549W        W38018   6.318   0.733   2.918 -0.1987 -0.4666  0.1897
22550W        W38019   3.909   3.755   4.532  0.1644  0.1071  0.0747
22551W        W38020   7.993   4.014   0.898  0.3833  0.0782  0.4422
22552W        W38021   6.289  10.288  15.232  0.0679 -0.0970  0.2144
22553W        W38022   7.425   8.109  13.711  0.1434 -0.3438  0.0022
22554W        W38023   4.511   8.516   2.060  0.0839  0.1459  0.0607
22555W        W38024   1.276   4.699   1.145 -0.1806  0.3196 -0.0121
22556W        W38025  13.861  13.999  12.013 -0.0151 -0.0403 -0.0229
22557W        W38026   2.386  11.447   5.225 -0.0583 -0.3296  0.2230
22558W        W38027  17.698  12.167   3.911 -0.6129 -0.0484  0.2215
22559W        W38028   9.924   5.410   1.336  0.0473 -0.2216  0.2241
22560W        W38029  17.049   4.400   4.959 -0.0675  0.1522  0.2573
22561W        W38030   6.324  12.338  13.662  0.0262  0.0132 -0.0553
22562W        W38031  15.191   7.301   0.828  0.0304 -0.0874 -0.0318
22563W        W38032  15.279   4.937   3.043 -0.0019 -0.0628  0.0498
22564W        W38033  12.324  16.880  14.902 -0.1305 -0.2231 -0.0015
22565W        W38034   5.975  13.555   3.687  0.1493 -0.0467  0.1846
22566W        W38035   0.405   1.735   3.405  0.3142 -0.0692  0.0380
22567W        W38036   5.580  15.304  14.948  0.1881  0.0345  0.0597
22568W        W38037  10.753   5.172   4.507 -0.1034 -0.3621 -0.1378
22569W        W38038   3.502  14.619  13.507  0.1743  0.2386 -0.1697
22570W        W38039  17.834  13.803   1.795 -0.1264 -0.1418  0.1782
22571W        W38040  14.705   1.844  11.048 -0.0473 -0.0976 -0.1707
22572W        W38041   5.285  18.191  14.785 -0.1998 -0.2093 -0.4024
22573W        W38042  13.355  13.561   5.547 -0.1114  0.1682  0.0011
22574W        W38043  17.288  18.214  13.314 -0.1963  0.1741 -0.1536
22575W        W38044  10.871  13.546   4.737 -0.0453 -0.2559 -0.0021
22576W        W38045   4.036   0.770  12.745  0.2852 -0.0569  0.2638
22577W        W38046  12.302   1.088   0.776 -0.3920  0.0763 -0.0811
22578W        W38047   8.406   8.685  12.595  0.5528 -0.2542  0.1765
22579W        W38048  12.787   3.308   4.653 -0.0658 -0.0862 -0.0739
22580W        W38049   2.120   3.273  11.543  0.0810 -0.0203 -0.1383
22581W        W38050   8.323   1.459   3.676  0.0107 -0.3278  0.1010
22582W        W38051   4.063  15.866  13.139  0.0976 -0.0216  0.2594
22583W        W38052   6.790   1.308   4.693  0.3131 -0.0245 -0.1995
22584W        W38053   9.758  16.539   2.904 -0.1041 -0.0825  0.0836
22585W        W38054  18.529   2.708   0.459  0.0392  0.1216  0.2825
22586W        W38055   0.691  10.703   2.880  0.0058 -0.1107 -0.1070
22587W        W38056   1.366   6.424   4.864  0.4680  0.1077  0.0521
22588W        W38057   3.938   0.578   4.474  0.4568 -0.1607 -0.3075
22589W        W38058   5.386   7.696  11.252 -0.0474 -0.0130  0.1029
22590W        W38059  12.764   4.438  11.927  0.2308  0.0400  0.0186
22591W        W38060   7.122   7.648  13.708 -0.4669  0.2068  0.1021
22592W        W38061  15.598  15.351  12.602  0.0343 -0.1936 -0.1901
22593W        W38062   6.293   2.403  11.882 -0.4481 -0.1112 -0.1452
22594W        W38063   7.897  10.972  11.678  0.1359  0.3091 -0.0912
22595W        W38064   5.743   5.554  10.961 -0.1019 -0.3630 -0.4461
22596W        W38065  11.960  18.639  13.023  0.1332 -0.1305  0.1120
22597W        W38066   9.982   1.578   1.879  0.1209 -0.0330 -0.1766
22598W        W38067   1.360   9.293   0.683 -0.1092 -0.1783 -0.1544
22599W        W38068  17.900  12.234  15.257  0.1068  0.4333  0.2126
22600W        W38069  14.079   6.356   0.842  0.0359  0.3195  0.0070
22601W        W38070  13.063  10.883  12.590  0.2562  0.1765 -0.0913
22602W        W38071  18.641   2.359  13.351 -0.0115 -0.2443 -0.2609
22603W        W38072  14.767  18.378  14.712  0.1782 -0.3168 -0.1819
22604W        W38073  13.103  11.462  14.213 -0.0057 -0.0852 -0.3261
22605W        W38074   6.793   4.304  10.667 -0.1730  0.3845  0.0526
22606W        W38075   2.811  10.243   3.388  0.2662  0.1008 -0.0611
22607W        W38076  15.435   0.813  13.131  0.3183  0.1491  0.2117
22608W        W38077   4.806  10.262   5.471  0.3332 -0.0140 -0.0172
22609W        W38078   8.979  17.801  11.418 -0.2760  0.4204 -0.1362
22610W        W38079   7.234   7.583  14.193 -0.0333 -0.0227  0.1937
22611W        W38080   8.865   4.059   5.130 -0.0576  0.1495  0.0816
22612W        W38081  16.832  16.701   0.843  0.1763 -0.2327  0.3445
22613W        W38082   2.102  15.766   3.819  0.3835  0.0292  0.2899
22614W        W38083   0.100  13.030  14.036 -0.1685 -0.1902  0.0366
22615W        W38084   8.293   9.712  12.250  0.1164  0.2888  0.4097
22616W        W38085  15.218   3.027   3.343  0.1890  0.2894  0.1584
22617W        W38086  12.724   3.135  11.500  0.1050  0.1021  0.1725
22618W        W38087  16.599  17.736  14.882 -0.1783 -0.0201 -0.0455
22619W        W38088   5.916   7.665  14.230 -0.0003 -0.1176  0.1974
22620W        W38089  12.535  16.750  12.964 -0.3475  0.1529  0.2056
22621W        W38090   3.275  12.014   3.256 -0.0707 -0.0672  0.0791
22622W        W38091   3.484  13.490   3.832  0.2126 -0.0122 -0.1191
22623W        W38092  17.495   2.515  11.000 -0.1545  0.5894 -0.0089
22624W        W38093   0.484  17.388  10.966 -0.2776  0.0694  0.1684
22625W        W38094  17.473   9.065   0.399 -0.3121  0.1197 -0.2770
22626W        W38095   8.227   4.465   1.545  0.2610  0.0998  0.0173
22627W        W38096  10.075   8.617  13.358  0.0532 -0.2762  0.0324
22628W        W38097   9.952   3.889  13.023 -0.0821 -0.1883 -0.1812
22629W        W38098   9.052   5.699  13.381 -0.2216 -0.0875  0.3719
22630W        W38099   2.225   8.983   2.864  0.1185  0.2734  0.1425
22631W        W38100   5.512   4.755  13.294  0.0030  0.2461  0.2349
22632W        W38101   1.819  16.465  10.936 -0.0219  0.2285  0.3980
22633W        W38102   2.742  17.668  15.452  0.1377  0.1242 -0.1499
22634W        W38103   4.835   4.630   3.996  0.3679 -0.0047  0.0362
22635W        W38104   6.478   7.501  15.350  0.2342 -0.2668  0.1894
22636W        W38105   0.280  16.338  10.636  0.0502 -0.1680  0.1097
22637W        W38106  14.334   1.327   9.707 -0.0200  0.2263 -0.0941
22638W        W38107  17.965   3.214  13.086 -0.1285 -0.0240 -0.1553
22639W        W38108   8.358  15.797  14.376  0.0635  0.1120  0.2824
22640W        W38109   9.828  10.538   3.427 -0.0317 -0.0004 -0.0283
22641W        W38110  13.948  17.807   4.077  0.0244  0.4609  0.2377
22642W        W38111  16.584   0.589   1.040  0.2518 -0.0480  0.2273
22643W        W38112   4.162  10.568   2.937  0.2051  0.1082  0.1202
22644W        W38113  18.521  10.563   4.889  0.1505  0.3972 -0.0791
22645W        W38114  10.186   6.032  12.345 -0.3752  0.0544 -0.1034
22646W        W38115  11.439   1.509  11.857 -0.0813  0.0565  0.0155
22647W        W38116  18.037   8.035   1.970  0.0491  0.2196  0.0480
22648W        W38117   7.349   6.158   3.725 -0.1561 -0.1282 -0.1555
22649W        W38118  18.332   2.067   3.102 -0.0433  0.1552  0.1002
22650W        W38119   0.770   0.894   4.535 -0.2392 -0.0468 -0.2737
22651W        W38120   9.912  11.506   3.147  0.2367  0.0121 -0.2222
22652W        W38121   9.043  12.686  13.321  0.1357  0.1890 -0.0517
22653W        W38122  17.690   7.663  15.764 -0.0741  0.2505  0.0894
22654W        W38123  13.509   4.390   3.032 -0.1504 -0.0008 -0.0643
22655W        W38124   2.062  14.884  12.459 -0.0235  0.1066 -0.0082
22656W        W38125  18.200   7.896   0.670  0.0418  0.1122  0.3454
22657W        W38126   2.133   2.243  15.214 -0.2460 -0.0706 -0.1749
22658W        W38127  10.177  16.527   2.509  0.2151  0.0016  0.2302
22659W        W38128   4.593   5.854   0.530  0.1570 -0.1846 -0.1845
22660W        W38129  12.789  12.023   9.949 -0.0307 -0.0269  0.1142
22661W        W38130   6.330   9.010   3.244  0.0940 -0.0323  0.0002
22662W        W38131   3.980   5.738  14.703 -0.0246 -0.0514  0.2719
22663W        W38132   0.706  15.101  13.738  0.0328 -0.0362  0.2275
22664W        W38133   8.406  13.549   5.823  0.0856  0.2886 -0.0357
22665W        W38134  10.197  16.916   3.482 -0.0456 -0.0601 -0.2871
22666W        W38135   4.988  10.838  12.602  0.3504  0.1201  0.0540
22667W        W38136   8.816  16.910  14.593  0.0360 -0.0299  0.1037
22668W        W38137  10.197  13.043  12.922  0.2509 -0.3022 -0.1087
22669W        W38138   0.325   3.741  14.539  0.0702  0.2025  0.0589
22670W        W38139   7.495   5.171   2.217 -0.1132 -0.0991 -0.0609
22671W        W38140   4.588  12.826   3.837  0.0264  0.5047 -0.2386
22672W        W38141  17.704   6.076  11.140  0.1300 -0.1275  0.0159
22673W        W38142  12.704  10.449   2.167  0.0946  0.0616 -0.1060
22674W        W38143   9.323  15.325   4.700  0.0743  0.0294 -0.1260
22675W        W38144   2.587  12.690  15.486  0.0462  0.0092 -0.1588
22676W        W38145   3.844   9.523   4.589  0.3649  0.1333 -0.1641
22677W        W38146  10.796  15.304   3.920  0.2023 -0.1893 -0.0961
22678W        W38147   0.986   8.115  15.169  0.3087  0.4750 -0.4405
22679W        W38148  14.010  12.499   0.631  0.1058 -0.0143  0.3278
22680W        W38149  14.125   1.324  12.762 -0.0946  0.0436  0.1015
22681W        W38150  16.946   1.869  14.119 -0.1090 -0.0045  0.1262
22682W        W38151   3.607  14.954   1.498 -0.1094  0.1872  0.2562
22683W        W38152   5.719  12.440   2.974 -0.0497 -0.0823  0.0774
22684W        W38153   6.431  13.390  10.984 -0.1290 -0.2349 -0.0676
22685W        W38154   6.978  11.710   4.130  0.0410 -0.1821 -0.0558
22686W        W38155   8.273   6.316  13.089  0.1179 -0.1179  0.1961
22687W        W38156   7.211  12.771   5.536 -0.0462  0.1204 -0.1704
22688W        W38157  14.861  12.020   2.429 -0.2190 -0.4473 -0.3750
22689W        W38158   9.677  14.907   2.590  0.2875  0.1835 -0.2178
22690W        W38159   8.408  17.014   0.198 -0.1163 -0.0888  0.0461
22691W        W38160   3.934  15.953  11.696 -0.0859  0.1130 -0.1870
22692W        W38161  10.182   1.758   2.368 -0.1028  0.2693  0.0428
22693W        W38162  17.462   9.237   4.342 -0.1819 -0.0153  0.0049
22694W        W38163   2.032  12.584   5.621  0.2837 -0.2653 -0.1135
22695W        W38164  10.060   5.839  13.000  0.3151  0.3866  0.3403
22696W        W38165  17.767   1.250  11.452  0.1383 -0.1470  0.0125
22697W        W38166  11.130   8.233   1.906  0.0533 -0.2330  0.1415
22698W        W38167   8.240  12.879   2.572  0.0501  0.0643 -0.1306
22699W        W38168   5.176   5.538   4.108  0.0646 -0.1766  0.0107
22700W        W38169   9.134   3.122   4.930  0.2613 -0.1226  0.1548
22701W        W38170   2.659   3.130  10.948 -0.0617  0.0618  0.0062
22702W        W38171   7.172  14.632  14.668 -0.2579 -0.0241  0.0777
22703W        W38172  17.506   0.147  14.761 -0.4386 -0.4153 -0.1540
22704W        W38173  13.192   5.748   4.755  0.3334 -0.1756  0.0060
22705W        W38174   1.515   1.468   3.465  0.0190  0.2033 -0.0699
22706W        W38175  12.561  15.539   3.401 -0.2057 -0.0348  0.0121
22707W        W38176   3.057  16.801   4.570 -0.0553  0.0632  0.0462
22708W        W38177  13.156   5.409   0.907 -0.2865  0.3229 -0.1890
22709W        W38178   7.872  18.514   0.478 -0.0028  0.1236  0.2526
22710W        W38179  11.780  11.593  12.924 -0.3470 -0.1145  0.3101
22711W        W38180  16.984  10.898  14.325  0.2653  0.1400  0.2723
22712W        W38181   8.305   6.026   4.780  0.1197  0.2377  0.0689
22713W        W38182   4.298   2.278  14.315  0.0024  0.0877  0.2803
22714W        W38183   3.244  12.991   3.067 -0.0451  0.0869  0.2724
22715W        W38184  11.634  10.784   4.405 -0.1247  0.0982  0.0922
22716W        W38185  15.510   2.883   5.168  0.2063 -0.0768  0.0074
22717W        W38186  15.104   2.955   2.512 -0.0302  0.0786 -0.0139
22718W        W38187   3.420   9.908   1.007 -0.0324 -0.1204  0.0360
22719W        W38188   8.705   6.956   5.932  0.0507  0.2796  0.2762
22720W        W38189   4.655  15.899   1.378 -0.1286  0.2195 -0.1306
22721W        W38190   5.876  17.417   2.668 -0.1692  0.4256  0.1195
22722W        W38191   8.454   9.198   9.890  0.2849 -0.1671  0.1435
22723W        W38192   2.052   3.177   4.802 -0.1779  0.2120  0.0243
22724W        W38193  15.364  16.555  10.839 -0.0013 -0.2398  0.1416
22725W        W38194  14.228  17.876   3.037 -0.0161  0.1180  0.1882
22726W        W38195   8.425   4.603   3.558 -0.0061  0.1900 -0.0190
22727W        W38196  13.748   9.249  10.567  0.5271  0.2617 -0.3485
22728W        W38197   0.518   2.945  14.011 -0.0308  0.0032 -0.0079
22729W        W38198   5.128   1.523   4.345  0.0835 -0.0421 -0.2874
22730W        W38199   5.544   3.312   3.125 -0.1535 -0.1229  0.4540
22731W        W38200   5.228  11.459   1.711 -0.0099 -0.1633 -0.2920
22732W        W38201  13.442  13.420  11.576 -0.0367  0.0826 -0.4836
22733W        W38202   9.241  12.037   4.587  0.0535 -0.0887 -0.0399
22734W        W38203   7.574  12.585   5.175 -0.1723 -0.0130 -0.0620
22735W        W38204  11.927  13.504  14.660 -0.0176 -0.2551 -0.2061
22736W        W38205  14.069   9.269  10.947 -0.1193  0.0658  0.0814
22737W        W38206  10.208  13.593  11.948  0.1232 -0.2992 -0.3263
22738W        W38207   1.936   5.169   2.932 -0.2035 -0.0036 -0.3109
22739W        W38208  16.115   0.740   0.605 -0.1029  0.1333  0.2160
22740W        W38209  13.863   3.730  11.560 -0.0301 -0.0040  0.2148
22741W        W38210  12.109  10.817   3.110  0.2466 -0.4942  0.0442
22742W        W38211   8.720  14.076   5.128  0.0879  0.2066  0.5327
22743W        W38212  10.687  12.208  11.442 -0.1366  0.2263 -0.2955
22744W        W38213  15.115   4.798  13.274  0.1057  0.1720 -0.0145
22745W        W38214  11.627  17.083   4.997 -0.0489 -0.0913 -0.2505
22746W        W38215   1.878  18.579  15.536 -0.0853 -0.2116 -0.1689
22747W        W38216  16.064   0.590   1.230 -0.0060  0.0899 -0.0098
22748W        W38217   3.505   1.111  12.321  0.0088 -0.0013 -0.2195
22749W        W38218  13.035   1.576  14.592 -0.2601 -0.1470 -0.3456
22750W        W38219  16.101   3.257  14.360 -0.2237  0.0944 -0.1304
22751W        W38220   3.993   2.420   1.665 -0.0561 -0.1015 -0.0363
22752W        W38221  15.186   5.759   9.917  0.2151 -0.1819 -0.3741
22753W        W38222  12.618  11.058  13.444  0.1285  0.1359 -0.1181
22754W        W38223   6.787  10.004   6.208  0.0062 -0.0177  0.1236
22755W        W38224   6.131  16.440  10.662  0.2497 -0.1918 -0.2229
22756W        W38225   2.492  13.569  13.523  0.2868 -0.1865  0.2689
22757W        W38226  14.492  17.996  15.729  0.1597  0.0548 -0.0599
22758W        W38227  16.715  11.051  12.412  0.0516 -0.0479  0.3281
22759W        W38228  14.657   4.264   3.629  0.2584 -0.3362  0.1081
22760W        W38229  16.859   5.296  13.623 -0.1117  0.3754 -0.1651
22761W        W38230   5.143   0.580  15.002 -0.0316 -0.0283  0.0028
22762W        W38231   2.886  15.347   5.529  0.1075  0.0018 -0.0008
22763W        W38232   0.949   8.836  12.180 -0.0214 -0.2627 -0.1093
22764W        W38233   9.891   2.343   0.092  0.0240 -0.0688 -0.0449
22765W        W38234   9.941  10.378  13.666 -0.1111 -0.0661 -0.0604
22766W        W38235   0.925   7.311   1.632 -0.0898  0.1874  0.0363
22767W        W38236  13.822   5.039   2.816  0.2365 -0.0015  0.2301
22768W        W38237   5.086  13.774   4.957 -0.1367 -0.1079  0.1283
22769W        W38238   2.938   0.114   2.696 -0.0839 -0.0802  0.0459
22770W        W38239   6.515  13.589   3.722 -0.0068 -0.0703  0.0987
22771W        W38240  12.591  17.801  13.145 -0.3991 -0.0982  0.0414
22772W        W38241   2.545   5.468  13.207 -0.1373  0.2408  0.1408
22773W        W38242  13.384  12.039   5.487 -0.0958  0.1392 -0.0200
22774W        W38243  16.979   2.875   4.794  0.1212  0.1253  0.2458
22775W        W38244  16.921  16.609   1.761 -0.1129  0.1038  0.0675
22776W        W38245  10.348  12.901   4.329 -0.1952 -0.1593  0.3674
22777W        W38246  13.152   4.201   4.826 -0.1103  0.1188  0.2794
22778W        W38247   1.196   1.300  12.859  0.0622 -0.0719  0.1129
22779W        W38248   0.471   6.281   3.705 -0.0217  0.0060  0.1032
22780W        W38249  15.786  11.343  12.512 -0.1836  0.0279  0.1222
22781W        W38250  13.970   7.409   3.254  0.1432  0.0277 -0.2344
22782W        W38251   2.414  17.913   4.625  0.3039  0.0392 -0.4151
22783W        W38252  10.336  17.685   2.928  0.1398  0.0839  0.2322
22784W        W38253  17.381  11.383   0.176  0.0982 -0.1592 -0.1722
22785W        W38254   4.739  13.760   1.748  0.2256  0.1927 -0.1866
22786W        W38255   5.361  16.344   3.836 -0.2425  0.4914 -0.1231
22787W        W38256  10.239   7.917  12.915 -0.2872 -0.0552 -0.3012
22788W        W38257  18.123   0.183  13.047  0.0722 -0.0877  0.0864
22789W        W38258  14.611   1.954  15.402  0.4009 -0.0634  0.1647
22790W        W38259  11.513   7.711  13.834 -0.0710  0.1384  0.0005
22791W        W38260   3.119  14.698   4.912 -0.2918 -0.1675  0.0876
22792W        W38261  13.772   8.291   0.068  0.1756  0.0729 -0.1851
22793W        W38262  11.813  14.607   1.377 -0.1895  0.1129 -0.0149
22794W        W38263  12.663   5.988   0.785 -0.0464 -0.1469 -0.0957
22795W        W38264   8.820  13.601   2.617 -0.2252  0.0494 -0.2454
22796W        W38265   2.885   1.706   1.709 -0.0645  0.0376 -0.0415
22797W        W38266   1.666  10.971   2.396 -0.0125  0.1503  0.3421
22798W        W38267   4.296  14.367  15.684 -0.0856 -0.2681  0.0566
22799W        W38268   2.442   9.001   1.450 -0.1217 -0.1335 -0.2115
22800W        W38269   3.774   4.339   0.481  0.2628 -0.1301 -0.3336
22801W        W38270  17.321   1.839   1.324 -0.0635  0.1218 -0.0445
22802W        W38271  11.541   7.474  11.991 -0.1538  0.3760 -0.0466
22803W        W38272   2.363  17.125   2.956  0.2500  0.0235 -0.3276
22804W        W38273  15.866   6.557   5.071  0.1063 -0.2357 -0.0429
22805W        W38274   0.943   7.102  11.100 -0.1252 -0.1699  0.2839
22806W        W38275   5.230  11.967   1.925  0.2431 -0.2656  0.0544
22807W        W38276  16.997   7.697  14.659 -0.0317 -0.1518  0.2287
22808W        W38277  11.863  18.356  15.598 -0.0434 -0.0758  0.1807
22809W        W38278  13.157   2.006   0.457 -0.2265 -0.0884  0.2286
22810W        W38279   3.739  15.384  12.227 -0.2901 -0.4914  0.0482
22811W        W38280   6.524  14.808   3.588 -0.2740  0.1407 -0.0546
22812W        W38281   0.194  14.256  11.791  0.2972  0.3646  0.2538
22813W        W38282  14.001  12.177   3.588  0.0481  0.2100 -0.2976
22814W        W38283  14.786   9.498  13.269 -0.1501 -0.0423  0.0597
22815W        W38284  14.850  18.228   3.255  0.2265  0.0443  0.0946
22816W        W38285  11.967   6.421   2.245  0.1720 -0.5831  0.1557
22817W        W38286   7.210   9.979  10.407  0.1347  0.0598 -0.2190
22818W        W38287  14.642   9.549   1.411 -0.3248  0.0759 -0.1913
22819W        W38288  13.398   2.129   0.923 -0.0179  0.2540 -0.1077
22820W        W38289  14.333  15.262  12.277  0.0430  0.2435  0.0523
22821W        W38290  10.059  17.687  11.894  0.2068  0.0870 -0.2079
22822W        W38291  10.359   9.254   3.835 -0.0464 -0.0706 -0.0433
22823W        W38292   0.726   4.331  15.267 -0.3479  0.0415  0.1044
22824W        W38293  14.965   8.968  10.243 -0.1799 -0.0347 -0.1333
22825W        W38294   0.178   0.117   4.370 -0.1983  0.1844  0.2360
22826W        W38295   2.559   9.293  13.077 -0.1801 -0.0846  0.1516
22827W        W38296   9.518   7.643   0.157  0.0778  0.2329 -0.1900
22828W        W38297  10.556   9.856  12.719  0.0846 -0.1124  0.3382
22829W        W38298   7.357  12.585   4.613 -0.0412  0.0335 -0.1445
22830W        W38299   0.221  15.907  14.616  0.0212 -0.1920  0.0425
22831W        W38300   6.958   3.089  15.285  0.0464  0.2445  0.1752
22832W        W38301  13.766   3.746  12.896  0.0978  0.1406  0.1540
22833W        W38302  16.102   9.675  11.296 -0.1900 -0.2773  0.1138
22834W        W38303   1.103   5.395   1.736 -0.0200  0.0497 -0.1925
22835W        W38304  14.429   1.785   2.830 -0.0757  0.2152 -0.3008
22836W        W38305  14.637   1.642   4.333 -0.1168 -0.2465  0.0062
22837W        W38306   6.572   2.095   3.314  0.1978 -0.1028  0.1691
22838W        W38307  17.926  12.645   3.791 -0.0033  0.3709  0.1066
22839W        W38308  13.895  12.160  11.788  0.0075  0.1316  0.2081
22840W        W38309  12.459   3.909  15.238 -0.1401 -0.1076 -0.1054
22841W        W38310   1.268   0.003   2.339  0.0239 -0.0160  0.1857
22842W        W38311   8.599   1.320   1.855  0.0571 -0.1785 -0.1981
22843W        W38312  10.414   6.909  12.135  0.1326  0.3874 -0.2180
22844W        W38313  12.633   8.061   4.583 -0.0268  0.0639 -0.2513
22845W        W38314   4.120   7.127   5.603 -0.2297  0.1529 -0.1663
22846W        W38315  13.575   9.268  14.686  0.2751  0.2571  0.2718
22847W        W38316  13.356  11.221  12.048 -0.2143  0.1131  0.1651
22848W        W38317   2.917   1.006  12.866 -0.0305  0.0912  0.0872
22849W        W38318  17.373  16.781   2.656 -0.1386 -0.0113 -0.0497
22850W        W38319  13.566  15.328   0.209 -0.0442  0.2851  0.1011
22851W        W38320   0.712   1.770   0.363  0.0035  0.1272  0.1222
22852W        W38321  15.354   6.849   4.307 -0.3899  0.3500 -0.5535
22853W        W38322  18.144  13.979   4.845 -0.0176  0.1144  0.0290
22854W        W38323   1.151  12.403  13.453  0.0702 -0.1348 -0.0130
22855W        W38324   9.155   0.156   4.750  0.1057 -0.4030  0.3722
22856W        W38325   0.853  16.221  14.249 -0.1572 -0.0952 -0.0429
22857W        W38326   5.678   9.442   5.507  0.1400 -0.1797  0.0584
22858W        W38327  10.594   6.023   3.889  0.1736  0.1391  0.2866
22859W        W38328   8.315  18.086  12.682  0.0668  0.3614 -0.3088
22860W        W38329  14.668   4.276   1.962 -0.1807 -0.0446  0.1883
22861W        W38330   4.812   3.656   1.323 -0.0773  0.1811 -0.0107
22862W        W38331  11.427   1.139  15.427 -0.0152 -0.2334  0.1354
22863W        W38332   0.208   6.336   1.652  0.1050 -0.0971  0.2156
22864W        W38333   6.763  11.949  12.374  0.1202  0.0743  0.0907
22865W        W38334   6.137  10.280  15.736 -0.2424 -0.0112 -0.1420
22866W        W38335   0.119   3.911   3.358 -0.0352 -0.0467  0.0560
22867W        W38336  17.934  17.873   3.781 -0.1358  0.1625 -0.0677
22868W        W38337   3.752   3.902  12.210 -0.0895 -0.2518  0.0190
22869W        W38338   2.687   5.996   4.438 -0.0406  0.1187 -0.0008
22870W        W38339  15.750  16.873   2.827  0.0135  0.0340  0.0203
22871W        W38340   5.702   7.855   0.625 -0.3564  0.2114 -0.1361
22872W        W38341  14.895  16.906   0.781  0.0986 -0.1321  0.0875
22873W        W38342  14.055   0.256  12.607  0.1976 -0.1481 -0.2381
22874W        W38343   1.646  14.878   1.683 -0.1095  0.1710  0.2461
22875W        W38344   5.462  10.598  12.852  0.0902 -0.2126 -0.1308
22876W        W38345  16.285   7.997  13.032  0.0645 -0.2928 -0.1141
22877W        W38346  10.695  11.159  11.126 -0.1849 -0.0926  0.1714
22878W        W38347  15.075   7.070   5.213 -0.1859  0.1180 -0.4488
22879W        W38348  17.920  11.976  13.801 -0.0869 -0.0522  0.0838
22880W        W38349   0.902   8.316  12.332 -0.1810  0.0972  0.3777
22881W        W38350   5.524  13.907   3.424  0.0106 -0.1236 -0.0603
22882W        W38351  18.202   4.848  14.148 -0.1088  0.2352  0.2920
22883W        W38352   3.536   9.353   1.873  0.0334  0.0093 -0.2858
22884W        W38353   3.589  14.144   1.154 -0.1676 -0.4043 -0.2560
22885W        W38354  14.409  14.901  10.857 -0.1059 -0.1203 -0.0911
22886W        W38355   9.727   0.567   9.948  0.0162  0.2465 -0.1693
22887W        W38356   0.876  14.287   2.088 -0.0047  0.1165 -0.1956
22888W        W38357  16.441   3.955   1.510 -0.1398  0.0068  0.0365
22889W        W38358   7.467  14.285  13.446  0.1711 -0.0099  0.3200
22890W        W38359   6.527  10.878  13.125  0.0775  0.2385  0.0060
22891W        W38360  10.342   9.798   2.006 -0.0021 -0.0483 -0.3431
22892W        W38361   1.633  15.463  12.309 -0.5482 -0.1338 -0.1165
22893W        W38362  14.950   2.782   5.078  0.2578 -0.1415  0.0771
22894W        W38363  10.555  12.335  11.882  0.1818  0.0708  0.0744
22895W        W38364  18.640  13.058  14.960  0.0659 -0.3228  0.1713
22896W        W38365  12.582   1.216  14.634 -0.4041  0.0968 -0.0895
22897W        W38366   1.973  13.780  15.056 -0.4095  0.1331  0.2744
22898W        W38367  17.753  17.308   3.762 -0.3469 -0.3478  0.0371
22899W        W38368  16.459  12.066   4.845  0.1901 -0.1759 -0.1948
22900W        W38369  11.202  14.797  12.170  0.1616  0.0144 -0.0429
22901W        W38370   8.022  14.502   0.172  0.0781 -0.0235  0.0022
22902W        W38371  14.310  12.047  12.947  0.2220  0.2387  0.3502
22903W        W38372   3.428   0.060  14.836 -0.0356  0.2887 -0.1352
22904W        W38373   4.665  12.861   5.106 -0.0153 -0.0218  0.5544
22905W        W38374   2.475   8.112   4.943  0.0324  0.0852 -0.0816
22906W        W38375  12.919   3.253   0.827 -0.0005 -0.1533  0.1553
22907W        W38376   8.343  11.312  13.913  0.2269  0.3130 -0.0149
22908W        W38377  12.644  14.076  12.595 -0.3539 -0.1553 -0.1515
22909W        W38378  15.856  15.477  11.576 -0.1353 -0.0275  0.0950
22910W        W38379   0.922   3.391   9.575 -0.0383 -0.1590  0.3108
22911W        W38380   7.308  17.112  10.770  0.2534 -0.0776  0.1439
22912W        W38381   9.633   3.133   3.834 -0.2034 -0.0106  0.0526
22913W        W38382   8.859  15.109   3.092  0.3711  0.2760 -0.2298
22914W        W38383  10.799  10.675  13.090  0.1557  0.0002  0.1029
22915W        W38384  10.406   8.890   2.364  0.2932 -0.2834 -0.0206
22916W        W38385   4.703   7.619   0.366 -0.1681  0.2135  0.0769
22917W        W38386   9.206  12.122   5.657  0.2920 -0.1060  0.4760
22918W        W38387   8.824  12.600   5.433  0.3772 -0.1110 -0.2184
22919W        W38388   6.505  15.715   1.147  0.0464  0.1139  0.2275
22920W        W38389   9.628   9.828  15.715  0.1698 -0.1349 -0.1949
22921W        W38390  11.262  16.620  14.034  0.1034 -0.0838  0.1436
22922W        W38391   0.082   8.009  14.937 -0.1154 -0.2480  0.0843
22923W        W38392  15.459   2.709   0.413  0.0983  0.0461  0.0640
22924W        W38393   8.595  17.168  14.006 -0.2978  0.1407  0.1116
22925W        W38394   1.517   1.068  12.156  0.3596 -0.0059 -0.4256
22926W        W38395   9.831   9.176   3.801  0.2674  0.0354  0.0476
22927W        W38396   5.616   5.361  15.167  0.0312  0.2718 -0.0293
22928W        W38397  16.533  14.973   5.152  0.2484  0.1925 -0.2203
22929W        W38398   4.088   2.861  14.871  0.1041  0.0186 -0.1875
22930W        W38399  16.974   5.726   0.536 -0.0799  0.0011 -0.3210
22931W        W38400   6.398   6.042   2.707 -0.0477 -0.1107  0.1727
22932W        W38401  16.890  17.092   9.497 -0.2355 -0.3644 -0.1705
22933W        W38402   3.902  12.405   4.321  0.0493 -0.0440 -0.4178
22934W        W38403   6.775   2.552   1.572  0.1060 -0.3550 -0.1234
22935W        W38404   1.302  11.819   3.020  0.1638 -0.3965  0.0258
22936W        W38405   5.907   6.953   4.100 -0.2240  0.2419  0.0679
22937W        W38406   1.669   7.189  14.031 -0.0192 -0.2724 -0.3151
22938W        W38407   1.938   6.431   4.893  0.0523  0.4437 -0.0501
22939W        W38408  12.892   4.143  14.990  0.0456 -0.1017 -0.1945
22940W        W38409   9.357  12.198  10.096 -0.0825 -0.0596 -0.2204
22941W        W38410   7.691   4.608   9.877  0.0843 -0.0156  0.1992
22942W        W38411  10.100   9.237   4.461  0.0414  0.1434  0.1150
22943W        W38412  15.447   0.212  11.926 -0.0760  0.2007 -0.1307
22944W        W38413  15.597   6.918  11.122 -0.0224 -0.0428 -0.0974
22945W        W38414  10.957  14.504   5.030  0.1347  0.3965  0.1337
22946W        W38415  18.471  11.205  12.172  0.0937 -0.2145 -0.1489
22947W        W38416  14.249  13.971   4.549 -0.2065 -0.0261 -0.4280
22948W        W38417  12.877   4.847   1.853 -0.1822 -0.1127 -0.0596
22949W        W38418   7.822  13.132  15.390  0.0585  0.0639  0.3502
22950W        W38419   9.349   0.554   4.455 -0.0542 -0.1200  0.0381
22951W        W38420   6.508   7.374   4.624  0.0482 -0.2478 -0.1828
22952W        W38421   0.944   8.977   4.643  0.0885  0.1627  0.1610
22953W        W38422  14.393   1.647   4.785  0.0798 -0.3254  0.0950
22954W        W38423   2.226  12.220  14.163  0.1085 -0.1791 -0.1136
22955W        W38424   8.435  16.176  15.432  0.1348 -0.0447  0.3290
22956W        W38425   3.871   3.598  11.618 -0.0152 -0.0275  0.3521
22957W        W38426   9.678   8.418   2.818 -0.0824 -0.0715  0.1084
22958W        W38427   2.606  12.917  15.054 -0.0358 -0.1519  0.1674
22959W        W38428  18.452   8.081  14.367 -0.0625 -0.1856 -0.0768
22960W        W38429   7.662   7.713  14.517 -0.2236  0.0314 -0.4043
22961W        W38430   2.298  18.402  15.132 -0.5149 -0.0622 -0.1169
22962W        W38431   2.205  12.338  15.632  0.0468 -0.0067  0.3080
22963W        W38432  18.610   8.735  11.054  0.1338 -0.3456  0.0011
22964W        W38433   7.326  16.807  11.639 -0.0579 -0.2682  0.0028
22965W        W38434  16.203   9.903   9.886 -0.2129  0.4472  0.0533
22966W        W38435  15.728  13.939   3.819  0.0330 -0.1656  0.3062
22967W        W38436   2.137  16.103  11.814 -0.0355  0.0167  0.0979
22968W        W38437   5.044   0.391   2.987 -0.0397  0.0556 -0.1045
22969W        W38438  13.112  16.496  15.230  0.2079  0.1795  0.1940
22970W        W38439   1.102  12.313   1.182  0.0461  0.4983  0.0102
22971W        W38440   2.589  14.144   1.046 -0.0425 -0.4376 -0.0365
22972W        W38441  16.971  10.597   2.570 -0.2774  0.4453  0.1606
22973W        W38442  15.494   6.287   5.817  0.3276 -0.0339 -0.2684
22974W        W38443   8.685  13.129   2.422  0.2490 -0.1995 -0.1753
22975W        W38444   0.528  17.397   3.712 -0.0610 -0.0194  0.0627
22976W        W38445  16.263  11.349  13.129  0.0654  0.0435 -0.0117
22977W        W38446  14.111   2.313  14.662  0.2368  0.1816  0.1621
22978W        W38447  10.250   7.837  14.360 -0.1494  0.0054  0.2265
22979W        W38448   1.307   5.659   1.185 -0.1683 -0.2146 -0.2411
22980W        W38449  16.961  16.329   3.527 -0.0032  0.0438 -0.3488
22981W        W38450  14.911   1.987  12.009  0.2672  0.0292  0.2784
22982W        W38451   2.753   5.891  12.435  0.1403  0.0149  0.2312
22983W        W38452  15.216   1.195   3.291 -0.0862 -0.0485  0.1883
22984W        W38453  17.080   2.113   4.323  0.0411  0.2774 -0.0595
22985W        W38454  13.782  18.646   0.938  0.0094 -0.3375 -0.4011
22986W        W38455   9.458   6.309  11.003 -0.2212  0.0157 -0.2040
22987W        W38456   6.894   6.091  10.527 -0.0551  0.0292  0.2665
22988W        W38457   3.295  13.860   3.081 -0.0098 -0.0338  0.0781
22989W        W38458   2.518   7.734   1.084 -0.0499  0.0004 -0.1270
22990W        W38459   8.830   0.187  12.902  0.2537 -0.3320  0.1069
22991W        W38460   4.543   3.664  13.857 -0.0595  0.0371 -0.1866
22992W        W38461   3.162  17.478   1.210 -0.1293  0.1011  0.0407
22993W        W38462   4.805   1.544  11.208 -0.0630  0.0485  0.2835
22994W        W38463  12.643   5.722   3.242  0.0949  0.2120 -0.0355
22995W        W38464  13.913   6.788   2.337  0.1729 -0.1539  0.2515
22996W        W38465   1.620   9.645   4.378  0.0938 -0.1829 -0.0474
22997W        W38466   6.189   8.101  14.602 -0.0534  0.1198  0.3068
22998W        W38467  11.557  11.483   2.554  0.1730 -0.0923 -0.3874
22999W        W38468   9.026  11.432  14.818 -0.0897  0.2154  0.2360
23000W        W38469   3.941   6.944  11.400  0.0137  0.0212  0.1395
23001W        W38470  11.575  13.243   1.867 -0.0726  0.0854  0.1228
23002W        W38471   4.788  15.399   1.169  0.1287 -0.0764 -0.0395
23003W        W38472   9.542   4.351  12.950 -0.1400 -0.1432  0.1770
23004W        W38473  18.265   7.529   2.199 -0.2580  0.1608 -0.1349
23005W        W38474  16.356   4.457  12.620  0.2326  0.0645  0.0437
23006W        W38475   1.450   7.180   3.272 -0.1517  0.0313 -0.2004
23007W        W38476   0.466   0.389   5.571 -0.0893 -0.2332  0.1111
23008W        W38477  16.643   1.992   2.617  0.1337  0.2583  0.0533
23009W        W38478  13.852  14.167  11.277 -0.2920  0.3604  0.0278
23010W        W38479   5.198  14.377   0.878 -0.0943  0.0879  0.2872
23011W        W38480   2.895  11.288   2.126  0.1377 -0.1275 -0.4752
23012W        W38481   4.823   6.423  13.944 -0.3606 -0.1515 -0.2174
23013W        W38482  16.973   5.535   1.721  0.0813  0.0298  0.4923
23014W        W38483  11.996  14.794  14.843  0.0471  0.2521  0.1686
23015W        W38484  15.463  15.124   0.301  0.0477 -0.1870  0.4409
23016W        W38485   2.924   3.711   4.561  0.1105  0.1608 -0.3675
23017W        W38486   2.656   9.030  14.306  0.2980 -0.5907  0.1405
23018W        W38487  11.975   6.295  13.956 -0.1340  0.1586 -0.1028
23019W        W38488  10.296   3.401  11.404  0.0126  0.0743  0.3072
23020W        W38489   4.439   4.146  13.879  0.1339  0.0335 -0.1295
23021W        W38490  14.507  12.232  12.480  0.1243 -0.2393  0.0037
23022W        W38491  12.046   6.197  12.269 -0.0588 -0.3126  0.0507
23023W        W38492  13.856  16.586   0.165 -0.3317  0.2238  0.1126
23024W        W38493  12.362  15.141   3.752 -0.0598 -0.0754 -0.0062
23025W        W38494   0.429  18.646   4.797 -0.2258  0.2243  0.1093
23026W        W38495  18.104   3.718  13.955 -0.2913 -0.0127  0.1138
23027W        W38496  10.097  10.381  11.357  0.5489  0.1130 -0.4011
23028W        W38497   2.653  10.259  14.304 -0.3792  0.3847  0.0683
23029W        W38498  11.274   3.386   3.275  0.2376 -0.0865  0.1757
23030W        W38499   8.826   9.198   1.400 -0.0707  0.2238  0.0922
23031W        W38500  13.524  16.281  13.460  0.2071 -0.1013 -0.0610
23032W        W38501  11.467  13.360  14.378  0.0261 -0.3483 -0.1385
23033W        W38502  13.342  14.329   2.066 -0.2102 -0.0403  0.0709
23034W        W38503  16.527  11.375   3.988  0.1704 -0.1686 -0.2783
23035W        W38504   1.282   0.744   3.680 -0.0387 -0.0236 -0.1386
23036W        W38505   7.996   1.217   2.227  0.0191  0.2795  0.3056
23037W        W38506  12.170  17.183   4.875 -0.1310  0.1638  0.4637
23038W        W38507  13.375  11.734  14.526  0.0655  0.1020  0.1390
23039W        W38508   7.495  13.413  15.105 -0.1514 -0.1448 -0.1130
23040W        W38509  15.907  10.000   5.885 -0.1390 -0.1596  0.3353
23041W        W38510  17.012   5.114  14.101  0.0910 -0.1406  0.0167
23042W        W38511  15.468  10.942  13.785 -0.1889  0.1247  0.1545
23043W        W38512   9.897   3.932   5.917 -0.0863  0.0447 -0.0825
23044W        W38513   9.335   9.854  14.475  0.2875  0.0091  0.0618
23045W        W38514  13.852  15.752  12.893  0.3798 -0.0924  0.2743
23046W        W38515  14.575   7.196   5.290 -0.0083  0.3779  0.1379
23047W        W38516   8.218   6.099  11.430  0.0448 -0.3983  0.1008
23048W        W38517   9.654   8.452  13.471  0.2172  0.0877 -0.0297
23049W        W38518   9.132   8.254  13.646 -0.0441 -0.0599 -0.1883
23050W        W38519  16.351  15.380  15.108  0.2685  0.0116  0.0554
23051W        W38520  15.516   4.458  14.894 -0.3762 -0.0529 -0.4990
23052W        W38521  12.910  16.129   0.367  0.0942  0.0563  0.0949
23053W        W38522  10.585   8.133  15.179  0.2113 -0.2640 -0.1765
23054W        W38523   3.388   7.400  13.082  0.1442  0.0464  0.1125
23055W        W38524  11.388   8.119  11.014 -0.0163  0.0239  0.1513
23056W        W38525  10.140   5.913   4.730  0.2185 -0.1275 -0.1433
23057W        W38526   4.378   1.772  10.737  0.5409  0.1900 -0.0093
23058W        W38527   1.436  13.630  12.374  0.2347  0.1994  0.1660
23059W        W38528  10.951   4.127  12.718 -0.1297  0.0056  0.0009
23060W        W38529  13.460  18.315   1.049 -0.1081 -0.0230 -0.0796
23061W        W38530   2.760  14.637  15.117  0.3150 -0.0231  0.2346
23062W        W38531  17.977   7.875  14.422  0.1479  0.1009  0.1718
23063W        W38532   3.081  11.202  15.037  0.0006 -0.0924 -0.1971
23064W        W38533  17.312  17.888  12.363  0.1924 -0.0792  0.2355
23065W        W38534  17.722   7.753  13.237 -0.1680  0.1163  0.0861
23066W        W38535  17.366  14.074  12.828  0.0308  0.0479 -0.4086
23067W        W38536  10.187  17.317   1.664  0.2358  0.0411  0.0470
23068W        W38537  10.562  10.242   2.240 -0.1508  0.2741  0.0475
23069W        W38538   0.913   2.752   4.402  0.0908  0.1106 -0.2772
23070W        W38539  17.765  12.151  14.324  0.0193 -0.0629  0.2426
23071W        W38540  17.993  10.554   4.711  0.1134  0.0494 -0.1738
23072W        W38541   7.095   1.672   2.199  0.2447  0.2420  0.0989
23073W        W38542  11.084  10.640  11.904 -0.1215 -0.0072 -0.0257
23074W        W38543  14.873   5.596   3.200  0.0045  0.1480 -0.0786
23075W        W38544  16.445  17.724   1.400  0.3169  0.2381  0.1264
23076W        W38545   9.525   6.508   2.914 -0.1196 -0.0176 -0.0177
23077W        W38546   2.092   7.130   4.128 -0.1662  0.2274  0.3570
23078W        W38547  17.991   8.795   1.108 -0.0582 -0.3098 -0.0886
23079W        W38548  14.157   3.021   4.885 -0.1301  0.1581 -0.1518
23080W        W38549  17.810  12.454  14.771  0.2032 -0.3331  0.3586
23081W        W38550  16.102  12.502   0.344 -0.1259 -0.2288  0.0761
23082W        W38551   9.966   8.487   0.561  0.2028  0.3318  0.0199
23083W        W38552   2.370  12.685   9.774  0.1225  0.1203 -0.0675
23084W        W38553   9.715   7.905   1.129  0.1509  0.6172  0.1597
23085W        W38554  11.647  10.416   4.790  0.1892  0.1447  0.0237
23086W        W38555   1.981  15.929  12.318  0.0806  0.2379  0.2586
23087W        W38556   6.957   8.823  11.534 -0.1837 -0.1538  0.1806
23088W        W38557  12.359  12.328   4.158  0.0171 -0.0685  0.0972
23089W        W38558   6.374  16.104   0.764  0.0527 -0.3360 -0.0472
23090W        W38559   9.223   9.673  13.919  0.1160 -0.1746 -0.0020
23091W        W38560   9.334   8.334   1.971  0.2770 -0.1856  0.1914
23092W        W38561   4.336   9.630   0.558 -0.0548 -0.3045 -0.0018
23093W        W38562   8.950  12.094  15.742  0.1964 -0.0951 -0.0401
23094W        W38563   7.903   0.678   4.193 -0.2304 -0.1590  0.0771
23095W        W38564  10.264   1.799  13.173  0.1221  0.2547  0.2579
23096W        W38565  17.247  15.207   1.877 -0.3684 -0.0494  0.3636
23097W        W38566   4.380   8.148  11.748 -0.6884 -0.0983 -0.1089
23098W        W38567   4.003   9.034   5.430  0.2474 -0.0801 -0.0719
23099W        W38568  11.724  13.969   3.700  0.1700  0.0338  0.0099
23100W        W38569  11.910   4.769  11.789  0.1087 -0.0990  0.3725
23101W        W38570  10.857   8.393  15.523  0.6294  0.1403 -0.2593
23102W        W38571  17.219   5.410   0.873 -0.0842  0.2014 -0.2394
23103W        W38572   3.507  11.352  12.764 -0.0616  0.4023 -0.1597
23104W        W38573   3.168   4.478   0.925 -0.0715  0.2177  0.0753
23105W        W38574  17.845   0.208   4.270 -0.0632 -0.0032  0.1801
23106W        W38575  15.224  15.761   2.377  0.5343  0.1029 -0.0409
23107W        W38576  17.966   3.811   4.148  0.1116  0.3193  0.1086
23108W        W38577   7.180   5.264  14.962 -0.0182 -0.1891 -0.2711
23109W        W38578   1.678  16.350  11.997  0.0649 -0.2561  0.1917
23110W        W38579   7.624   7.268  14.267 -0.0006  0.0367 -0.2265
23111W        W38580  16.163  18.422  11.588 -0.0720 -0.0246 -0.4005
23112W        W38581   5.654  12.989  14.057  0.0556 -0.1804 -0.0252
23113W        W38582   8.793  13.356  11.718 -0.1060  0.0406 -0.2068
23114W        W38583   0.716  15.650   0.495 -0.1241 -0.3133 -0.1786
23115W        W38584   0.134   9.853   1.468 -0.0791 -0.2041 -0.1874
23116W        W38585  11.496   1.246   2.001  0.0884 -0.1983  0.3732
23117W        W38586  16.216  16.135   0.426  0.2734  0.1100  0.1221
23118W        W38587  10.150  13.884   3.740  0.0287  0.0002  0.0455
23119W        W38588   1.111   2.033   3.059 -0.0726 -0.2968  0.0417
23120W        W38589   7.923  12.663   6.123  0.2366 -0.2377  0.1453
23121W        W38590   4.698  15.638  12.389  0.2075  0.2431 -0.0757
23122W        W38591  15.664  15.487   4.589 -0.1350 -0.1043  0.0402
23123W        W38592  12.661   7.572   4.844 -0.2517  0.0343  0.3292
23124W        W38593   3.361   1.734   0.579  0.3814  0.1035 -0.1064
23125W        W38594  13.471   3.966  11.266 -0.2900  0.0832 -0.0737
23126W        W38595   0.076   7.942   2.479 -0.2484 -0.3001  0.0221
23127W        W38596  12.046   8.305   2.028 -0.0915 -0.2254 -0.5920
23128W        W38597   9.173  10.844   3.265 -0.1455 -0.0959  0.0633
23129W        W38598  13.102  11.864   3.547 -0.2837 -0.2220  0.1007
23130W        W38599  17.311  14.877   4.408 -0.0061  0.0761 -0.2776
23131W        W38600  12.474   4.822   0.039  0.2503 -0.2266 -0.1378
23132W        W38601   3.106   9.091   2.524 -0.3945 -0.1515  0.1299
23133W        W38602  17.055   0.816   2.317 -0.1341  0.2823  0.1337
23134W        W38603   9.688   6.635  14.408 -0.0476  0.3506  0.2862
23135W        W38604  14.017  14.883  13.702 -0.1386  0.1155 -0.1103
23136W        W38605   4.309  12.668  10.441  0.2610  0.3237 -0.0299
23137W        W38606   5.740   8.074  12.318 -0.0876 -0.1435 -0.1884
23138W        W38607  16.621  16.317   1.486 -0.0298 -0.3487 -0.1376
23139W        W38608   4.545   5.536  10.590  0.5104  0.0775  0.1621
23140W        W38609   1.625   8.570  15.707  0.1532  0.0024  0.0933
23141W        W38610  10.916  13.215   6.183  0.2511 -0.0116  0.0530
23142W        W38611   7.664  17.779  12.960 -0.1987 -0.1812  0.1174
23143W        W38612  16.508  12.769  13.197  0.3758 -0.4669 -0.0452
23144W        W38613   1.382  17.308   0.240 -0.0431 -0.0173 -0.2061
23145W        W38614   2.410   4.826   2.182  0.1288 -0.2572 -0.2228
23146W        W38615  10.744  18.531  14.493  0.0360 -0.0983 -0.3499
23147W        W38616   2.493  16.198   3.114  0.0213  0.0791  0.3578
23148W        W38617   7.402  10.591  11.595  0.3704  0.0314  0.1061
23149W        W38618   3.710   6.217   2.649 -0.1801  0.0224  0.1949
23150W        W38619  12.046   8.269  14.868  0.0920  0.0430 -0.1803
23151W        W38620   7.667  13.032   2.033 -0.2524 -0.2531 -0.1267
23152W        W38621  10.665   3.508  10.690  0.2639  0.1840  0.1689
23153W        W38622  16.137   4.973  12.644 -0.3272  0.2382  0.0054
23154W        W38623  10.207   2.345   1.289 -0.0548 -0.0647  0.0687
23155W        W38624  16.641  11.938  14.938 -0.0189 -0.0132  0.2492
23156W        W38625  12.157   5.837   0.829 -0.3311  0.1994  0.3810
23157W        W38626  12.151  10.121   0.067  0.0254 -0.0572  0.3457
23158W        W38627   6.975   1.905  10.598 -0.1299  0.0597 -0.0862
23159W        W38628  12.557  13.773  11.027 -0.1134  0.0520  0.0313
23160W        W38629   0.965   6.752  13.448  0.1467 -0.1048  0.1704
23161W        W38630   5.565   0.332  14.966  0.0038 -0.0624 -0.2496
23162W        W38631   5.038   0.054   0.445  0.2224 -0.3663 -0.0507
23163W        W38632   9.529   6.778   3.890 -0.0894  0.2929 -0.0829
23164W        W38633   1.159  14.399   4.294  0.1039  0.0588 -0.2465
23165W        W38634  13.914   2.504   5.698  0.2701  0.5583 -0.1511
23166W        W38635   1.220   8.348  11.800 -0.3341 -0.0479 -0.3012
23167W        W38636   5.975  16.783  15.362  0.0943  0.2377 -0.0167
23168W        W38637   4.045   1.335   3.994  0.3092  0.1216  0.1981
23169W        W38638  13.940  14.677   5.385  0.0817 -0.0728  0.1320
23170W        W38639   7.685   9.966  11.685 -0.3966 -0.0689  0.0261
23171W        W38640   5.560  12.507  13.105  0.4291  0.2359  0.4002
23172W        W38641   1.595   9.428   2.837  0.0946  0.0042 -0.7042
23173W        W38642   0.351  10.601   4.146 -0.1537  0.1887  0.2902
23174W        W38643   5.129   4.004  14.728  0.2085  0.0138 -0.1996
23175W        W38644  10.841   3.854   5.983  0.2136  0.2189  0.0962
23176W        W38645   1.720   5.315  15.634  0.2457  0.2191  0.0166
23177W        W38646  18.526   1.753   2.702 -0.2041 -0.0512 -0.0751
23178W        W38647   0.200  12.903   1.255 -0.0995 -0.0552 -0.0020
23179W        W38648   1.433  14.872  11.243 -0.1986  0.0430  0.2266
23180W        W38649  12.680   5.431   0.978 -0.0783  0.1720  0.0417
23181W        W38650   7.076   0.789  10.247  0.5475 -0.1194 -0.0392
23182W        W38651   4.679  10.429  11.422  0.2688  0.0439  0.2720
23183W        W38652   6.836  15.805  13.806 -0.1937  0.0578  0.1709
23184W        W38653  12.075  15.536   4.456  0.1010 -0.1539  0.0073
23185W        W38654  16.799  17.737  15.441 -0.0990  0.2087 -0.0074
23186W        W38655   1.148  15.742  15.221 -0.3818 -0.0733 -0.0262
23187W        W38656   1.163   4.135  13.299 -0.2182 -0.1916 -0.2057
23188W        W38657   0.279  10.737   0.576  0.1128 -0.0628  0.0505
23189W        W38658  13.349   3.974  13.173 -0.2152 -0.0292 -0.0964
23190W        W38659  11.602   2.174  12.575 -0.0135 -0.1850  0.2664
23191W        W38660  18.650  10.863   4.295  0.3372  0.0185  0.2522
23192W        W38661   8.625  18.373   0.244  0.0725 -0.2108  0.1369
23193W        W38662   1.043  17.029   1.561 -0.0690 -0.2144  0.0572
23194W        W38663   9.087  11.495  14.150 -0.0246  0.1696 -0.0322
23195W        W38664   1.959  14.407  11.833  0.0327 -0.2633 -0.1170
23196W        W38665  10.670  13.320   2.108  0.1168 -0.3319  0.0143
23197W        W38666  16.958  15.384   2.307 -0.1004  0.3409  0.2226
23198W        W38667   7.221  14.227   5.589  0.3390  0.1128  0.3769
23199W        W38668   8.184  17.811  11.070  0.2642 -0.1896  0.3663
23200W        W38669   5.254   2.242   0.038 -0.2056 -0.0329  0.0819
23201W        W38670  11.725   5.713   5.313  0.0622  0.6401  0.1365
23202W        W38671   7.311   5.370   5.014 -0.1532  0.1986 -0.0162
23203W        W38672   1.060   2.668   0.329 -0.0315  0.0271 -0.0471
23204W        W38673   8.673  14.681   2.738 -0.0885  0.0546 -0.3098
23205W        W38674  13.388  10.801   0.345  0.6232  0.2532  0.1405
23206W        W38675   7.844  10.554   5.595  0.1758 -0.2313 -0.0834
23207W        W38676   1.683  11.721   4.265 -0.0156 -0.0656  0.0085
23208W        W38677   7.870   8.689  14.861 -0.5261  0.0523 -0.0123
23209W        W38678   6.948   6.946  13.054 -0.1737  0.0522 -0.5364
23210W        W38679   3.229   8.488  12.928  0.0699 -0.1350  0.1681
23211W        W38680  12.508  17.230  15.289  0.1398 -0.1233  0.1069
23212W        W38681  15.572   6.865   3.667  0.2364  0.0419  0.2722
23213W        W38682   1.728   8.258  11.966 -0.0890 -0.4273  0.1297
23214W        W38683   7.562  15.225  11.253 -0.0581  0.0869  0.2067
23215W        W38684   6.353  12.313   4.889  0.2846  0.3124 -0.0780
23216W        W38685  15.335   7.028  13.469  0.0951 -0.0207  0.2213
23217W        W38686   4.358   5.804  11.321 -0.2110  0.1956  0.0745
23218W        W38687   2.868  15.215  13.497  0.0800  0.2772 -0.0443
23219W        W38688   4.956   6.352   5.097 -0.2799  0.1676  0.0760
23220W        W38689   9.496  15.536  14.475 -0.2372  0.1638  0.1865
23221W        W38690  12.755  17.719   0.769 -0.1042  0.3661 -0.2251
23222W        W38691  10.840   9.820   2.265 -0.0685 -0.1451  0.0487
23223W        W38692  16.655   8.922   1.230  0.0163 -0.1484 -0.1836
23224W        W38693  16.186   9.727   2.863 -0.3351  0.0490  0.1994
23225W        W38694  12.177  17.178   5.931 -0.0338 -0.0976  0.1796
23226W        W38695  15.585  11.346   1.978 -0.1768 -0.0812 -0.0893
23227W        W38696   1.430   0.884   1.333  0.0148 -0.0511 -0.0593
23228W        W38697   2.507   3.707  11.023 -0.0264  0.1423 -0.0375
23229W        W38698   7.322   1.848  13.906  0.3197 -0.2761 -0.0793
23230W        W38699   5.863   6.709   3.654  0.0909 -0.0889 -0.0521
23231W        W38700  15.147  15.188   1.581 -0.1854  0.1647  0.0827
23232W        W38701   8.299  16.180   4.686 -0.0127 -0.0450 -0.1917
23233W        W38702   4.138  12.378   1.412  0.1891 -0.1832 -0.0140
23234W        W38703   3.541  17.924   3.902  0.0793  0.1118  0.0547
23235W        W38704  14.458  17.782  10.623  0.2539 -0.1305 -0.0172
23236W        W38705  12.343   8.796   0.896 -0.0148  0.1695 -0.3884
23237W        W38706  10.570   6.661   4.976  0.1235 -0.1506  0.1501
23238W        W38707  11.438   8.957   0.917  0.0695 -0.1814 -0.2497
23239W        W38708   9.468   8.545  15.701 -0.0069 -0.0576 -0.1008
23240W        W38709  13.508   9.055  11.061 -0.0937 -0.0881 -0.0849
23241W        W38710  13.702   1.204   2.541 -0.1677  0.1995  0.1655
23242W        W38711   2.496   7.513   4.162  0.0069  0.0458  0.2179
23243W        W38712  17.706  10.144  15.506 -0.1654 -0.0603  0.0717
23244W        W38713   5.787   7.686  10.993  0.1613 -0.0560  0.6545
23245W        W38714   7.954   3.606   5.114 -0.0711 -0.0238 -0.0685
23246W        W38715   2.060   1.863  12.265 -0.0357  0.1731 -0.3806
23247W        W38716   5.947   3.747   3.969  0.2536  0.0352 -0.2316
23248W        W38717  18.017  17.082  15.118  0.1463  0.1105  0.0007
23249W        W38718   6.524   2.025  12.366 -0.1985  0.3865 -0.0176
23250W        W38719   7.335   3.095  10.787  0.0956  0.4165 -0.0987
23251W        W38720  15.230  16.162  11.298 -0.0816 -0.2903  0.2316
23252W        W38721   4.292  14.362   4.497 -0.0219  0.3741 -0.0168
23253W        W38722  16.162   6.636   3.860 -0.0555 -0.0812  0.0744
23254W        W38723   0.092  12.668   0.548 -0.1326  0.3491 -0.1174
23255W        W38724  15.019   2.266   4.344  0.2028  0.3690 -0.0579
23256W        W38725  14.910  11.347   3.137 -0.0314  0.0578 -0.2024
23257W        W38726  16.199   4.860   3.314 -0.1730 -0.0908  0.0354
23258W        W38727   4.269   1.352  14.552  0.1108  0.0952 -0.0238
23259W        W38728   5.362  12.809  11.621 -0.4381  0.0024 -0.2014
23260W        W38729   9.215   0.004  14.224 -0.0233  0.0700  0.2399
23261W        W38730   5.089  14.048   2.001 -0.3685 -0.0317 -0.0278
23262W        W38731   4.784  10.129  13.050  0.0192  0.0729 -0.1177
23263W        W38732   1.010   2.015  14.359  0.0857  0.0881  0.2208
23264W        W38733  18.058   6.787   2.665 -0.1344 -0.0147 -0.1855
23265W        W38734  12.559  17.098   1.948 -0.0759 -0.0922 -0.2344
23266W        W38735  10.853  14.277   1.414 -0.1961 -0.0639  0.5227
23267W        W38736  14.088   6.751  14.925 -0.0272 -0.0520  0.2768
23268W        W38737   4.093   4.965   3.983 -0.1382  0.1580 -0.0596
23269W        W38738  11.880  16.094  15.319  0.2588  0.1590  0.0206
23270W        W38739   4.169  11.414  12.097  0.2614  0.0118  0.1136
23271W        W38740   0.823  14.576  13.750 -0.3089 -0.2098 -0.0530
23272W        W38741   2.285  10.915   5.153  0.2264 -0.2276 -0.1141
23273W        W38742   1.749  13.853   1.785  0.1686 -0.1786 -0.0552
23274W        W38743  15.073   3.435   4.468 -0.1210 -0.0845  0.0437
23275W        W38744   5.895  13.359   4.891  0.3979  0.0603  0.3049
23276W        W38745   9.597  16.387  14.458 -0.0950 -0.0280 -0.0318
23277W        W38746  16.165   9.155   5.229 -0.1945 -0.1843 -0.3333
23278W        W38747   1.989   2.310   1.027 -0.4349 -0.1767  0.0362
23279W        W38748   9.984   2.891   1.780  0.2759 -0.1575  0.0951
23280W        W38749  15.927   7.541  14.728  0.2035 -0.0358 -0.0485
23281W        W38750  17.539   0.922   1.987  0.0966 -0.2805 -0.0225
23282W        W38751  16.761   5.746   2.888 -0.0896 -0.0753 -0.1364
23283W        W38752   2.323   2.545   1.670  0.0530 -0.0003  0.0343
23284W        W38753  12.331   2.690   4.489  0.1879  0.0780  0.0005
23285W        W38754   9.301   1.071   4.196 -0.0314 -0.2648  0.2977
23286W        W38755   8.285  14.210   1.923 -0.0728 -0.0415  0.1101
23287W        W38756   7.533  14.391  12.100 -0.0512  0.0957  0.1046
23288W        W38757  10.467   0.982  13.968  0.1168  0.1449 -0.1899
23289W        W38758   6.309   4.102  14.177  0.0850  0.3397  0.3306
23290W        W38759  13.894  13.731   5.334  0.0606  0.0736 -0.0264
23291W        W38760   9.336   9.739  12.345  0.1045  0.1341  0.2127
23292W        W38761   9.401   1.525   2.984  0.0627  0.1281  0.0076
23293W        W38762  16.411  13.048  15.615 -0.3139 -0.2410 -0.1843
23294W        W38763  13.183  15.930  13.660  0.2108  0.0703  0.1571
23295W        W38764   0.463   8.559   5.874 -0.1168  0.0472 -0.3006
23296W        W38765   3.151   7.611  15.221  0.0552  0.1341  0.3104
23297W        W38766   5.080   3.779   3.707  0.1839 -0.0453  0.3598
23298W        W38767   3.682   6.945   5.261 -0.0557 -0.1856  0.2286
23299W        W38768   8.625  18.493   1.791  0.1237 -0.0120  0.0103
23300W        W38769   2.342   2.968  14.648  0.1862  0.2587 -0.2763
23301W        W38770  12.067   4.665   5.744 -0.1288  0.2729  0.1267
23302W        W38771   3.806  12.868   3.084  0.0316  0.0525 -0.2516
23303W        W38772   5.052   6.209  10.764  0.0264  0.0866 -0.0379
23304W        W38773   1.489   8.460  13.891  0.2625 -0.0511 -0.3301
23305W        W38774  18.170   0.484   2.607  0.0669  0.2569 -0.1399
23306W        W38775  14.871  11.748   0.837 -0.1464 -0.0427  0.0710
23307W        W38776  10.075   7.933  11.095  0.3280  0.0712  0.0894
23308W        W38777  13.904   2.837  11.988  0.0981  0.0215 -0.0844
23309W        W38778  18.482   2.057  15.582  0.1305 -0.4887  0.3789
23310W        W38779  17.530   0.200  15.281 -0.2067  0.1633 -0.1927
23311W        W38780  13.429   2.984   0.764 -0.1471 -0.0213  0.6937
23312W        W38781  17.940   4.822   0.853 -0.3179  0.0045 -0.0492
23313W        W38782  16.231  10.455  11.524 -0.2211 -0.0888 -0.0446
23314W        W38783  15.938  15.704   1.180 -0.2383 -0.4449  0.0391
23315W        W38784   6.434  17.448   2.751 -0.1455 -0.1252 -0.1483
23316W        W38785   0.767  15.432   1.364  0.0229 -0.0549  0.0052
23317W        W38786   0.736  18.264  15.533  0.0584 -0.0708 -0.2453
23318W        W38787  12.094  16.914  13.332  0.0754  0.0027  0.2948
23319W        W38788   5.211   7.335   1.602 -0.0448 -0.0167  0.2451
23320W        W38789   9.819   9.752   1.155 -0.1533 -0.1719  0.0728
23321W        W38790   0.147   1.477  10.908 -0.1666 -0.2926  0.1364
23322W        W38791  11.249   0.547  12.884  0.3662  0.3017 -0.0303
23323W        W38792   7.890   5.834   2.620  0.0299 -0.0927  0.4664
23324W        W38793   4.065  15.017  14.110  0.0388  0.1715 -0.0992
23325W        W38794   9.768  10.596  14.744  0.1511 -0.2196 -0.1534
23326W        W38795  13.076   9.152  13.309  0.1428 -0.0453  0.3147
23327W        W38796   7.130   8.907  14.430  0.2227  0.3387 -0.0159
23328W        W38797   1.678  15.584  15.170 -0.0533  0.1560 -0.0901
23329W        W38798  12.057   7.807   4.285  0.3528 -0.0186 -0.3963
23330W        W38799   5.461   3.531   6.013  0.1143 -0.0261  0.0682
23331W        W38800   9.650   7.786  15.072  0.3867 -0.1393 -0.0634
23332W        W38801   6.931   8.214   3.123 -0.3256 -0.0760 -0.3546
23333W        W38802   3.473   6.645   2.630  0.1320  0.0219 -0.3187
23334W        W38803   6.232   0.182   5.585  0.0559  0.1211 -0.1116
23335W        W38804   8.581   5.895   3.059  0.2236  0.2171 -0.2857
23336W        W38805  10.744   3.271  14.992  0.2269 -0.1717 -0.2731
23337W        W38806   8.373   2.673  12.086  0.2124  0.3800  0.1180
23338W        W38807  13.098  10.424   3.770  0.1367 -0.2485  0.0232
23339W        W38808   7.632   7.255  10.609  0.1299  0.0993 -0.2252
23340W        W38809  11.037   5.266   5.593 -0.1446 -0.0944  0.2180
23341W        W38810   7.153  16.133   0.164  0.1322  0.3048  0.0732
23342W        W38811  16.375   9.341  12.338  0.2076  0.0778  0.0237
23343W        W38812   4.133   2.673  11.004  0.4019 -0.1653  0.1320
23344W        W38813  14.238   3.840  12.941  0.0835 -0.0494 -0.1125
23345W        W38814   6.433   8.913   0.633 -0.1412  0.2747  0.0847
23346W        W38815   0.325   7.033  12.340  0.0023 -0.2963 -0.0354
23347W        W38816   6.592  17.628   0.576  0.0273 -0.1773  0.2950
23348W        W38817   5.708   2.806  15.073 -0.0868  0.2299 -0.1182
23349W        W38818   7.360  11.458   4.546 -0.2079  0.1229 -0.2040
23350W        W38819   8.366   8.675  14.577 -0.1283 -0.1496 -0.1705
23351W        W38820  12.457   3.434   2.891 -0.0631  0.1891  0.1888
23352W        W38821   3.654   1.118   1.379  0.1435  0.0033  0.0028
23353W        W38822   1.340  12.180  13.026 -0.0052 -0.0977  0.1286
23354W        W38823  18.333   5.921   5.179 -0.2533  0.0538 -0.0804
23355W        W38824   8.603  15.977   3.674 -0.3045  0.1257  0.3099
23356W        W38825  15.352  12.685  14.763 -0.3350  0.0432 -0.0114
23357W        W38826  18.334   4.462  12.714  0.3205  0.1184  0.1863
23358W        W38827   1.064   3.053  12.685  0.1641  0.0096  0.1656
23359W        W38828   7.197   1.356   3.320 -0.1604  0.1962  0.0039
23360W        W38829  13.397   1.939   2.700  0.2575 -0.2995  0.0858
23361W        W38830   3.088   5.348  15.321 -0.1129 -0.0986 -0.4675
23362W        W38831   1.264  14.979  13.971  0.1040  0.1194 -0.1155
23363W        W38832   3.795  12.337   5.989 -0.1200  0.2583 -0.1213
23364W        W38833  17.292  14.820  11.718 -0.1431 -0.0151 -0.3505
23365W        W38834   3.554   8.224   5.780  0.0212  0.0562  0.1645
23366W        W38835  13.993   1.416   1.104  0.2363 -0.0851  0.0223
23367W        W38836   2.857   4.752  13.775  0.1907 -0.0234 -0.1992
23368W        W38837  15.851   1.002   4.493 -0.1599  0.3613 -0.1338
23369W        W38838  14.566  16.560   5.234 -0.0183  0.0908  0.4016
23370W        W38839   6.212   6.780  12.796 -0.0001  0.0530  0.0568
23371W        W38840   3.435  17.674   1.628 -0.3029  0.1199  0.2089
23372W        W38841   7.882   2.697   4.011 -0.0275  0.0462 -0.1767
23373W        W38842  13.334   0.557  13.010 -0.0114  0.0917  0.1271
23374W        W38843  14.572   8.556  14.025  0.2012  0.1374 -0.0989
23375W        W38844   6.427   4.978   1.327  0.0221  0.2033  0.0143
23376W        W38845   9.142  11.866  14.862 -0.0024 -0.1950  0.1363
23377W        W38846  17.189  15.350   2.847 -0.0478 -0.3180  0.0077
23378W        W38847   4.483  16.652   4.013  0.1725 -0.1274  0.2875
23379W        W38848  10.795   0.070  14.973  0.2952  0.3218  0.0313
23380W        W38849   0.590  14.811   3.336 -0.1857  0.1516  0.0306
23381W        W38850   5.246   5.112  13.045  0.0589  0.2750  0.0285
23382W        W38851   0.446   9.246   4.021  0.2947  0.1057  0.1794
23383W        W38852  10.836   7.993   0.059  0.2039 -0.0972 -0.0939
23384W        W38853  11.486  13.987  15.304  0.0413 -0.0872  0.2369
23385W        W38854  15.024  16.436   0.569  0.1534 -0.2074  0.2339
23386W        W38855   3.734   9.250  14.451 -0.3310  0.0484 -0.0708
23387W        W38856  15.638   6.486  14.447 -0.1030  0.0393  0.4017
23388W        W38857  10.732  14.689   2.695  0.1732 -0.1800 -0.3251
23389W        W38858  17.124  11.670  14.984 -0.3924  0.1134 -0.2286
23390W        W38859  18.313  11.863   4.306  0.0068  0.0063 -0.0070
23391W        W38860  17.551   6.776   2.663  0.3283  0.3222 -0.0786
23392W        W38861   8.992   9.378   5.476  0.2054  0.2952 -0.1434
23393W        W38862  17.173   5.459  10.756  0.1221 -0.2106 -0.1913
23394W        W38863  14.561  10.417   4.849  0.0762 -0.0705 -0.0312
23395W        W38864   8.575  11.723  12.474 -0.0716  0.1053  0.1006
23396W        W38865   6.975   4.803  12.390 -0.1108 -0.0147 -0.0015
23397W        W38866  10.104   0.456   0.291 -0.0354  0.0518  0.5650
23398W        W38867  13.165   4.459   5.651  0.1966 -0.0056 -0.0126
23399W        W38868  11.809  15.921   3.142  0.0777  0.1978  0.1282
23400W        W38869  18.531   3.443  14.510  0.1125  0.0136  0.1003
23401W        W38870   3.730  16.841  13.035  0.0432 -0.0184 -0.1195
23402W        W38871   7.875   1.797  10.738 -0.0860 -0.1563  0.2354
23403W        W38872   9.139  17.831   2.670  0.1420  0.1389 -0.2036
23404W        W38873  15.633  15.264   1.369 -0.0854  0.0705  0.0246
23405W        W38874   7.584  16.676   4.075 -0.0591 -0.1268 -0.4746
23406W        W38875   7.977   8.978  15.297 -0.0714 -0.2046 -0.0696
23407W        W38876  12.627   3.858   1.414  0.2237  0.0307  0.1438
23408W        W38877  17.081  15.939   5.643 -0.0420  0.0690  0.1110
23409W        W38878   7.668  15.007   5.488  0.0381  0.0857 -0.2120
23410W        W38879  13.565   5.847   3.217  0.0523 -0.1837 -0.2922
23411W        W38880  16.917   8.694  14.834 -0.1009  0.0191  0.1420
23412W        W38881   7.269  14.037  12.279  0.1016 -0.0939 -0.3188
23413W        W38882   6.236   6.029   5.126 -0.1314  0.0759 -0.2624
23414W        W38883   8.619  15.538   2.886  0.1446  0.1370 -0.0343
23415W        W38884   4.852  12.575   0.927  0.0337  0.0370 -0.3233
23416W        W38885   1.307  17.680   2.679 -0.1953 -0.3419  0.2996
23417W        W38886   8.402  12.838   1.366 -0.0195  0.4186 -0.0744
23418W        W38887   2.289  12.038   1.718 -0.0011 -0.1062  0.1691
23419W        W38888   2.795   5.944  13.236  0.1189  0.1612 -0.0440
23420W        W38889  15.295  13.655   3.731 -0.0169 -0.3652 -0.0285
23421W        W38890   7.264  18.161  10.975  0.0908  0.0558  0.1101
23422W        W38891  14.457   5.505   5.252  0.0436  0.3238  0.0789
23423W        W38892  13.192   3.624   2.990  0.0510 -0.2644  0.0381
23424W        W38893   0.839   5.307  12.393 -0.2750 -0.1802  0.0924
23425W        W38894   1.666   7.985  11.542 -0.0024 -0.0875 -0.0726
23426W        W38895   6.070  13.246   0.211  0.1598 -0.3705  0.2778
23427W        W38896   4.983  11.214   3.811 -0.0089 -0.0359 -0.1071
23428W        W38897   7.790   6.933   2.646  0.0300 -0.0168 -0.3156
23429W        W38898   9.886  11.675  12.341 -0.1427 -0.0240 -0.1062
23430W        W38899   8.666   1.309  14.412 -0.1624  0.0747 -0.0338
23431W        W38900  17.334  16.065   3.241  0.0319 -0.2810 -0.2961
23432W        W38901  16.973  12.214  15.673 -0.2339 -0.1437 -0.0208
23433W        W38902  10.776   3.629  14.440 -0.1837 -0.1439  0.0074
23434W        W38903  17.747  11.425  15.572 -0.1096 -0.2844  0.1092
23435W        W38904  14.063  11.789  12.071  0.1978  0.1135  0.4850
23436W        W38905   4.142  10.360  11.572 -0.0624  0.0418  0.0045
23437W        W38906  11.316   6.354   0.405  0.2351  0.0085  0.1859
23438W        W38907  12.888  11.214  13.865  0.4309 -0.2551 -0.0090
23439W        W38908  17.767   7.513   1.449 -0.1468  0.0563 -0.2013
23440W        W38909  16.971  15.384  11.123 -0.2707  0.2310  0.2057
23441W        W38910   8.709  11.234  12.369 -0.0161  0.3819  0.0401
23442W        W38911   9.258  15.409  14.031  0.0038 -0.1446  0.0202
23443W        W38912  17.911   6.412  13.987  0.0335 -0.3971 -0.5313
23444W        W38913  14.895  12.526   4.206  0.0652  0.4157 -0.3747
23445W        W38914   0.516  15.626  11.359 -0.5403  0.1342 -0.0589
23446W        W38915  18.424  14.896  12.695  0.1396  0.2506  0.3303
23447W        W38916  11.041   7.324  11.140  0.2774 -0.0359  0.0670
23448W        W38917   1.656  18.565   2.110 -0.1037  0.0447  0.2643
23449W        W38918   1.467  14.691  11.704  0.2777 -0.4169  0.2242
23450W        W38919   3.075  14.351   1.131 -0.0717  0.1375 -0.3964
23451W        W38920  14.714   2.508  13.264 -0.1256  0.0716  0.0351
23452W        W38921  10.276   5.723  13.798  0.0978 -0.0178 -0.0912
23453W        W38922  14.061   5.793   5.088 -0.2732 -0.0232  0.2317
23454W        W38923   6.839  16.639   3.574  0.2191 -0.0683 -0.0694
23455W        W38924   1.666  12.824  13.889  0.0551 -0.0648 -0.1604
23456W        W38925  10.565   5.087  12.106 -0.0110  0.3984 -0.2175
23457W        W38926   0.494   6.307  12.517 -0.2123  0.1829  0.0551
23458W        W38927   7.827   0.780  14.481  0.0180 -0.1744 -0.0816
23459W        W38928   5.037  15.231   5.295 -0.0090 -0.2597 -0.2270
23460W        W38929  10.651  17.352   0.046 -0.2532  0.0045 -0.1471
23461W        W38930  11.726   2.938   1.559 -0.1470  0.3544 -0.1143
23462W        W38931  13.012   4.740   9.725 -0.2338 -0.3515 -0.0102
23463W        W38932  16.718   7.821   2.670 -0.0724  0.1912 -0.2778
23464W        W38933  13.963  14.741  14.534  0.1038 -0.0179 -0.0068
23465W        W38934  12.258  15.961   4.723 -0.0638  0.0213  0.0331
23466W        W38935  11.439   1.625   4.140  0.2224  0.4514  0.1259
23467W        W38936  17.070  17.454  12.485  0.0156 -0.1272 -0.0423
23468W        W38937   5.564   9.213   6.465  0.0110  0.2647 -0.1085
23469W        W38938  10.457   8.676  15.556  0.1366 -0.0988 -0.3184
23470W        W38939   3.321   2.202   3.152 -0.2664  0.0388 -0.0978
23471W        W38940   5.533   3.089   4.522 -0.1504  0.0838  0.0890
23472W        W38941   3.253  16.001   0.456  0.2675 -0.0117  0.0461
23473W        W38942  15.891   5.906  12.843  0.1041 -0.2346 -0.2468
23474W        W38943   2.934   5.698   4.043 -0.2969  0.0762  0.0110
23475W        W38944  13.471   4.156   3.565  0.0187  0.1148  0.2968
23476W        W38945   7.103   5.583  13.027  0.4285 -0.0532 -0.4383
23477W        W38946  18.492  11.409   0.824 -0.0471 -0.2501 -0.1904
23478W        W38947  16.816  11.675  15.374 -0.3626 -0.2376 -0.4739
23479W        W38948  17.704  16.699  15.168 -0.1814 -0.1221  0.1090
23480W        W38949  14.218   2.909  14.639  0.0503  0.0998  0.0552
23481W        W38950  13.554  15.902   4.696 -0.0672 -0.2749 -0.2242
23482W        W38951   3.598   2.713  10.263  0.1761  0.1283 -0.2742
23483W        W38952   0.798   5.919  14.824 -0.1658  0.2175  0.3750
23484W        W38953   8.686   3.245   0.795  0.0458 -0.1657  0.0502
23485W        W38954  14.013  10.445  11.863  0.1508  0.0327  0.1846
23486W        W38955  11.110   3.556   4.179  0.0626  0.1607 -0.1347
23487W        W38956   2.818   1.090  11.145  0.1686 -0.1832 -0.1857
23488W        W38957   9.980   3.782   1.753 -0.1003 -0.0357 -0.4366
23489W        W38958  13.641   2.396   4.139 -0.0302 -0.0100  0.1156
23490W        W38959  16.699   3.578   3.662  0.4976 -0.1012  0.0151
23491W        W38960  15.708   6.083  14.767  0.0052 -0.0875  0.2975
23492W        W38961  10.373   1.297   3.493  0.1419 -0.1602  0.0870
23493W        W38962   3.548  12.724   2.690 -0.0750 -0.2086 -0.0802
23494W        W38963  13.588   1.241  13.789 -0.1114  0.1311 -0.0666
23495W        W38964  18.172   1.014  12.766  0.1522  0.1240  0.1338
23496W        W38965   7.211   5.201  12.172  0.1149 -0.2898 -0.1147
23497W        W38966  17.252   6.981  13.433 -0.1355 -0.2697  0.3107
23498W        W38967  10.482   2.069  15.113  0.1981  0.0290  0.1193
23499W        W38968  12.918  12.019  11.508 -0.0568 -0.0166  0.1205
23500W        W38969   2.343  15.679   2.950 -0.0263 -0.5180  0.2441
23501W        W38970   4.162  17.315  13.091  0.0330 -0.1899  0.3097
23502W        W38971  14.305   8.674  13.584 -0.1300  0.0850 -0.0353
23503W        W38972  13.490  15.279  10.778  0.0434 -0.1386 -0.1757
23504W        W38973  13.127  17.570   2.074 -0.0107 -0.0626  0.0083
23505W        W38974  18.001   1.372   4.512 -0.4241 -0.2099 -0.0672
23506W        W38975  15.324  11.961   0.626 -0.2451  0.0490  0.0145
23507W        W38976  10.003   2.202   4.710 -0.2568  0.0766 -0.4015
23508W        W38977   3.126   2.078  14.969 -0.0784 -0.0716 -0.3589
23509W        W38978   1.306  15.341   2.872  0.2477 -0.3938 -0.0110
23510W        W38979  16.128   7.845   9.974  0.0214 -0.0410 -0.1514
23511W        W38980  10.281   4.078   0.362  0.0118  0.0022 -0.2361
23512W        W38981   7.079  15.830   2.016  0.0760 -0.3304 -0.2896
23513W        W38982   4.923   1.307   3.922  0.0974 -0.2718  0.2618
23514W        W38983   0.648  13.825   5.083 -0.1032  0.0234 -0.2921
23515W        W38984  11.947  11.217  13.234 -0.0612  0.3492  0.2263
23516W        W38985   3.943   8.069  13.035  0.2311 -0.0028  0.5349
23517W        W38986   3.200  10.091   0.190 -0.0534  0.0489  0.3534
23518W        W38987   0.623   6.111   0.880 -0.0381  0.0286  0.1680
23519W        W38988   9.533   2.178   2.095 -0.3172  0.1022  0.0698
23520W        W38989   6.407  15.414   0.180  0.0116 -0.0502 -0.1318
23521W        W38990  13.868   5.657  11.930 -0.0568  0.0363  0.0667
23522W        W38991  13.358   1.768  13.931 -0.3677  0.3108 -0.0742
23523W        W38992   7.609  15.322   4.551 -0.0134 -0.1262 -0.1714
23524W        W38993  14.029  12.792  15.075 -0.2395  0.3221  0.1163
23525W        W38994   7.515  16.146  13.050 -0.1350  0.0410 -0.2782
23526W        W38995   5.950   1.326   4.740  0.4024  0.0932  0.2061
23527W        W38996  17.094   1.153  12.844 -0.1629 -0.0099  0.1195
23528W        W38997   3.649  13.043   2.032  0.0691  0.1403 -0.2433
23529W        W38998  14.961   5.191  11.206 -0.0431  0.0826 -0.2290
23530W        W38999   2.989   5.364   4.694 -0.0037  0.2451  0.2537
23531W        W39000   3.586  17.888  12.524 -0.2001  0.1799  0.1426
23532W        W39001  16.911   6.555  13.276 -0.2962 -0.2821  0.0917
23533W        W39002  12.189  13.703  13.722  0.2078 -0.1375  0.0167
23534W        W39003   1.302   3.464  13.897 -0.0549 -0.0155  0.3620
23535W        W39004  12.952  10.219   3.132 -0.0496  0.0172 -0.2712
23536W        W39005  14.895  18.328   4.240 -0.0606 -0.0103  0.2021
23537W        W39006   7.990   4.773   4.566  0.0814  0.1198  0.1398
23538W        W39007   3.833   9.334  13.725  0.3150  0.4437  0.0814
23539W        W39008   8.677   9.146  14.862 -0.2577  0.0191  0.1314
23540W        W39009   4.797   4.173  15.397 -0.0542  0.1623  0.2513
23541W        W39010  18.186   4.652  11.271  0.2454  0.0567 -0.1646
23542W        W39011  17.306  13.523   3.252  0.3116  0.1534 -0.0256
23543W        W39012   9.238  13.471  14.661  0.1989  0.1969  0.1674
23544W        W39013   2.103  15.160   5.973  0.2740  0.2909 -0.2040
23545W        W39014   5.306  10.736   4.987 -0.0419 -0.0775  0.0709
23546W        W39015  12.756  13.845   0.464  0.0087  0.0907 -0.0653
23547W        W39016   6.933  12.369  12.205 -0.0294 -0.0550 -0.0867
23548W        W39017   2.319   8.783  12.374 -0.3397 -0.1751 -0.1854
23549W        W39018   9.652   7.538  12.476  0.0358  0.0368 -0.2722
23550W        W39019   7.496   8.139  14.177  0.0743 -0.3661 -0.0491
23551W        W39020  12.349   5.470  11.458 -0.1599 -0.2793 -0.2180
23552W        W39021  12.958  15.013   4.549 -0.2408 -0.2133  0.1874
23553W        W39022   2.927  14.256   3.451 -0.1238 -0.0403  0.0108
23554W        W39023  12.712   0.688   4.275  0.1168 -0.1941 -0.4102
23555W        W39024  14.682   4.301  13.959  0.0103  0.2999 -0.0354
23556W        W39025  16.858  13.541  15.216 -0.0053  0.0176  0.3255
23557W        W39026  12.787   0.966  10.802  0.0795  0.1743  0.0573
23558W        W39027   9.625   3.179  15.382 -0.0156 -0.0155  0.1872
23559W        W39028  15.617  16.049   4.771 -0.1473 -0.1110  0.0056
23560W        W39029   4.302   4.161  10.491  0.0961  0.1696 -0.3851
23561W        W39030  14.324   4.231  13.442  0.0132  0.4624 -0.1213
23562W        W39031   9.525   7.119  14.143  0.2396  0.0324 -0.0644
23563W        W39032  16.188  13.572   3.622 -0.2056  0.0604 -0.2735
23564W        W39033   4.131  14.195  12.036  0.1239 -0.1222  0.1514
23565W        W39034  15.779  11.342   2.493  0.1073  0.3424 -0.2946
23566W        W39035   8.686   2.927   2.919  0.1488 -0.1646 -0.3149
23567W        W39036   8.639   3.243   3.535 -0.1128  0.0381  0.0633
23568W        W39037  12.967  12.434   0.867  0.2582  0.1621  0.0380
23569W        W39038  18.452   1.367   1.674  0.1591  0.5511  0.0006
23570W        W39039  18.181  12.725   1.557  0.0778 -0.0619 -0.2115
23571W        W39040   9.278  16.116  11.835 -0.0053 -0.0510 -0.0308
23572W        W39041  16.102   7.879  11.345  0.0359  0.0757  0.2217
23573W        W39042  14.920  13.281  14.199 -0.1393 -0.0015  0.2697
23574W        W39043   8.185  10.987   2.926  0.0803 -0.1514 -0.0861
23575W        W39044   7.787  10.949   0.044 -0.0944  0.1210  0.2005
23576W        W39045   6.154   5.731   0.663  0.1345  0.0229 -0.2732
23577W        W39046  14.344  18.469  11.057 -0.1360 -0.3099  0.0240
23578W        W39047   9.773   4.783  13.826 -0.1488 -0.0087  0.3178
23579W        W39048   9.936  13.370   5.641  0.0595 -0.0782  0.5221
23580W        W39049   1.480   2.063  13.788 -0.1480  0.4646  0.2720
23581W        W39050  12.675  11.941   1.760  0.1462  0.1757  0.2216
23582W        W39051  15.954  17.430   2.194 -0.0208  0.3088 -0.0693
23583W        W39052   9.715   3.946  11.686 -0.3071  0.1919  0.1154
23584W        W39053  11.080  13.382   1.156  0.0887  0.4825 -0.1774
23585W        W39054   4.463  15.049   4.388  0.0392  0.0383 -0.3436
23586W        W39055   4.829  15.919  14.598  0.1145  0.2342 -0.0568
23587W        W39056  12.752   4.869  14.376 -0.2476  0.1769  0.3274
23588W        W39057  15.220  14.616   0.497  0.1523  0.2656  0.1294
23589W        W39058  18.511   0.515  10.215 -0.1795 -0.0943 -0.1483
23590W        W39059   9.876   1.281   4.970 -0.0098 -0.2345  0.6370
23591W        W39060   1.838   4.518   0.451 -0.2033 -0.1018  0.2068
23592W        W39061  17.775   7.625   0.714 -0.2131 -0.2451  0.0725
23593W        W39062  12.579  16.730  11.074  0.2445 -0.2425  0.0143
23594W        W39063   4.841  12.441   4.747  0.0555 -0.1943  0.3615
23595W        W39064   7.827   8.109  13.350 -0.3221  0.0895 -0.2890
23596W        W39065  12.199   2.231   1.435 -0.2347  0.0708  0.2742
23597W        W39066   9.973  13.887   1.534  0.2800  0.0926  0.1008
23598W        W39067   9.754   2.184   1.188 -0.1773  0.3759  0.3573
23599W        W39068   2.310   8.515  11.097 -0.0051 -0.0956  0.0560
23600W        W39069   3.778  16.843  10.221  0.2174 -0.1290 -0.3087
23601W        W39070  15.133   2.507  12.161  0.1136 -0.1360  0.1482
23602W        W39071  10.914  13.475   3.807  0.2827  0.1305  0.1560
23603W        W39072   6.426   4.456  10.942 -0.0202 -0.1095 -0.3728
23604W        W39073  15.275  12.315   2.440 -0.1533 -0.0998  0.1336
23605W        W39074  11.555  10.308  11.731  0.1827 -0.0004 -0.3170
23606W        W39075   8.842   5.740  13.945 -0.1395 -0.5256 -0.0048
23607W        W39076   1.531   7.268  15.468  0.3103  0.1043  0.0420
23608W        W39077  15.170   8.265   4.696 -0.1000 -0.1128 -0.1261
23609W        W39078   2.672  16.035  15.245  0.1426  0.0874  0.0785
23610W        W39079   5.208  10.355  15.238  0.0308 -0.1644 -0.2266
23611W        W39080  17.444   4.443  13.002  0.1077 -0.0563  0.0548
23612W        W39081   6.758  12.627   0.087 -0.1396  0.1363  0.2924
23613W        W39082   5.300   4.211  11.504 -0.0350 -0.1525 -0.2074
23614W        W39083   8.248   3.949   1.346 -0.0035 -0.0279 -0.1437
23615W        W39084  14.261  18.013   4.898 -0.4635  0.0706 -0.4141
23616W        W39085  13.221   4.007   5.443  0.0093 -0.0282 -0.1442
23617W        W39086   6.403  16.728  13.570  0.3490  0.0148 -0.0735
23618W        W39087   1.314  16.123   3.038  0.0881 -0.2212 -0.0047
23619W        W39088   1.000   3.714   3.462 -0.3764 -0.1589 -0.1839
23620W        W39089   6.577  15.904   4.235  0.2689  0.2968  0.0034
23621W        W39090  11.169   9.190  12.138  0.0356  0.3219 -0.0731
23622W        W39091  13.298   0.190   2.614 -0.0706 -0.2895 -0.2997
23623W        W39092  16.558   3.995  15.769 -0.0696 -0.1531  0.0879
23624W        W39093  16.980  14.437   4.161  0.1552 -0.3092 -0.1895
23625W        W39094  16.727   7.735  11.482  0.5142  0.0351  0.1292
23626W        W39095   2.410   5.763  15.091 -0.3556 -0.3774  0.3245
23627W        W39096  13.736  14.668   0.828  0.2149  0.0648  0.2337
23628W        W39097  10.218  12.887   5.670 -0.3176 -0.0390  0.0370
23629W        W39098   9.628  11.436  15.514  0.0229 -0.1244  0.4158
23630W        W39099   8.170   7.530  11.959 -0.0363  0.1497 -0.0116
23631W        W39100   9.193  10.835  11.144  0.3007  0.2573  0.1465
23632W        W39101   7.329   7.078  15.568 -0.0045 -0.1075 -0.0201
23633W        W39102  12.244  14.970  12.224  0.1915  0.1537  0.0817
23634W        W39103   1.722   8.213   2.378 -0.0147  0.1434  0.2125
23635W        W39104  14.916   1.500   3.117 -0.3015 -0.2561  0.1659
23636W        W39105  14.382  17.059   5.180 -0.2692  0.1689  0.2790
23637W        W39106  13.262   1.054  12.877 -0.0683  0.1478 -0.4343
23638W        W39107  16.559   6.578  11.661 -0.1959  0.2642 -0.1935
23639W        W39108   5.552  13.209   5.282 -0.0814  0.0695 -0.0268
23640W        W39109  10.612   2.232  14.068  0.0441 -0.1526  0.3287
23641W        W39110   8.828   5.998  12.561  0.0815  0.1272  0.1634
23642W        W39111  17.006  14.933  10.805  0.2827 -0.0195 -0.2407
23643W        W39112   5.399  11.776   1.366  0.3631  0.0161 -0.2578
23644W        W39113   8.976  10.686   0.287 -0.2661 -0.0466  0.0710
23645W        W39114  17.945   5.033  14.529  0.1003 -0.3506 -0.0058
23646W        W39115   0.315   3.454  11.989 -0.2241  0.3207  0.0652
23647W        W39116   9.392   2.639   4.004  0.0692 -0.1188  0.0868
23648W        W39117   5.002   7.706  13.039  0.1651 -0.0503 -0.1589
23649W        W39118  15.484  11.630   0.295 -0.0894  0.1082  0.1049
23650W        W39119  10.080   2.585   3.195 -0.1984  0.0957  0.0735
23651W        W39120   5.558  12.383  14.782  0.0304 -0.1300 -0.0957
23652W        W39121   9.465   5.652  10.402 -0.1955  0.1815 -0.0072
23653W        W39122   2.219  10.647   0.258 -0.2863 -0.1166  0.2313
23654W        W39123  12.405  13.788  11.592  0.0931  0.3456  0.1099
23655W        W39124  15.825  12.508  10.927  0.1554 -0.0520  0.0155
23656W        W39125   5.968  12.606  14.018  0.0076 -0.1279 -0.1557
23657W        W39126  18.131   4.757   1.857  0.0503  0.1303  0.0059
23658W        W39127   9.799   4.857   0.109 -0.3565 -0.2165  0.0689
23659W        W39128   4.745   5.946  14.169  0.2595 -0.1504  0.0838
23660W        W39129  11.340  16.062   2.394  0.2002  0.0985 -0.1330
23661W        W39130   9.634   1.973  15.097  0.1133  0.3926  0.2212
23662W        W39131  15.618  14.093   3.033 -0.3498  0.3476 -0.2892
23663W        W39132  16.260   7.799  14.379  0.0605 -0.3462  0.0582
23664W        W39133   4.190   4.377  13.527 -0.0332 -0.3168 -0.1477
23665W        W39134   5.858  11.383   2.606  0.1247 -0.0100  0.1897
23666W        W39135  13.866  15.292  15.576  0.1490 -0.1612 -0.2636
23667W        W39136  12.265  11.883   1.030  0.2661 -0.1121 -0.1686
23668W        W39137  16.878   2.260   2.245 -0.3802  0.3507 -0.0309
23669W        W39138  18.121   4.059  11.104 -0.0425 -0.1653  0.1625
23670W        W39139   4.205   9.803   4.733 -0.3193 -0.2382  0.2421
23671W        W39140   8.031   4.941  10.662 -0.5941  0.4082  0.0532
23672W        W39141  10.629  16.951   4.103  0.1211 -0.1698 -0.0162
23673W        W39142  17.078   8.615   1.130 -0.3086 -0.2471  0.1770
23674W        W39143   2.828   4.737   0.346  0.2706  0.0723  0.2213
23675W        W39144   5.863  12.789  12.789  0.0296  0.2713 -0.2816
23676W        W39145   2.121  16.153   2.728  0.2833 -0.3776  0.1162
23677W        W39146   6.814   4.988  13.654  0.0686  0.4451  0.0308
23678W        W39147  14.789  11.455   0.407 -0.1979  0.2284 -0.0303
23679W        W39148  11.626   9.743  11.833  0.2016 -0.0078 -0.0331
23680W        W39149  18.478  12.689   1.124 -0.0266 -0.2312  0.3852
23681W        W39150   1.308   1.678   2.151  0.3999  0.0531  0.1899
23682W        W39151   2.444  10.532   3.795 -0.1472  0.1787  0.0260
23683W        W39152  17.331  10.131  14.617  0.3183 -0.0272 -0.0372
23684W        W39153   7.120   6.102  12.357  0.1355  0.2720 -0.0174
23685W        W39154   5.621   5.261   4.557 -0.4101 -0.0767 -0.1117
23686W        W39155  12.324   2.870  13.822 -0.0314  0.1535 -0.2998
23687W        W39156  16.118  15.414   2.290 -0.0491  0.1806  0.0891
23688W        W39157  15.046   0.409   4.954 -0.1069  0.3805 -0.1525
23689W        W39158   7.757  16.859   1.614 -0.0522 -0.0730  0.0713
23690W        W39159   0.780   5.198   5.537 -0.1013 -0.2057 -0.4169
23691W        W39160   9.814   7.470   1.857 -0.1759 -0.3463 -0.0692
23692W        W39161  13.526  13.953  13.767 -0.0503  0.0513  0.2227
23693W        W39162   7.483  16.828  14.758 -0.2388 -0.0784  0.4928
23694W        W39163   5.582  16.876   4.888  0.1468  0.0288  0.0823
23695W        W39164   5.279   4.742  11.827 -0.0083 -0.1475 -0.5130
23696W        W39165   2.432   0.472   2.501 -0.0102 -0.1805 -0.1004
23697W        W39166  10.341  11.497   2.193 -0.4294 -0.3056 -0.0030
23698W        W39167  17.359   1.874  11.179  0.1137 -0.2831 -0.1121
23699W        W39168  15.795   5.202  13.947  0.1942  0.0561  0.0312
23700W        W39169   2.186   8.543   1.510  0.0248 -0.0675  0.1309
23701W        W39170  13.089  10.989   0.687  0.2712  0.2643  0.2659
23702W        W39171  15.523  10.033  13.166 -0.0303 -0.2754 -0.2369
23703W        W39172   2.332  15.255   3.218 -0.1987 -0.1849  0.2172
23704W        W39173   9.115   8.893  12.745  0.0476 -0.1410 -0.1238
23705W        W39174   4.500   4.537   5.081 -0.0727  0.0919 -0.1502
23706W        W39175   0.649  11.187   1.188 -0.0429 -0.2751  0.1323
23707W        W39176  17.242  11.818   3.757 -0.3136  0.0187  0.1952
23708W        W39177   0.577   3.377   3.580  0.1255  0.1976  0.0175
23709W        W39178   5.690   8.998   4.002 -0.0427  0.1188  0.1724
23710W        W39179  17.141  16.162  14.056 -0.1215  0.0969 -0.0769
23711W        W39180  16.033  15.889  15.046  0.0707 -0.0678  0.0855
23712W        W39181  17.378  14.735   2.742  0.1580 -0.1535 -0.0812
23713W        W39182  15.427  15.677   1.055 -0.0322 -0.1556  0.2694
23714W        W39183  16.686   9.065  13.368  0.0836  0.0827  0.1666
23715W        W39184   6.818  13.271  12.553  0.4179 -0.0097  0.1860
23716W        W39185  14.602  10.419   3.025  0.0393  0.0170 -0.2100
23717W        W39186   4.663   7.929   4.587  0.0886  0.0555 -0.2105
23718W        W39187   8.815   1.024   0.846  0.1471 -0.0705 -0.1938
23719W        W39188   1.934   3.088   0.092  0.1921 -0.0208 -0.1052
23720W        W39189  11.579   3.381  10.965  0.0526  0.0037 -0.0092
23721W        W39190  18.122  17.448   6.387  0.0657 -0.0177 -0.0888
23722W        W39191  14.382   4.898   2.290 -0.0664 -0.0620 -0.4471
23723W        W39192  16.837  11.795   5.873 -0.0648  0.3046  0.2890
23724W        W39193   8.926  15.418   4.359 -0.0467  0.1895 -0.0464
23725W        W39194   4.075   8.780   2.104 -0.0606  0.2047  0.0266
23726W        W39195   1.891   7.097  11.949  0.2061 -0.1109  0.1166
23727W        W39196   0.290  18.528   2.456 -0.0690 -0.2717  0.0429
23728W        W39197  11.351   4.038   0.390  0.2980 -0.4208  0.1517
23729W        W39198   5.051  11.991  15.553 -0.0738 -0.1206 -0.1263
23730W        W39199  14.499   9.411   1.964  0.2520 -0.1532  0.0199
23731W        W39200   0.375  17.196  15.250 -0.0293  0.1458 -0.0471
23732W        W39201  10.096   5.886   3.805  0.1414 -0.1107 -0.3247
23733W        W39202   2.221  17.498  12.576  0.2138  0.2010  0.2473
23734W        W39203   7.513  10.505   0.346  0.0215 -0.1133  0.1085
23735W        W39204   9.158   5.680  15.476 -0.0251  0.3130  0.2304
23736W        W39205  17.191   2.688   3.043  0.3531  0.2727 -0.2874
23737W        W39206  11.471   5.006   4.190  0.2842  0.2710 -0.3097
23738W        W39207   4.429  18.565  14.812  0.0173  0.1979 -0.1191
23739W        W39208  14.048   6.047   5.972  0.1802  0.1088 -0.1455
23740W        W39209  15.217  14.053  14.613  0.0411 -0.1687  0.0141
23741W        W39210  12.657   9.463  10.993 -0.2052 -0.3983  0.1107
23742W        W39211  12.085   2.418  11.020 -0.4031  0.1252  0.2301
23743W        W39212   3.019   7.362   5.150  0.0976 -0.4177  0.1375
23744W        W39213   8.044  11.888  13.679 -0.0207 -0.2914  0.0443
23745W        W39214   1.702   4.122   5.190  0.0144 -0.2740 -0.1158
23746W        W39215   4.044  17.863  12.216 -0.1306  0.0025 -0.1971
23747W        W39216   6.488   6.452   0.450  0.1553 -0.1385  0.2677
23748W        W39217   2.853   4.415  15.250 -0.2361 -0.2562 -0.1231
23749W        W39218  11.729   9.069  12.594  0.0216 -0.1013 -0.0877
23750W        W39219   4.971  14.842  13.650 -0.0075 -0.0662  0.0177
23751W        W39220   9.875  14.604   1.227 -0.2538  0.0662  0.1953
23752W        W39221   1.007  10.131   0.491 -0.1696 -0.0647  0.1614
23753W        W39222  17.227   7.503  14.170 -0.2154  0.2119 -0.0780
23754W        W39223   3.956   9.272   0.593 -0.0352 -0.3450  0.0517
23755W        W39224  15.427  18.541  14.869  0.0260  0.1837  0.3149
23756W        W39225   5.661   2.670   4.875 -0.0863 -0.1228  0.2825
23757W        W39226   0.711  10.318   3.261 -0.0497  0.1433  0.0447
23758W        W39227  13.356   6.452   1.410 -0.0107 -0.3305  0.1624
23759W        W39228   1.262   4.870   4.833 -0.1614 -0.0013 -0.2928
23760W        W39229   8.175   7.444  14.090 -0.0407 -0.0753  0.0197
23761W        W39230  16.786   6.404   1.760  0.1140  0.4743  0.0261
23762W        W39231  15.350  18.103  15.540 -0.2764  0.2713 -0.0978
23763W        W39232  13.410   9.640   1.730  0.0418 -0.2298 -0.0737
23764W        W39233  14.090   8.220  13.744  0.3006 -0.2118 -0.0702
23765W        W39234  16.540  11.479   2.813 -0.1359 -0.0283  0.1349
23766W        W39235  15.282   5.140   2.051 -0.1235 -0.2364  0.3284
23767W        W39236  15.363   2.644  15.279 -0.1542  0.2619 -0.5083
23768W        W39237   8.336  13.518   2.529 -0.3180 -0.1540 -0.3266
23769W        W39238   4.772   5.188  14.625  0.0424 -0.0462 -0.3116
23770W        W39239  16.005   2.942   4.954  0.3782 -0.2019 -0.2242
23771W        W39240  12.920   1.052   3.052  0.1091 -0.0628 -0.2862
23772W        W39241   0.775  15.293   0.837  0.1103 -0.4681  0.1553
23773W        W39242   4.911  16.483   3.173 -0.3910  0.0130  0.1676
23774W        W39243  18.045   3.920   2.349  0.2957 -0.0666 -0.0109
23775W        W39244   5.552   6.053   2.911 -0.1321 -0.0170 -0.0402
23776W        W39245  17.094  17.880  14.793 -0.0374 -0.2398  0.2519
23777W        W39246  11.457  14.524  14.133 -0.1419 -0.1467 -0.0229
23778W        W39247  11.120   9.168  13.489  0.1101  0.4789  0.0412
23779W        W39248   0.678  16.907   2.638  0.1076 -0.1178  0.0880
23780W        W39249   5.516   4.339   3.093  0.3343  0.0120 -0.0389
23781W        W39250   7.981  16.290  14.706 -0.1500 -0.1540  0.0333
23782W        W39251   9.716  14.538   2.218 -0.0515 -0.1976 -0.0090
23783W        W39252   4.066  18.086  13.335  0.4194  0.1665  0.0084
23784W        W39253  13.402   5.897   2.601  0.0412  0.0354  0.3880
23785W        W39254   2.800  17.660   4.489  0.0721 -0.1969  0.3968
23786W        W39255   5.720  10.258   1.940 -0.0093  0.3830  0.0564
23787W        W39256  16.075   7.547   1.070  0.0721 -0.2872 -0.0933
23788W        W39257   5.953   6.008  12.136  0.1006  0.1644 -0.0691
23789W        W39258  15.402   7.901   1.906 -0.0227 -0.2405  0.2926
23790W        W39259   0.262  14.023   4.320 -0.2121 -0.1694 -0.1244
23791W        W39260   9.273   7.128   4.894 -0.0685  0.0128 -0.0705
23792W        W39261  13.297  11.070  14.525 -0.2242 -0.4101  0.1930
23793W        W39262  16.372   2.302  14.149 -0.2862 -0.2213 -0.0200
23794W        W39263   2.597  12.342  13.711  0.0669  0.0065 -0.0874
23795W        W39264  13.442  14.497  11.236  0.1507 -0.1656 -0.0727
23796W        W39265  12.157  10.799  11.321 -0.0179  0.2431  0.1433
23797W        W39266   4.531  14.917   0.468 -0.0140  0.1564  0.0993
23798W        W39267  15.592  18.138   2.759  0.1280 -0.0301 -0.0874
23799W        W39268   1.224  11.175   2.281  0.1411  0.1866  0.1106
23800W        W39269  11.011  14.721  11.327 -0.0720  0.3910 -0.2371
23801W        W39270   8.534  18.127  13.846  0.1513  0.2451  0.1981
23802W        W39271   9.818   1.351  12.424 -0.0838 -0.1001 -0.0545
23803W        W39272  15.384   5.320   5.268 -0.1512  0.2318 -0.4887
23804W        W39273  12.739  10.735   1.028  0.0204 -0.2241 -0.0622
23805W        W39274   5.506   3.565  14.662 -0.1853 -0.2769 -0.1142
23806W        W39275  13.823  17.405   5.056  0.2521 -0.2521  0.4778
23807W        W39276  17.871  16.780  14.224  0.0059  0.1464 -0.0574
23808W        W39277  14.688  15.786   1.986  0.3568  0.2538  0.2613
23809W        W39278  13.121   2.695  11.293 -0.1758  0.0314  0.2216
23810W        W39279   1.963  10.297   3.819 -0.1210 -0.1682  0.1026
23811W        W39280  17.467   9.294  12.155 -0.1844 -0.0795 -0.0018
23812W        W39281   2.392  14.208  13.431 -0.1537 -0.2827  0.1749
23813W        W39282   6.774   8.523   0.489 -0.2011 -0.1671 -0.1849
23814W        W39283  17.278  15.961   4.273  0.1602 -0.1649  0.1834
23815W        W39284  14.858  10.268   2.166 -0.1016  0.1794  0.2108
23816W        W39285  18.628   1.753  11.784  0.1369  0.0751 -0.1926
23817W        W39286  16.368  18.464   0.136  0.1831  0.1090 -0.0400
23818W        W39287   5.645   9.404  11.207  0.1020  0.2997  0.2233
23819W        W39288   5.280  14.981   3.617 -0.2801 -0.1572 -0.1267
23820W        W39289   7.193  16.027  14.398 -0.0820 -0.1818 -0.7367
23821W        W39290  12.981  13.402  14.301 -0.1433  0.1194 -0.2033
23822W        W39291  13.462  10.334   0.467 -0.1330 -0.0791 -0.1639
23823W        W39292  13.475  16.163   0.355  0.4147 -0.1450  0.3370
23824W        W39293  13.343   5.776  13.337  0.0432  0.0492  0.1297
23825W        W39294  18.553   7.223   1.634 -0.2559  0.1075 -0.0017
23826W        W39295   3.270  16.019  12.505  0.1226 -0.1379 -0.0316
23827W        W39296   6.706   5.731  10.198  0.1674 -0.1927 -0.1322
23828W        W39297  18.400  14.410   4.066  0.0377 -0.1151  0.2161
23829W        W39298   5.058   5.704  10.626  0.3945  0.1811 -0.0304
23830W        W39299  15.607  15.056  11.531 -0.0578 -0.0062  0.3827
23831W        W39300   6.827   2.151   1.968  0.2690  0.3702  0.2652
23832W        W39301   6.490   3.901   2.349 -0.6043  0.0861 -0.1039
23833W        W39302  18.223   1.764   0.514 -0.2384 -0.0385  0.2286
23834W        W39303   9.835   9.234   1.033  0.1955 -0.0638 -0.0505
23835W        W39304   0.210   3.182  12.562  0.2390  0.0228  0.2135
23836W        W39305  13.007  13.195   4.722 -0.0911 -0.1332  0.1291
23837W        W39306  14.175   1.100  11.549  0.0792  0.0548  0.1816
23838W        W39307  11.693   9.126   4.836 -0.1298 -0.0751  0.2217
23839W        W39308   5.657  17.594  14.784  0.2287  0.0162  0.1411
23840W        W39309   1.793   4.532   3.490 -0.1218 -0.1376  0.0290
23841W        W39310  11.680   8.248   5.999  0.3088 -0.3265  0.5918
23842W        W39311   4.794   1.215   3.444 -0.1981  0.2159 -0.1802
23843W        W39312  11.141   9.161   5.028 -0.3426  0.1035  0.2535
23844W        W39313   2.101  18.376  14.247  0.1402 -0.0399  0.2741
23845W        W39314  11.568   7.035  13.186  0.2666  0.4937  0.0710
23846W        W39315   0.419   6.921   1.089  0.0992  0.1436  0.2098
23847W        W39316   4.755   1.825   1.697 -0.0968 -0.1169 -0.1522
23848W        W39317  18.679   0.532   2.774 -0.0642 -0.1401 -0.1491
23849W        W39318  13.126   9.880   1.330 -0.1622  0.5587 -0.3547
23850W        W39319   5.727   4.107  11.277  0.0443  0.0052  0.0430
23851W        W39320   8.427   1.380  11.299  0.1226 -0.0960 -0.0956
23852W        W39321   4.851  14.605   1.650 -0.0366 -0.2238  0.1090
23853W        W39322   4.905   9.183   2.179 -0.0290 -0.3680  0.0706
23854W        W39323  13.587  14.103   5.196  0.3739  0.0273  0.1163
23855W        W39324  11.643  13.079  14.947  0.2261 -0.2508  0.1226
23856W        W39325  12.460   5.446   0.047  0.1107  0.1809 -0.1093
23857W        W39326  17.689   3.842   0.662 -0.0865  0.0342  0.1744
23858W        W39327   4.931   7.162   0.326 -0.0016 -0.0739  0.2100
23859W        W39328  12.383   2.638   2.366  0.1549  0.1799 -0.0714
23860W        W39329  13.681  10.962  14.846 -0.0836 -0.0215  0.2182
23861W        W39330   7.701   9.196   0.218 -0.0176 -0.0786  0.2894
23862W        W39331  16.252   6.740   5.303  0.0394  0.0539  0.1144
23863W        W39332   4.156   7.976   4.325  0.0942  0.0498 -0.0810
23864W        W39333   5.336  10.820  13.299  0.1613  0.3066 -0.0471
23865W        W39334   5.723  13.527   1.106 -0.2005  0.3579 -0.3495
23866W        W39335   4.528  16.905  15.002  0.1138 -0.2739 -0.2293
23867W        W39336   7.927   5.474  10.736 -0.0410 -0.4105  0.1103
23868W        W39337   8.476  15.027   4.233 -0.0443 -0.1045 -0.2663
23869W        W39338  13.867  17.816  14.752  0.3481 -0.1683  0.0101
23870W        W39339   6.752  17.552  14.502 -0.0808 -0.2372  0.2254
23871W        W39340   5.275  10.698  15.641  0.1862  0.1881  0.0023
23872W        W39341  17.087  15.150  12.871  0.1262  0.0766 -0.0105
23873W        W39342   8.317  16.748  12.659  0.1905  0.2884 -0.0017
23874W        W39343   1.227  13.605  13.446  0.1186  0.1805 -0.2186
23875W        W39344   7.092  15.216   5.366  0.2219 -0.1064 -0.3348
23876W        W39345   1.481  10.252  13.955  0.4624 -0.1486 -0.2510
23877W        W39346  15.446   6.196  13.665 -0.0731  0.0033  0.1147
23878W        W39347   7.993  13.532   3.577  0.1780  0.1421 -0.1209
23879W        W39348   6.699  15.329  13.762  0.0625 -0.0447 -0.2371
23880W        W39349   2.588  11.733  12.950 -0.2741  0.0669 -0.0460
23881W        W39350   8.359   6.535  15.515  0.1781  0.0561  0.2269
23882W        W39351  17.039  17.494   3.637  0.0852 -0.1644  0.2215
23883W        W39352  18.590   6.045  14.026 -0.0156  0.0683  0.0436
23884W        W39353   8.085   4.778   2.232 -0.1503 -0.1999  0.1475
23885W        W39354  12.491   6.544   4.584 -0.1336  0.0658 -0.1240
23886W        W39355   9.238  13.099   2.265  0.1437 -0.2187 -0.0680
23887W        W39356  11.466   5.163  14.625  0.1809  0.0215  0.3726
23888W        W39357   4.795   0.096  13.816 -0.2690  0.3470  0.1251
23889W        W39358   6.991   4.138  12.413  0.0576 -0.0151 -0.0214
23890W        W39359  12.868  13.009  13.405 -0.1234  0.2078  0.1147
23891W        W39360  15.700  10.336  12.339 -0.0355 -0.0114 -0.0846
23892W        W39361  16.529  15.082  10.908 -0.0058 -0.3119  0.3231
23893W        W39362  15.783   8.910   1.429 -0.1095 -0.0547  0.1335
23894W        W39363   9.402   6.702   1.711  0.2000 -0.1360 -0.2429
23895W        W39364   3.373  13.590   4.281  0.2289  0.2025 -0.1306
23896W        W39365  12.472   8.714  11.929 -0.0710 -0.0353 -0.0380
23897W        W39366   2.795   6.450  13.406 -0.2231  0.1641 -0.2282
23898W        W39367  12.372   8.762  14.110  0.1309 -0.1572 -0.1133
23899W        W39368  10.066  15.076  15.762  0.0097  0.3462  0.0303
23900W        W39369   8.009   8.829   2.062  0.1596  0.0343  0.3136
23901W        W39370  15.075  11.949   5.448  0.1037 -0.3428  0.0862
23902W        W39371  16.303   9.115   2.046  0.1129 -0.2176 -0.0133
23903W        W39372  18.612   4.061  11.153  0.6130 -0.0610 -0.0897
23904W        W39373   9.005   5.063   3.405 -0.0482  0.0329  0.1365
23905W        W39374   0.254  10.261  12.883 -0.2992 -0.0163 -0.0796
23906W        W39375  16.984   6.096  14.852  0.5158 -0.0749 -0.0321
23907W        W39376  17.703   6.695  10.962 -0.3447 -0.0070 -0.0052
23908W        W39377  12.238   3.800  10.880  0.0993 -0.0868 -0.0880
23909W        W39378  17.547   2.537  11.564 -0.0129 -0.1486 -0.1192
23910W        W39379   2.057  14.434   1.083  0.1171  0.0425  0.1635
23911W        W39380  14.431  16.755  12.557  0.1628 -0.4045  0.1913
23912W        W39381   9.365  16.044  10.416 -0.0330  0.1936  0.1108
23913W        W39382  13.961   2.427   1.588  0.0321  0.0745  0.1354
23914W        W39383  16.830   3.551  15.536  0.3466 -0.2973  0.2428
23915W        W39384   6.709  11.999  12.863 -0.0374  0.3272 -0.2322
23916W        W39385   4.186  10.701   5.592 -0.1351 -0.2712  0.3184
23917W        W39386   7.146   0.772  13.499 -0.1173 -0.2041  0.1678
23918W        W39387  11.292   4.247   2.598  0.2722  0.2622  0.0860
23919W        W39388   5.234   9.481   1.913  0.1379  0.3302 -0.0797
23920W        W39389   4.036   2.173  11.036 -0.1208  0.3192  0.0352
23921W        W39390   0.881   5.135   2.139  0.5103 -0.1988  0.1647
23922W        W39391   8.746  13.550  15.377 -0.1165  0.2097 -0.2789
23923W        W39392   3.203  14.474  15.029  0.1136 -0.0865 -0.2254
23924W        W39393   8.235  14.352  14.295  0.0546  0.1601  0.3456
23925W        W39394   3.405   4.609  13.084  0.1292 -0.2765 -0.1744
23926W        W39395  18.163  11.791   5.242  0.1029  0.0522  0.1362
23927W        W39396  14.856  10.454   2.640 -0.1676 -0.0944 -0.0368
23928W        W39397  15.304  12.637  11.177 -0.0763  0.2303 -0.1981
23929W        W39398  17.171   0.516  15.030  0.1597 -0.0734 -0.1969
23930W        W39399  13.943  17.242  11.922 -0.3070 -0.1986  0.0254
23931W        W39400   4.571  17.196  12.191 -0.1371 -0.0381  0.2735
23932W        W39401   5.311   0.008   5.649 -0.2477  0.0355  0.0082
23933W        W39402   5.600   6.999   3.386 -0.1314  0.1547  0.1765
23934W        W39403  14.859   4.497  10.863 -0.0239 -0.3026 -0.0969
23935W        W39404   6.448  17.848   1.102  0.2799  0.0334  0.0298
23936W        W39405  17.867   3.741  12.841  0.9057 -0.1323 -0.0277
23937W        W39406  13.056  14.102  15.497 -0.0124 -0.2560 -0.0427
23938W        W39407   5.111  10.452  12.313 -0.0722  0.3144  0.0246
23939W        W39408  12.585   5.583  13.784 -0.2944  0.1014 -0.0587
23940W        W39409   9.305  18.207  14.132  0.3255  0.1560 -0.1150
23941W        W39410  10.190   3.946  13.941  0.0194  0.3374 -0.0788
23942W        W39411   8.627  11.947   3.557 -0.3347  0.2648 -0.0407
23943W        W39412  17.069   3.838   0.134  0.0813  0.3548 -0.3090
23944W        W39413   9.275  14.716  15.742 -0.1951 -0.1355  0.4264
23945W        W39414  14.792   2.037  13.459  0.0398 -0.0428  0.0970
23946W        W39415  13.060   2.053  14.857 -0.3590  0.1922 -0.0384
23947W        W39416   9.960  16.878  14.282 -0.2658  0.0556  0.2786
23948W        W39417   1.618  11.558  12.981  0.0806 -0.1048 -0.4391
23949W        W39418   9.742   4.434  11.889  0.2510 -0.1699  0.0887
23950W        W39419  12.274  16.444   5.050  0.4264 -0.0220  0.2228
23951W        W39420   8.329  15.952   4.070 -0.1941 -0.1660  0.2535
23952W        W39421   6.235  18.078  11.880  0.0311 -0.1585  0.0595
23953W        W39422   2.945   6.761   1.892 -0.1303  0.0408 -0.0597
23954W        W39423  15.766  18.080   4.742 -0.2444 -0.0305 -0.1872
23955W        W39424   5.689   8.113  11.253 -0.3186 -0.0551  0.1217
23956W        W39425   3.491   1.679  10.700 -0.0392  0.2456 -0.0480
23957W        W39426   6.699   8.046  11.990 -0.0075 -0.1319 -0.3997
23958W        W39427   0.199   9.778  14.254  0.0113 -0.2238 -0.1305
23959W        W39428  13.056  17.794  15.016  0.1999  0.0053 -0.3315
23960W        W39429   0.502   1.290  10.533  0.2999  0.1812  0.0460
23961W        W39430  13.812  14.876   0.272 -0.0600 -0.1379 -0.1782
23962W        W39431   4.611  16.839   2.310  0.1760  0.2292  0.0279
23963W        W39432   2.046  16.110   3.351 -0.0377 -0.0067 -0.1850
23964W        W39433   9.826  10.922   5.881 -0.1358 -0.1367 -0.1088
23965W        W39434   0.383   5.956   1.302  0.1282 -0.0533 -0.2145
23966W        W39435   4.975  14.200   4.774  0.1595  0.1714  0.3604
23967W        W39436   8.960   4.167   1.553  0.4430 -0.1554 -0.1672
23968W        W39437   8.415  14.651   6.028  0.1449 -0.4551 -0.1952
23969W        W39438   2.933   1.509   5.377  0.2848 -0.2432  0.2326
23970W        W39439   7.140  13.091   2.140 -0.1953 -0.0061 -0.2644
23971W        W39440  17.411   9.006  11.740 -0.0741  0.5467  0.0534
23972W        W39441   4.913  17.285  14.879 -0.3525 -0.3544  0.1085
23973W        W39442  12.370  13.852  12.169  0.0481  0.1552 -0.0428
23974W        W39443   0.158   1.976   5.153  0.4091 -0.0088  0.1404
23975W        W39444   1.813   6.178  15.108  0.2221 -0.1756  0.0177
23976W        W39445   7.975  14.972   5.966 -0.0445  0.2477  0.0616
23977W        W39446   8.980   9.323   0.698  0.0610  0.0620  0.2281
23978W        W39447   5.015   6.541   0.833 -0.0172  0.2867 -0.1773
23979W        W39448  12.698  12.825  14.718 -0.1332  0.0496 -0.2718
23980W        W39449   6.467  17.591   5.294  0.1170  0.0132 -0.1340
23981W        W39450   8.337   7.767  10.605 -0.2573  0.2277 -0.1648
23982W        W39451   7.283   3.563   2.043  0.4577  0.3752  0.4036
23983W        W39452   9.010  15.002  15.387 -0.1930  0.0385 -0.4231
23984W        W39453  18.427  14.668  13.140  0.3971 -0.1729  0.2339
23985W        W39454  10.944   3.893   4.847 -0.1785  0.0527  0.1742
23986W        W39455   8.485   6.530   1.584 -0.0343  0.1707 -0.2569
23987W        W39456   7.225  13.770   4.130  0.0286  0.4222  0.1519
23988W        W39457  11.254   7.781   4.754 -0.0954 -0.3701  0.3602
23989W        W39458   4.634   6.751   4.282  0.0609 -0.0642 -0.1600
23990W        W39459  10.632   0.167   0.984 -0.3158  0.2322  0.1437
23991W        W39460  16.989   1.346   1.373  0.4441 -0.1624 -0.0789
23992W        W39461  10.994  16.845   1.981 -0.0404  0.3587  0.1958
23993W        W39462   8.073   1.205  10.736  0.3112  0.1029 -0.4236
23994W        W39463  17.467  11.253   9.648  0.2655 -0.0315  0.0514
23995W        W39464   7.864   3.449   0.639  0.2398  0.2848 -0.2482
23996W        W39465  16.092   4.818   3.798  0.0145 -0.0626 -0.0346
23997W        W39466   5.681   5.142   1.985 -0.0531 -0.0400  0.3532
23998W        W39467   4.237  15.299  12.329 -0.3440 -0.2154 -0.1383
23999W        W39468  17.595   4.750   4.345 -0.1020  0.2852 -0.0054
24000W        W39469   4.274  16.446  11.446  0.2580 -0.1485 -0.0820
24001W        W39470   4.644  10.401   0.722 -0.0332 -0.0959 -0.0361
24002W        W39471   9.985  13.486  12.906  0.1144 -0.1672 -0.2797
24003W        W39472   3.439   6.932   0.174 -0.3785  0.1898  0.0520
24004W        W39473  15.242  10.102   1.406 -0.0808  0.1283 -0.0381
24005W        W39474   6.136  10.582   0.372 -0.0511 -0.1565  0.0772
24006W        W39475   7.178  14.439   3.013  0.3870  0.0669  0.0035
24007W        W39476   1.968   5.626   3.047  0.1448 -0.6742  0.0062
24008W        W39477  10.301  12.320  10.573 -0.0125 -0.2057 -0.4150
24009W        W39478  14.022  14.134   3.618 -0.1209 -0.1421  0.1012
24010W        W39479  14.996   2.549  14.905 -0.0211 -0.0731 -0.0629
24011W        W39480  12.841  15.015  14.432 -0.0578 -0.0877  0.1729
24012W        W39481   0.899   8.115   2.366  0.2773 -0.2565  0.0834
24013W        W39482   3.899  14.196  14.251 -0.0036  0.2497 -0.0627
24014W        W39483   1.237   7.189   0.422  0.0344 -0.1536  0.1984
24015W        W39484  16.589  16.621   4.075  0.2920 -0.2112 -0.0912
24016W        W39485   8.461  10.557   4.417  0.1156 -0.2927 -0.1389
24017W        W39486   2.195  18.619  11.212  0.0780  0.4971  0.2730
24018W        W39487   8.393   7.269   5.356  0.1010 -0.2033  0.4665
24019W        W39488   2.340  12.155   2.216  0.0088  0.1157 -0.0762
24020W        W39489  16.808  14.571  13.369 -0.0369  0.3915 -0.0353
24021W        W39490   7.831  14.396  15.435 -0.0162 -0.1688 -0.1771
24022W        W39491   8.995   2.303  14.233  0.0804  0.0688  0.0153
24023W        W39492   8.910   6.485   5.239 -0.3910 -0.2598 -0.1204
24024W        W39493  17.857   1.382  13.577 -0.2151 -0.1507  0.0259
24025W        W39494   9.296  15.827   1.105  0.1519  0.1797  0.0706
24026W        W39495  16.897  13.185   2.170  0.0708 -0.1824 -0.0946
24027W        W39496   8.486  11.498   3.856 -0.0353 -0.0629 -0.0584
24028W        W39497  15.182  16.885  15.566 -0.2802  0.1828 -0.1018
24029W        W39498   3.600  13.544   2.058  0.3351 -0.0130  0.1903
24030W        W39499   2.974  13.432  13.635 -0.1112  0.0167 -0.0278
24031W        W39500  15.733  18.198   3.760 -0.3062  0.1934  0.1996
24032W        W39501   8.614   9.015   0.935 -0.1620  0.4303 -0.2502
24033W        W39502   6.248   7.740  10.804 -0.2345  0.0197  0.0926
24034W        W39503   9.342  17.874  15.025 -0.2027 -0.1456  0.2348
24035W        W39504   4.394   6.593  15.003 -0.2009  0.0936 -0.1514
24036W        W39505  16.238  10.991   3.145  0.1051 -0.1208  0.4251
24037W        W39506   1.352   4.950  15.432  0.3070 -0.1167 -0.0689
24038W        W39507  10.705  14.193   3.217  0.0781  0.1087 -0.1111
24039W        W39508  18.531  10.631   1.616 -0.1866 -0.1385  0.2882
24040W        W39509  18.683   6.871   0.778 -0.2921  0.2894 -0.1763
24041W        W39510  13.837   7.730   2.063 -0.0593  0.0043  0.0735
24042W        W39511   5.751  13.038  13.206 -0.1558 -0.1335  0.3859
24043W        W39512   3.443   0.718   2.332 -0.0033 -0.2846  0.4761
24044W        W39513  15.319   1.989   0.878  0.2066  0.1683 -0.0395
24045W        W39514   5.361  11.398  13.835 -0.4414 -0.1926 -0.0607
24046W        W39515  10.203  12.411  13.502  0.1959 -0.0903 -0.0036
24047W        W39516  18.273   5.782  15.185  0.0298  0.3776  0.0459
24048W        W39517  10.065   0.899  10.096  0.2041  0.0069  0.0932
24049W        W39518  17.789   4.471  10.958  0.1012 -0.2590 -0.1115
24050W        W39519  17.404   3.109   2.749 -0.1697 -0.3947 -0.1000
24051W        W39520   3.154   7.065   3.615  0.3447  0.0893 -0.1514
24052W        W39521  13.586   7.294  14.737 -0.0550 -0.1350 -0.0064
24053W        W39522   2.607  14.625  15.634 -0.0005  0.0898 -0.3899
24054W        W39523   9.339  17.186  12.548  0.0180 -0.1387  0.2957
24055W        W39524   0.416  17.022   4.212 -0.1258 -0.1759  0.4305
24056W        W39525   1.669   0.004   0.855 -0.1982  0.3961 -0.0940
24057W        W39526   5.150   7.134   2.081 -0.0579 -0.0999 -0.1534
24058W        W39527  11.504  17.825  13.911 -0.1656  0.0916 -0.1300
24059W        W39528  10.111   1.116   3.922  0.2426 -0.0306  0.0551
24060W        W39529   4.667   8.629   2.944 -0.0358 -0.0464  0.2032
24061W        W39530   7.206  16.170   2.492 -0.4357 -0.1683 -0.0147
24062W        W39531   3.328  12.845  12.622 -0.0007  0.3939  0.2079
24063W        W39532  11.272   4.984  15.726 -0.0013  0.1250 -0.1690
24064W        W39533  16.939   9.626   0.833  0.1803  0.4617  0.4002
24065W        W39534  14.291  15.736   0.044  0.1480  0.2866 -0.2110
24066W        W39535   0.027  15.443  10.103 -0.2730  0.1034 -0.0493
24067W        W39536   3.513   9.078   0.561  0.0725  0.1024  0.1732
24068W        W39537   4.095  17.480   0.182  0.0313 -0.5400  0.0630
24069W        W39538   9.484  16.181   3.080 -0.1261  0.2321 -0.1545
24070W        W39539   9.335   6.753   5.352  0.1462 -0.0366 -0.1305
24071W        W39540  15.591   0.469   3.547 -0.0075 -0.1059 -0.2716
24072W        W39541  13.441  11.113   2.371  0.0559 -0.1334  0.2871
24073W        W39542   7.204   1.967   2.631  0.3002  0.0844  0.0932
24074W        W39543  18.515   7.253   4.995 -0.1975 -0.1291  0.1655
24075W        W39544   2.726  11.343  11.958 -0.1331 -0.0847 -0.0978
24076W        W39545   9.915   3.622   3.045 -0.1212 -0.1209 -0.3525
24077W        W39546  17.783  14.005  14.762  0.5345  0.3153  0.1397
24078W        W39547  12.461   9.188   1.699 -0.0921 -0.0302 -0.0666
24079W        W39548   0.967  15.152   1.802  0.0217  0.1688  0.1669
24080W        W39549   2.056   3.325   2.735  0.1880  0.0344 -0.0117
24081W        W39550  11.833   9.687   5.098 -0.2353 -0.2384 -0.3545
24082W        W39551   6.232   9.967   0.369 -0.0898 -0.0258  0.2587
24083W        W39552  15.444  16.081  13.040  0.0099  0.0705  0.1360
24084W        W39553  17.523  14.822   1.798 -0.3130 -0.2537  0.1548
24085W        W39554  15.523  13.676  15.759 -0.0059  0.0691 -0.0208
24086W        W39555  16.082   6.582  11.031 -0.0695 -0.5916 -0.3649
24087W        W39556  13.507  11.239   6.110  0.2062 -0.3409 -0.1790
24088W        W39557   7.497  13.645   1.117 -0.0086  0.1037  0.1754
24089W        W39558  15.206  15.573  12.312  0.0515 -0.0324  0.2630
24090W        W39559  13.729   7.225   0.170  0.0857  0.0898  0.2937
24091W        W39560   4.936   1.485   2.050  0.1172  0.3968 -0.0579
24092W        W39561  15.041  13.316  11.247 -0.0076 -0.1739  0.0046
24093W        W39562   3.276   7.022  11.000 -0.2589  0.0998 -0.0876
24094W        W39563   4.157   4.811  12.343 -0.1076  0.0418  0.0691
24095W        W39564  10.323  18.694   2.542  0.2056  0.0727 -0.0424
24096W        W39565   5.416   3.314   0.651 -0.0823  0.2309  0.0501
24097W        W39566   0.998   1.670   2.698  0.1257  0.0030  0.1621
24098W        W39567  13.892   5.338  14.456 -0.2587  0.1863 -0.1637
24099W        W39568   2.302   2.090   1.403  0.2474 -0.3054  0.4391
24100W        W39569   1.268  11.394   3.952  0.2224 -0.1750 -0.0098
24101W        W39570  15.539   5.653   1.646 -0.2466  0.4799 -0.2271
24102W        W39571  16.746   7.983   1.647  0.1405 -0.1983  0.0924
24103W        W39572  12.641  10.775  13.895 -0.3992 -0.0277  0.2988
24104W        W39573  16.534  18.459  13.503  0.3750 -0.0851 -0.1847
24105W        W39574   3.933  12.240  14.383  0.1634 -0.2719 -0.1676
24106W        W39575   2.386   8.873  13.873 -0.0311  0.2199 -0.2064
24107W        W39576   4.392   1.918  14.802  0.2895 -0.1968 -0.3849
24108W        W39577  10.784   8.939   0.655  0.0040 -0.1003 -0.2241
24109W        W39578  18.382   4.737   3.244  0.1920  0.1475  0.0841
24110W        W39579   6.180   6.449  12.020 -0.3163  0.1659 -0.1029
24111W        W39580   9.901  16.103  12.463 -0.1159  0.2651  0.3165
24112W        W39581  16.340   0.574   2.978  0.0341  0.3256  0.2951
24113W        W39582  14.560   6.802   4.900  0.0945 -0.0074  0.1548
24114W        W39583   7.956   7.107   5.124  0.0459  0.3517 -0.1952
24115W        W39584  17.075  15.873  10.326  0.2098  0.1720 -0.0700
24116W        W39585   1.404   5.784  10.463 -0.0605  0.1126 -0.1163
24117W        W39586   5.620   2.357   1.322  0.0540 -0.1052  0.1844
24118W        W39587  16.485  18.246   1.232 -0.1020 -0.1299 -0.0845
24119W        W39588   1.364   3.913  12.631  0.1149 -0.0803  0.2707
24120W        W39589  14.253   3.398   5.390 -0.0124 -0.0968 -0.1810
24121W        W39590   5.226  12.915   2.275 -0.3882 -0.3377 -0.0605
24122W        W39591   8.588  10.573   1.337 -0.0443 -0.0522  0.1345
24123W        W39592   4.216  10.483  15.576  0.2125  0.0841  0.1933
24124W        W39593   9.623  11.550   2.336  0.3291 -0.3056 -0.2520
24125W        W39594  12.539   5.210   2.064 -0.3778  0.2877  0.0706
24126W        W39595  11.683  12.609   5.360  0.0808  0.3177 -0.0784
24127W        W39596   7.398  17.506   4.108  0.0555 -0.0267  0.1740
24128W        W39597   6.539   0.369  13.081 -0.4096 -0.1544 -0.3570
24129W        W39598  13.484   0.469  15.466  0.1178  0.1785 -0.1592
24130W        W39599   1.989   4.702   3.065 -0.1263  0.0663 -0.0640
24131W        W39600  18.503   0.174   2.349  0.3631  0.0283  0.1706
24132W        W39601  17.137  14.370  13.985  0.1128 -0.0822 -0.0414
24133W        W39602  10.340   2.608  13.048 -0.0391 -0.1274  0.2508
24134W        W39603  14.145  18.256   0.173  0.0292  0.1604 -0.1362
24135W        W39604   0.190   3.518  15.041 -0.3382  0.0182 -0.3845
24136W        W39605   4.788   4.394  12.272  0.0501  0.3164 -0.0768
24137W        W39606   2.267  14.096   2.456 -0.0126  0.1925 -0.0115
24138W        W39607   4.759   2.325   9.752  0.3339  0.0825 -0.0638
24139W        W39608  18.671   7.238   3.023 -0.0391  0.3564 -0.0751
24140W        W39609   8.521  13.370  13.262  0.0032 -0.1236 -0.0772
24141W        W39610  17.223   3.658   2.779 -0.0787 -0.0482 -0.0734
24142W        W39611  12.323   8.917   1.341  0.3407 -0.1931 -0.1365
24143W        W39612  11.867   2.232  14.766 -0.1258  0.1589  0.0094
24144W        W39613  16.132   8.909  12.210 -0.0117 -0.0389 -0.0106
24145W        W39614  17.905   3.401   4.605 -0.3092  0.3381 -0.1819
24146W        W39615   3.610   5.445   1.910 -0.0278 -0.0622  0.0391
24147W        W39616   0.545  13.044   3.228 -0.0433  0.0144  0.1049
24148W        W39617  11.130   5.864   2.654  0.0521 -0.0281 -0.0628
24149W        W39618   9.227   4.474  11.958 -0.3242  0.0528 -0.0610
24150W        W39619   3.764   2.867  10.739  0.0059 -0.0921 -0.0314
24151W        W39620  16.049   0.282   3.715  0.0915  0.0206  0.1067
24152W        W39621  17.268  18.390  14.746 -0.0342 -0.2345 -0.2105
24153W        W39622  15.603   2.706   3.145 -0.0091 -0.0623 -0.0600
24154W        W39623   4.213  12.828  13.680 -0.1857  0.0844  0.3241
24155W        W39624  15.139   3.458  14.030  0.0449  0.0445  0.3759
24156W        W39625   2.014  11.512  11.265 -0.1034 -0.2070  0.1434
24157W        W39626   1.737   6.862   5.169 -0.0114 -0.0496 -0.0475
24158W        W39627  13.784   6.138   2.850  0.0317 -0.2458 -0.1653
24159W        W39628   8.367   4.937  15.716  0.1272  0.0812  0.2879
24160W        W39629   6.140  16.847   3.996 -0.2128 -0.2461 -0.0320
24161W        W39630   5.598  17.870  12.193  0.2359 -0.1009 -0.0305
24162W        W39631  17.433   2.228  15.188  0.0045 -0.2458  0.2745
24163W        W39632   8.018  11.589   3.388  0.0340  0.1314  0.1381
24164W        W39633  12.516  17.575   2.056 -0.0438 -0.1234 -0.0193
24165W        W39634   7.811  16.523  12.767 -0.1020  0.0665  0.0822
24166W        W39635  11.227  18.534   2.756 -0.3259 -0.2163 -0.0846
24167W        W39636  16.392  14.513   2.572 -0.0121 -0.1374  0.4718
24168W        W39637  11.292   2.759  13.377 -0.2582  0.1146  0.0184
24169W        W39638   8.329  12.615  12.831 -0.0435 -0.0125 -0.0091
24170W        W39639   5.115  13.300  12.265 -0.1068 -0.1279 -0.5472
24171W        W39640   2.849   2.092   2.118 -0.0558  0.2886 -0.4788
24172W        W39641   2.176  15.966   4.290 -0.0795 -0.1020  0.3499
24173W        W39642   7.313  11.653  13.795 -0.3417  0.0848 -0.1733
24174W        W39643  17.878  18.319   2.813  0.3141 -0.0215  0.3352
24175W        W39644   5.692   7.563   0.130 -0.1257  0.2121  0.1520
24176W        W39645   1.615   0.676  10.803 -0.1024 -0.1142 -0.0140
24177W        W39646  12.149   0.936   5.088 -0.3816 -0.0317 -0.2712
24178W        W39647  17.930  12.156   0.857  0.0865 -0.0889  0.3052
24179W        W39648   4.671   2.341  13.985  0.0089  0.0297  0.0096
24180W        W39649   7.862  15.890   2.438  0.1028  0.0475  0.2271
24181W        W39650  11.787   4.397   0.569  0.0399  0.1630  0.1312
24182W        W39651   2.066   9.779  11.437 -0.1057 -0.2161  0.1022
24183W        W39652   5.764  12.306   4.493  0.0301  0.1323  0.1577
24184W        W39653  16.609  15.778  12.230 -0.2405  0.0548  0.1857
24185W        W39654  17.558  11.610  12.165  0.2861 -0.1930 -0.1770
24186W        W39655  16.653   5.702   3.478 -0.0902  0.2925  0.3653
24187W        W39656   4.731   4.001   4.727  0.1022  0.0060  0.1309
24188W        W39657  17.205   2.172   2.669 -0.1792 -0.0527  0.1580
24189W        W39658   1.226  14.510   2.387  0.0028 -0.3203 -0.1656
24190W        W39659   3.716  14.774  11.244 -0.0771 -0.0982 -0.0569
24191W        W39660   3.259  14.736  14.162 -0.2926 -0.0612 -0.0836
24192W        W39661  16.025   1.145   4.979 -0.3711 -0.0375 -0.0958
24193W        W39662   0.686   7.733   5.459  0.0582 -0.1883  0.1920
24194W        W39663   5.666   4.818  13.798 -0.0080 -0.1395  0.1972
24195W        W39664   9.173  17.465  12.910 -0.3254  0.2069  0.1299
24196W        W39665   7.873   1.236  14.921  0.0362 -0.0459  0.0326
24197W        W39666   7.768  16.199   4.709  0.2458  0.1295  0.1829
24198W        W39667  13.437  10.043  13.593 -0.0718  0.2474 -0.2332
24199W        W39668  17.190   0.787   4.603 -0.0276  0.2043 -0.1696
24200W        W39669  16.364   8.003  12.395 -0.0239  0.2074 -0.1212
24201W        W39670  14.324   7.673   3.818 -0.1969 -0.2345 -0.0420
24202W        W39671   2.860  18.141  10.270 -0.0074  0.2457  0.0253
24203W        W39672  11.305  11.032  11.695 -0.0149 -0.2660  0.2859
24204W        W39673  18.268   8.468  15.639  0.4989  0.3571  0.1570
24205W        W39674  16.395  18.131  10.443  0.1790 -0.0835 -0.0671
24206W        W39675   9.100   7.649   4.599  0.1250 -0.1700 -0.2352
24207W        W39676   7.359   8.442   1.479 -0.3726 -0.0950 -0.1001
24208W        W39677  18.693   4.756  10.668 -0.2730 -0.1419 -0.2446
24209W        W39678  17.852   0.832  14.474 -0.2861  0.1979  0.1225
24210W        W39679   6.942  14.222   2.218 -0.0266  0.0814  0.1843
24211W        W39680  12.036   3.563  13.247  0.2922 -0.0514  0.3050
24212W        W39681  10.060   4.824   1.301  0.3849  0.0047  0.0194
24213W        W39682  10.352   2.279   0.213 -0.2799  0.0456 -0.1409
24214W        W39683   5.281  14.114  13.429 -0.1021  0.0386  0.1316
24215W        W39684   9.891  10.573   2.883 -0.4806 -0.3708  0.0497
24216W        W39685  13.718  12.931   3.604 -0.0833 -0.0403  0.1649
24217W        W39686  14.705   5.870  10.823  0.2759 -0.0120  0.0219
24218W        W39687  18.334   2.246   5.156 -0.1179 -0.1335 -0.2369
24219W        W39688  15.922  13.697  13.316  0.1139  0.0898 -0.2325
24220W        W39689  15.816  16.742  10.998  0.1676  0.0024 -0.1511
24221W        W39690  17.780   5.650  15.130  0.3038 -0.2367  0.2523
24222W        W39691  16.710  12.562  14.900  0.1351  0.3423  0.1292
24223W        W39692  14.770  15.009   9.650 -0.5262 -0.1063 -0.2859
24224W        W39693   9.636   0.059  15.115 -0.1831  0.1282  0.2559
24225W        W39694   7.632  11.971   4.120  0.1137 -0.1577 -0.0685
24226W        W39695   4.230   8.530  13.189 -0.0573 -0.1725  0.0185
24227W        W39696   2.726   8.964   1.902  0.2200 -0.2026  0.1307
24228W        W39697   6.772   7.940  15.564 -0.0807  0.1953  0.2740
24229W        W39698  13.019  11.222   0.231  0.1636  0.1815 -0.2276
24230W        W39699   3.513  14.068   4.001 -0.1542  0.1938 -0.2693
24231W        W39700   1.517  15.156  12.723 -0.5122 -0.0486 -0.1262
24232W        W39701   4.678  14.641  10.495 -0.0306  0.0858  0.1487
24233W        W39702  14.264  12.905  11.437  0.0287  0.4002 -0.3030
24234W        W39703  14.554   2.122  14.462  0.2339 -0.0500  0.2008
24235W        W39704   9.295   8.862   4.236 -0.4768  0.5218 -0.1052
24236W        W39705  11.925  13.248   5.857  0.0875 -0.0551  0.0837
24237W        W39706   9.791   5.263   2.904 -0.0213 -0.0198  0.0693
24238W        W39707   7.705   2.111   9.459  0.0434 -0.1975  0.0882
24239W        W39708   6.344   4.777  13.016  0.1417  0.0420 -0.0198
24240W        W39709   1.930  13.501   3.459  0.0277  0.1121  0.0520
24241W        W39710  10.428  13.439   0.510 -0.0227  0.1292  0.0520
24242W        W39711   3.572   6.885  13.841  0.0158  0.1411  0.1675
24243W        W39712   7.419   1.660   4.794 -0.2455 -0.0297  0.1079
24244W        W39713  11.882  13.861   4.157 -0.4405  0.1579  0.2048
24245W        W39714  13.159  15.466  10.379  0.1248 -0.1507 -0.1209
24246W        W39715   4.616   0.317   0.562 -0.0592 -0.1887 -0.0516
24247W        W39716   4.837  12.795  11.598 -0.0747 -0.2777 -0.4823
24248W        W39717  11.102   7.222   2.656 -0.3416  0.0127  0.4873
24249W        W39718  17.372   3.061  11.771  0.1930  0.1404  0.2230
24250W        W39719   6.340   3.333  12.580 -0.1467 -0.2450 -0.4029
24251W        W39720  12.820  10.248  11.091 -0.1972  0.2175 -0.1721
24252W        W39721  14.929   2.381   3.364 -0.2485 -0.1283 -0.0264
24253W        W39722  16.542  10.711   4.853 -0.0522 -0.0611 -0.0859
24254W        W39723  12.553   8.465  13.725 -0.0508 -0.0693  0.1029
24255W        W39724   5.122   0.554   0.659  0.1483  0.0847 -0.0179
24256W        W39725   2.425   7.600   5.148 -0.1358 -0.0971 -0.2575
24257W        W39726   1.391  18.240  15.415  0.0213 -0.2250  0.0834
24258W        W39727   0.628  18.047   4.607  0.1020  0.2862 -0.0495
24259W        W39728  16.199   7.162  13.389 -0.0487  0.2681 -0.3675
24260W        W39729   2.332  16.934  14.031  0.0028 -0.2216 -0.0169
24261W        W39730   4.857   7.167  13.362 -0.0028  0.0533 -0.0647
24262W        W39731   2.582  17.060  14.482  0.1835  0.2260  0.0609
24263W        W39732   1.630  11.501  14.497  0.3634 -0.1028  0.0151
24264W        W39733   3.273   6.455  13.613  0.1479 -0.3283 -0.2406
24265W        W39734   9.169   7.237  11.822 -0.0885  0.2368 -0.1071
24266W        W39735   7.507   8.905   1.789  0.1229  0.0471 -0.1291
24267W        W39736   3.756   8.095  10.141 -0.1391 -0.1269  0.1017
24268W        W39737  12.604  11.069  11.328  0.0245 -0.1536 -0.1885
24269W        W39738  15.972   6.064  10.266  0.1669 -0.1317  0.0118
24270W        W39739   6.757  18.174  10.697 -0.1129  0.0079  0.2849
24271W        W39740  17.656  18.034  14.736 -0.0472 -0.1615  0.1773
24272W        W39741   5.706  10.085  14.115 -0.0321  0.1154 -0.1513
24273W        W39742  10.820  10.611  11.074 -0.0375 -0.1026 -0.0054
24274W        W39743   1.985   9.134  13.093  0.0062  0.1583  0.3280
24275W        W39744   1.135  12.866  12.737  0.0313 -0.2750 -0.2796
24276W        W39745   7.671  15.518  13.986 -0.4814 -0.2669  0.2055
24277W        W39746   5.605   0.402   2.207 -0.1165  0.3812 -0.0877
24278W        W39747   4.626  18.578   0.248  0.0455  0.2425  0.1067
24279W        W39748   0.170   7.693  15.517 -0.4521 -0.3083  0.3723
24280W        W39749   2.246   0.550   1.967 -0.2309 -0.1388  0.0046
24281W        W39750   6.244  18.058   0.664 -0.0326  0.0816  0.5132
24282W        W39751  18.263   8.556   0.731 -0.5869 -0.0278 -0.1680
24283W        W39752   9.738  13.979  11.515  0.1160  0.0653 -0.3027
24284W        W39753  12.027   0.838   3.621 -0.2313  0.0536  0.0660
24285W        W39754  16.926   2.072   0.903  0.0052 -0.7868 -0.0727
24286W        W39755   7.260  17.829  11.366  0.0152 -0.0089  0.0810
24287W        W39756  18.329   1.257   0.229 -0.1396 -0.0905 -0.0744
24288W        W39757   3.847  14.636  12.999  0.0132 -0.0510 -0.1148
24289W        W39758   5.584  14.222  15.765 -0.0658  0.0844  0.0149
24290W        W39759  12.596   3.640   2.443  0.0020 -0.2431  0.2589
24291W        W39760  12.720   4.690  13.303 -0.0616 -0.0827 -0.2052
24292W        W39761   9.070  14.795  14.055 -0.2194 -0.0919  0.0957
24293W        W39762  12.614  15.114   4.178  0.1380  0.1048 -0.0809
24294W        W39763   0.381  16.092  13.879  0.1595 -0.0110  0.1460
24295W        W39764  11.459   0.221   3.171  0.5271 -0.1521  0.4568
24296W        W39765  13.155   4.622   3.367  0.2114 -0.2682 -0.0554
24297W        W39766   1.914  18.662   4.018 -0.0955 -0.3419 -0.3296
24298W        W39767  17.656   6.940  12.115 -0.1287 -0.1159 -0.3894
24299W        W39768  11.004   2.851  14.947  0.0461 -0.3136  0.1417
24300W        W39769  13.588  16.847   2.948 -0.0134 -0.1246  0.2180
24301W        W39770   2.905   2.734  12.722 -0.0823  0.0460  0.1219
24302W        W39771  17.536   1.082  13.843 -0.0514 -0.1829 -0.1906
24303W        W39772   6.390  13.216   5.635  0.0141 -0.0815  0.1044
24304W        W39773   3.473  12.957  12.171  0.4259  0.0256 -0.5455
24305W        W39774   5.999   5.714   3.443 -0.1920  0.3308 -0.2782
24306W        W39775   7.878   7.238  14.847  0.0730  0.0296 -0.0315
24307W        W39776   4.000  10.567  10.802  0.2955  0.2206  0.1417
24308W        W39777   1.736   3.245  10.546  0.1659 -0.0768 -0.4133
24309W        W39778   8.850  15.478   4.850 -0.1766 -0.2518  0.1994
24310W        W39779   2.351   9.369  11.639  0.2230  0.1035 -0.0141
24311W        W39780   3.409  15.371   2.498  0.0201 -0.1598  0.0253
24312W        W39781   7.360   8.185   1.041  0.1911 -0.0277 -0.1054
24313W        W39782   9.262  11.516   4.749  0.1113 -0.1758  0.2533
24314W        W39783   6.587  17.463   2.215  0.2223 -0.0054  0.0401
24315W        W39784   2.835   7.398   1.045 -0.2656 -0.3406 -0.3369
24316W        W39785   6.629   7.965  14.967  0.2044  0.0432 -0.1241
24317W        W39786   0.367   0.835  15.536 -0.3750 -0.2052 -0.2015
24318W        W39787   2.722   8.394   5.778 -0.0880  0.0445  0.0934
24319W        W39788  14.836  12.914   2.826  0.2623 -0.0965  0.0288
24320W        W39789  11.357  11.911  13.956  0.1240 -0.0258 -0.0002
24321W        W39790  13.450   5.508  14.313  0.4834 -0.1062 -0.0675
24322W        W39791  10.228   3.810  11.125 -0.2698  0.2275  0.0341
24323W        W39792   9.826   4.170  15.165 -0.0255  0.0251 -0.1238
24324W        W39793  11.805   1.583   0.027 -0.2494 -0.2810  0.0494
24325W        W39794   6.068   0.669   0.913 -0.1021 -0.2005  0.0961
24326W        W39795  18.470  16.579   4.459  0.1440 -0.2165  0.0373
24327W        W39796   1.633   5.089  11.097 -0.2345  0.1704 -0.0245
24328W        W39797   5.757  14.109  13.303  0.1335 -0.0208  0.1801
24329W        W39798  15.786   1.706   2.790  0.3306 -0.0582 -0.0769
24330W        W39799   5.138  15.472  12.770  0.0705  0.1009  0.4529
24331W        W39800  12.693   5.483   4.732 -0.2192  0.0868 -0.0937
24332W        W39801  18.059   2.857  13.938  0.1057 -0.3039  0.2553
24333W        W39802  14.529   4.672  13.247  0.0076 -0.0552 -0.1431
24334W        W39803   6.203  10.939  12.191  0.2171 -0.2063 -0.0469
24335W        W39804   0.138   5.150  15.136 -0.1231 -0.0027 -0.2355
24336W        W39805  13.984  15.772  15.323  0.2894  0.2642  0.1577
24337W        W39806  11.366  13.767   4.628 -0.0693 -0.0937 -0.1785
24338W        W39807  17.181   6.220   3.531 -0.1029 -0.2928  0.1049
24339W        W39808  15.344  14.260   5.830 -0.0572  0.0832 -0.0249
24340W        W39809  17.061   0.667  12.755 -0.1133 -0.2659 -0.1479
24341W        W39810  10.146  13.531  14.045 -0.1730 -0.0887 -0.0085
24342W        W39811  16.497  17.127  13.936 -0.2868  0.2090  0.2051
24343W        W39812   7.980  14.477   1.551  0.0237  0.2362 -0.0566
24344W        W39813  18.136   5.517  12.453 -0.0020 -0.2970  0.4036
24345W        W39814   9.148  12.511  12.006 -0.2284  0.2164 -0.0256
24346W        W39815   7.469   3.353  11.260  0.0214 -0.0301  0.3757
24347W        W39816   3.282  13.104  14.729 -0.3247 -0.0752 -0.2255
24348W        W39817   5.892  15.181  11.653  0.1833  0.2676  0.3036
24349W        W39818   3.682   2.560  15.087  0.0309 -0.0414 -0.1508
24350W        W39819  17.139   8.933  12.200  0.1398  0.0391  0.2255
24351W        W39820   3.397  18.383   1.595 -0.0352 -0.0814 -0.0101
24352W        W39821  14.338   4.314  14.366  0.1387 -0.1784 -0.0917
24353W        W39822  15.385   9.501   5.206 -0.0527 -0.2219  0.0111
24354W        W39823   1.502   0.826   2.151  0.0889  0.2462 -0.3991
24355W        W39824   7.100  11.116  12.417  0.6020  0.0645  0.0187
24356W        W39825  10.348   1.710   9.644 -0.2683  0.1809  0.2485
24357W        W39826   6.713  12.607   4.062 -0.0057  0.1132  0.1461
24358W        W39827   3.130   2.024   0.880 -0.2111  0.1425 -0.0237
24359W        W39828   6.375   6.007  13.427 -0.0057  0.0191  0.1964
24360W        W39829   6.022   0.256  15.207  0.0460  0.0945 -0.1065
24361W        W39830  14.877  17.109   5.286 -0.0083  0.3975 -0.1326
24362W        W39831   1.331   1.007   4.793  0.0552  0.2833  0.1389
24363W        W39832  10.687   8.471   4.547  0.0318 -0.1240  0.0544
24364W        W39833   9.760  12.677  13.775  0.1820  0.2548 -0.1301
24365W        W39834   3.261  10.884   4.193  0.3461 -0.0320 -0.0458
24366W        W39835   5.738   3.096  11.374 -0.2620  0.1099 -0.0266
24367W        W39836   4.804  13.674  14.755  0.2186  0.3495  0.1905
24368W        W39837   3.729   6.400  13.865  0.0780 -0.0342 -0.0437
24369W        W39838   7.826   9.367   3.879 -0.5134  0.0072  0.3381
24370W        W39839   6.122   7.621   1.028  0.0867 -0.0048 -0.1130
24371W        W39840  11.328   3.462   1.832  0.4492  0.1281  0.1721
24372W        W39841   4.578  17.907  11.560 -0.0122 -0.0384  0.0918
24373W        W39842   8.371  10.579  12.247  0.3501 -0.1568 -0.0555
24374W        W39843   4.705  17.696  15.179  0.1697  0.1140 -0.2919
24375W        W39844  13.150   8.953  14.606 -0.1748 -0.3166 -0.0173
24376W        W39845  13.884   5.905  14.983  0.3153 -0.0461 -0.0692
24377W        W39846  10.559   9.174  14.579 -0.1674 -0.1064 -0.2267
24378W        W39847   6.089  18.497   5.019 -0.0719  0.1676  0.4421
24379W        W39848   1.123  11.161   5.488 -0.1272  0.1358  0.0826
24380W        W39849  17.351  18.637   1.230  0.0085  0.1044  0.2611
24381W        W39850  13.191   1.110   0.549  0.1532  0.0916  0.1797
24382W        W39851  13.855  16.786   2.490  0.1289 -0.1697  0.2342
24383W        W39852  14.476   2.661   5.064  0.2056  0.1112 -0.1165
24384W        W39853  18.655  12.407  11.361  0.1452 -0.1199  0.0647
24385W        W39854  13.775   8.229   3.375 -0.1842  0.1234  0.0177
24386W        W39855  12.145   9.683  15.449  0.0438  0.0748  0.0157
24387W        W39856  16.835  17.896  12.488  0.3550  0.0799  0.1273
24388W        W39857  16.249  16.346  12.003  0.1381 -0.0372 -0.1211
24389W        W39858  14.097  10.153   0.576  0.4469  0.2003  0.1846
24390W        W39859   6.586   5.184  14.086 -0.1599 -0.0045  0.2061
24391W        W39860  14.800   9.064   4.017  0.0907  0.4776 -0.0127
24392W        W39861  10.783  10.095   2.691  0.3188 -0.1573  0.1455
24393W        W39862   6.412  17.455  11.681 -0.1256  0.1413 -0.1138
24394W        W39863  15.691   9.842  10.550  0.1094  0.0858  0.4139
24395W        W39864   3.500   3.145   5.438 -0.1475 -0.3393  0.0254
24396W        W39865  16.228   6.426   4.379  0.1551  0.0669  0.1393
24397W        W39866   7.635   1.851  13.015 -0.3120  0.1222 -0.2358
24398W        W39867   4.247   5.507   0.477  0.2667  0.1126  0.0572
24399W        W39868  16.786   7.153  10.184  0.1596  0.4365 -0.0833
24400W        W39869  10.302   9.739   3.575 -0.2212 -0.1140 -0.2912
24401W        W39870  11.108   1.538  14.485  0.0374  0.1379 -0.1093
24402W        W39871   9.748  12.386  10.409 -0.0358  0.0573  0.1755
24403W        W39872   3.779   3.784   2.592 -0.0299  0.0523 -0.1723
24404W        W39873  12.526   4.707   2.221 -0.2567 -0.0907 -0.1364
24405W        W39874   4.607  15.890   3.127  0.1713 -0.1746 -0.0202
24406W        W39875  12.858   7.658  10.976  0.0166 -0.1629 -0.1180
24407W        W39876   6.888   4.990   4.201  0.0068 -0.0149  0.0113
24408W        W39877   4.404  14.077  12.571  0.1734  0.2423  0.1134
24409W        W39878   1.606  18.225  10.862  0.1010  0.1756 -0.1060
24410W        W39879  12.556   9.012   2.198 -0.0722 -0.2865  0.2113
24411W        W39880   4.691   1.901  14.412 -0.3121 -0.0269 -0.1597
24412W        W39881   3.615  14.071   5.584 -0.1316  0.1741 -0.2355
24413W        W39882  17.012   1.900   1.821 -0.3514  0.0179 -0.0261
24414W        W39883   9.337  18.160   1.990 -0.0269 -0.1773  0.0283
24415W        W39884   4.872  11.683  10.968  0.1199  0.0203  0.2936
24416W        W39885   2.566  17.803   3.169 -0.0424  0.0013  0.1973
24417W        W39886  10.094  18.624   2.989  0.4110  0.3041 -0.2430
24418W        W39887   8.962   3.574  13.106  0.0305 -0.2944 -0.1328
24419W        W39888   5.499   2.118   2.896 -0.2516  0.5388 -0.1688
24420W        W39889   7.467  12.256   2.720  0.2207 -0.0424  0.4566
24421W        W39890  11.112  16.712  11.229 -0.2170 -0.1902  0.2175
24422W        W39891   4.252   6.686   0.400  0.1567  0.0005 -0.1061
24423W        W39892   9.436  13.702   4.884  0.1127 -0.3610  0.1541
24424W        W39893   6.126   2.949  15.546  0.3158 -0.1279  0.1503
24425W        W39894   5.950   3.116   0.663  0.0506  0.0741 -0.0863
24426W        W39895  14.716   8.117   4.953  0.1332 -0.0277  0.1981
24427W        W39896   7.830  18.208  12.486  0.0135  0.0573  0.2365
24428W        W39897   1.365   1.703  14.588 -0.1766  0.3081  0.2008
24429W        W39898  12.999  13.065  13.925 -0.0537 -0.4510  0.2126
24430W        W39899  11.576   5.422   0.069 -0.2243 -0.1923  0.3178
24431W        W39900  16.352   3.067  13.740 -0.1172 -0.0727  0.1976
24432W        W39901   6.012   3.291   4.748 -0.0852  0.0148 -0.3391
24433W        W39902  12.411  13.404   5.398  0.0389 -0.0706 -0.0089
24434W        W39903  13.672   2.709   0.076 -0.0189  0.1493 -0.0496
24435W        W39904   5.730  18.070   3.125  0.2342  0.2777  0.0402
24436W        W39905   1.506  14.998   5.435  0.3055 -0.0305 -0.1679
24437W        W39906   8.929   3.068  12.297  0.1805  0.0587  0.2291
24438W        W39907   5.529   6.841   0.668 -0.0973 -0.2345 -0.0285
24439W        W39908  10.991   8.689   4.856 -0.0359  0.1237  0.1858
24440W        W39909   9.419   8.127   3.631 -0.1505  0.0341 -0.0994
24441W        W39910   4.232  10.053  15.380  0.2049  0.0494  0.2288
24442W        W39911  18.314  17.807  14.141 -0.1402 -0.2834  0.0856
24443W        W39912   4.423   8.061   0.190  0.3928 -0.5533 -0.2929
24444W        W39913  12.920  18.145   0.127 -0.1560 -0.0690  0.0054
24445W        W39914  16.318   8.451  10.587 -0.0214  0.0047 -0.0822
24446W        W39915   1.837   6.306   1.308  0.0088  0.0643  0.4928
24447W        W39916  18.111  17.640   1.702  0.3925 -0.0071 -0.1438
24448W        W39917  15.112   7.735  15.601 -0.2659  0.0552  0.1934
24449W        W39918   3.357  11.078   1.861  0.3032 -0.2517  0.3941
24450W        W39919   8.626   6.420  11.254  0.1289 -0.0024 -0.0325
24451W        W39920  15.402   3.835  11.256  0.0375  0.1614  0.2299
24452W        W39921   8.985   2.730  13.336 -0.0623 -0.1336  0.1816
24453W        W39922   7.366  15.117   2.412  0.0980 -0.0855 -0.0169
24454W        W39923  13.485   9.770   3.163  0.2077 -0.1049 -0.1308
24455W        W39924   7.995  15.912   5.079  0.0132 -0.1174  0.2842
24456W        W39925   6.839   3.424   4.223 -0.2823 -0.2223 -0.0671
24457W        W39926  13.851   4.379  15.774 -0.1539  0.2633  0.2671
24458W        W39927  14.014   7.239  12.302  0.1423 -0.2113 -0.0954
24459W        W39928  17.030   7.067  15.571  0.1473  0.1149 -0.2096
24460W        W39929  13.870   3.860  14.172  0.0333  0.1871  0.1096
24461W        W39930  12.419  13.740   2.395 -0.1432  0.0836  0.1456
24462W        W39931   7.940   7.172   0.506 -0.2572  0.1635 -0.1019
24463W        W39932   5.373  10.793  11.879 -0.0219 -0.2355  0.7261
24464W        W39933  16.114  13.101   4.072  0.0073 -0.3515  0.2032
24465W        W39934  10.939  18.243  12.271  0.1403 -0.1052 -0.1661
24466W        W39935   4.898   6.216   3.608  0.1385  0.0410 -0.0048
24467W        W39936   3.930   1.369  10.545  0.1371 -0.3370 -0.2229
24468W        W39937   4.854   9.206   1.307  0.3321  0.4208 -0.2733
24469W        W39938   2.940  13.079  10.933  0.0427 -0.2330  0.1919
24470W        W39939   3.375  16.505  13.780  0.0532 -0.1075  0.1100
24471W        W39940   0.800   3.264  13.602 -0.0231 -0.0861 -0.1732
24472W        W39941  14.433   8.016   2.355 -0.1823 -0.3900 -0.1761
24473W        W39942   2.842  11.680   4.589 -0.2866  0.0850 -0.0032
24474W        W39943   5.302   2.813   0.273  0.2566 -0.1620 -0.1045
24475W        W39944  12.857   8.007  11.294 -0.0707  0.3912 -0.0827
24476W        W39945   5.848   1.411   2.576  0.0669  0.2365  0.1586
24477W        W39946   5.668   7.791   1.925  0.2095  0.0766  0.2540
24478W        W39947  10.971  13.920   5.061 -0.4071  0.2433 -0.0653
24479W        W39948   7.737  11.436   5.496 -0.0385  0.4683  0.2546
24480W        W39949   6.552  11.757   4.971 -0.0617  0.0422  0.1641
24481W        W39950   4.482   2.626   3.661  0.1321 -0.2397  0.3383
24482W        W39951  11.813  18.462   1.495 -0.2592 -0.0120 -0.0249
24483W        W39952  18.196   3.105   2.359 -0.1609  0.0288  0.2605
24484W        W39953   9.782   5.691   4.310 -0.0854  0.3356  0.1914
24485W        W39954   0.845   9.046  10.158 -0.0446 -0.0694 -0.0420
24486W        W39955  17.487  12.336  11.511  0.2268  0.1384  0.1723
24487W        W39956   4.500   1.888   1.274  0.2282  0.1430  0.1549
24488W        W39957  10.187   2.540  11.911  0.1047 -0.2317 -0.0599
24489W        W39958  10.289  15.205   4.121 -0.1366  0.0411  0.5832
24490W        W39959  17.952  13.786  13.526  0.0237  0.2196  0.1090
24491W        W39960   4.760   8.107   6.395 -0.1309  0.0627 -0.2633
24492W        W39961  12.531   8.355   0.753  0.4239 -0.0187  0.1227
24493W        W39962   1.256  17.261   4.654 -0.1192 -0.2398 -0.0482
24494W        W39963   2.903   9.451  13.876 -0.0405 -0.0452 -0.0793
24495W        W39964  15.685   6.583  11.715 -0.3603 -0.1684 -0.2543
24496W        W39965  11.845  10.192  14.100  0.0436 -0.0738  0.2307
24497W        W39966   3.478   4.984  11.624 -0.0534 -0.0784  0.0288
24498W        W39967  11.381   3.822   3.491  0.1162 -0.1533 -0.1959
24499W        W39968  14.952  17.174   2.920 -0.1378 -0.1388 -0.1316
24500W        W39969  11.192  14.657  14.543  0.3041  0.0208 -0.0897
24501W        W39970  14.334   1.129   1.316  0.0217  0.2457 -0.2486
24502W        W39971   8.624   4.326  13.217 -0.4556 -0.2135 -0.1496
24503W        W39972  10.344  18.202   2.581  0.1652 -0.1816 -0.3384
24504W        W39973   6.604  13.569   2.837  0.1170  0.0355 -0.0514
24505W        W39974  11.013   7.566  15.627  0.3272 -0.0815  0.3130
24506W        W39975  17.509   1.381  11.059  0.0678 -0.1548  0.0766
24507W        W39976  13.649   2.105   0.425 -0.0705  0.1681  0.0663
24508W        W39977  12.341   0.911   4.534 -0.3722  0.0452 -0.2681
24509W        W39978   2.219   3.364  10.766 -0.2769  0.0035  0.1520
24510W        W39979  12.991  14.220  14.938 -0.1175 -0.0050  0.0874
24511W        W39980  12.045  13.526   2.679  0.1370  0.0004  0.1514
24512W        W39981   7.815   0.738   1.495 -0.2047  0.0900  0.1782
24513W        W39982   8.997   2.850  14.388 -0.3483  0.3548 -0.1357
24514W        W39983   1.227  16.134   1.721 -0.1250 -0.0420 -0.0397
24515W        W39984  12.638   2.387  10.926 -0.2234  0.0126 -0.3670
24516W        W39985  18.300   3.916  11.591  0.1501  0.1107  0.0586
24517W        W39986  15.962  14.402   5.051  0.1405  0.1945  0.0281
24518W        W39987  14.292  10.815  11.654  0.1165  0.2146 -0.1099
24519W        W39988   5.296   8.126  11.529  0.0199  0.3569 -0.1798
24520W        W39989  11.858   5.912   4.429 -0.0426 -0.0694  0.3860
24521W        W39990  16.980  16.356  10.955 -0.1230  0.0892  0.2513
24522W        W39991  13.820   6.316   0.104  0.4036  0.1410 -0.4417
24523W        W39992  10.178   9.647   4.033 -0.1870  0.1259  0.1416
24524W        W39993   1.151  15.577   1.666 -0.1064  0.0793 -0.1906
24525W        W39994  14.572  10.096  10.211  0.0022  0.1570  0.2583
24526W        W39995   0.242   3.864   2.381  0.0008 -0.1330  0.0372
24527W        W39996   6.084   1.211   3.245  0.0080  0.1157 -0.0067
24528W        W39997   2.851   4.593   3.825  0.3378 -0.0764 -0.0437
24529W        W39998  11.240  12.866  15.155  0.3353  0.2826  0.0142
24530W        W39999   4.205   9.638   1.872 -0.0811  0.1418 -0.1148
24531W        W40000   9.153  12.721   3.665  0.0537  0.0287  0.0552
24532W        W40001   6.427   7.290  13.596  0.2013 -0.2588 -0.1724
24533W        W40002  11.781   9.602   1.993  0.3402  0.1056  0.1319
24534W        W40003   9.985  15.415  14.360  0.2969  0.1355 -0.1786
24535W        W40004  18.469   9.603  11.109  0.0680 -0.2173 -0.0994
24536W        W40005   0.376  12.693  13.276  0.1258  0.0279 -0.0885
24537W        W40006  10.811  12.518  15.409 -0.1614  0.1435 -0.0343
24538W        W40007   5.625   0.143  15.461  0.1170 -0.1634  0.3207
24539W        W40008   9.695   2.435   0.688 -0.1944  0.0413  0.1024
24540W        W40009   9.860  10.716   0.634  0.0386 -0.1562  0.0943
24541W        W40010   3.411   7.902  13.130  0.0589  0.0950  0.0327
24542W        W40011   1.460   6.800   4.583  0.4264  0.0186 -0.0114
24543W        W40012   8.628   9.860   5.143  0.0563 -0.0313  0.2909
24544W        W40013  14.452   4.143   4.098 -0.4367  0.0672 -0.1137
24545W        W40014   6.862   2.797  12.941 -0.1644  0.0359  0.0763
24546W        W40015   8.617  16.502   2.518  0.2254 -0.0174  0.1948
24547W        W40016   6.524   8.360   5.367 -0.0211 -0.0179 -0.0126
24548W        W40017  16.393   4.965  15.782  0.0157  0.1677 -0.3246
24549W        W40018   9.732  13.273  15.503 -0.0781  0.2889  0.0808
24550W        W40019  17.128   4.822   3.967 -0.2331  0.1728 -0.1097
24551W        W40020  12.691  17.711  13.972 -0.0090 -0.2622  0.0584
24552W        W40021  14.130  13.146  12.782 -0.0769 -0.4202 -0.5094
24553W        W40022   2.850  12.287   4.456  0.2220 -0.0624  0.0447
24554W        W40023  13.780   5.481  15.316 -0.0263 -0.0594 -0.0011
24555W        W40024   4.387   3.626  10.794  0.2861 -0.0695  0.1156
24556W        W40025   4.354  17.475  12.527 -0.0765  0.3412  0.0002
24557W        W40026  17.249   1.319   2.303 -0.2286  0.0865 -0.1418
24558W        W40027  17.102   9.711  11.774  0.1528 -0.1696 -0.2440
24559W        W40028  14.825   2.076  11.505  0.1565 -0.0964  0.1462
24560W        W40029   3.638   7.741   3.978  0.1853  0.2129  0.0137
24561W        W40030   3.636  15.877  12.143  0.3361 -0.0086  0.0927
24562W        W40031  12.337   2.954   0.492  0.0673 -0.4628 -0.2743
24563W        W40032  14.518  13.541  13.951  0.2815  0.2138  0.2244
24564W        W40033   9.783  11.297  10.667  0.3284  0.0480 -0.0023
24565W        W40034   5.953   0.012   3.478 -0.1163 -0.0023  0.1918
24566W        W40035   2.544  13.760  14.880 -0.0345 -0.1929  0.0232
24567W        W40036   4.243  10.097   3.311 -0.1191  0.0756 -0.0025
24568W        W40037  15.278   4.349   2.274  0.1014  0.1316  0.0559
24569W        W40038   5.635   4.971   5.643 -0.1727 -0.0023 -0.3085
24570W        W40039  11.509  15.162   5.072  0.2073  0.0781 -0.0254
24571W        W40040   2.567   6.890   2.831  0.0365 -0.2610 -0.1840
24572W        W40041   1.266   0.941  15.104 -0.1575 -0.0049 -0.1784
24573W        W40042   7.515  12.535  13.474  0.1118 -0.2064  0.4739
24574W        W40043   3.878  13.655   4.088  0.3537 -0.0033  0.0752
24575W        W40044  12.600  18.360  11.898  0.1943 -0.0211 -0.0530
24576W        W40045   9.297   9.156  11.356  0.3206 -0.2341 -0.2229
24577W        W40046   0.507   5.577   1.063  0.3160 -0.0986 -0.0519
24578W        W40047   2.914  10.844  15.292  0.0916 -0.0383 -0.1748
24579W        W40048   4.660   9.814   5.713 -0.0928 -0.1004  0.1122
24580W        W40049  12.956   7.192   2.032  0.4195 -0.0548 -0.3189
24581W        W40050  14.036  11.768   2.780  0.2364  0.2201 -0.0649
24582W        W40051  12.749   0.277   4.036 -0.1223 -0.2877  0.1390
24583W        W40052  11.208  12.502   5.461 -0.2078  0.0163 -0.2855
24584W        W40053  18.391  17.850  12.054 -0.2068 -0.1483  0.2548
24585W        W40054  15.437  18.327  13.718 -0.0432  0.0016 -0.1776
24586W        W40055   3.522  17.058   3.854  0.2027 -0.0418  0.0300
24587W        W40056   2.887   3.333  12.009  0.0686 -0.2668 -0.0908
24588W        W40057  13.472  16.099   3.633  0.2218 -0.2923  0.2316
24589W        W40058  15.942   2.199  12.645 -0.1255 -0.3035  0.1761
24590W        W40059   8.015  11.186   0.653  0.1913 -0.1050  0.1658
24591W        W40060   3.074  17.493  15.018  0.0617 -0.2294  0.3756
24592W        W40061   2.549   6.494  15.595 -0.1527  0.4234  0.1320
24593W        W40062   4.464   2.224   4.992 -0.2629  0.1473 -0.1151
24594W        W40063  15.248   0.510  14.463 -0.0880 -0.2254 -0.1275
24595W        W40064   3.270  12.790  14.273 -0.6097  0.0041  0.2393
24596W        W40065  12.616   4.581   0.493 -0.1695 -0.0264  0.3787
24597W        W40066   7.016   9.380   2.321 -0.4729 -0.0541  0.1452
24598W        W40067   1.979   7.168   3.198 -0.0248  0.0620 -0.1521
24599W        W40068   9.639   4.420   3.452  0.1510  0.0058  0.4987
24600W        W40069   0.809  16.426   2.778  0.2634  0.0391  0.0731
24601W        W40070   4.309   4.940   3.478  0.1033 -0.1502 -0.1280
24602W        W40071   3.460  10.389  14.724 -0.0893  0.1044 -0.3648
24603W        W40072   9.609  10.694  13.189 -0.1068 -0.2555 -0.0772
24604W        W40073   0.756  15.718  15.718  0.0193 -0.0403 -0.0325
24605W        W40074   4.258   4.398   0.350  0.3570  0.0952 -0.0114
24606W        W40075  12.440   1.185   0.203  0.0710  0.1911  0.1004
24607W        W40076   2.229  14.567  12.881 -0.2380 -0.0705 -0.0937
24608W        W40077   4.327   6.284  13.955  0.1372 -0.0729  0.0157
24609W        W40078  10.947  17.563  11.641 -0.0825  0.1447  0.3397
24610W        W40079   9.979   3.344   1.046  0.0232 -0.1626  0.0151
24611W        W40080   8.974  13.669  15.771 -0.1947 -0.3336 -0.1304
24612W        W40081  15.876   6.672   0.886 -0.2680 -0.0331  0.1358
24613W        W40082   9.732  16.917   2.593 -0.0632 -0.3348 -0.0363
24614W        W40083  17.999   4.136   3.451 -0.2091 -0.2411 -0.4176
24615W        W40084   2.314   6.035   1.589 -0.0031 -0.0941  0.1976
24616W        W40085  11.602  18.552  10.978  0.1519  0.1875 -0.1899
24617W        W40086   3.593  17.237   2.243  0.3589  0.2700 -0.4201
24618W        W40087   0.446   0.106   0.171 -0.0906 -0.2000  0.1130
24619W        W40088   7.009  13.050   0.676 -0.1879  0.0893  0.2454
24620W        W40089   5.441  17.033  14.033  0.2168  0.1509  0.0739
24621W        W40090  11.180   2.007   2.141  0.2014  0.2681 -0.1427
24622W        W40091   0.034  10.106   4.806  0.2041  0.3460 -0.0102
24623W        W40092   5.604  12.296   0.526  0.1112  0.0500 -0.0930
24624W        W40093  16.296  17.389  13.154 -0.1869 -0.1861  0.4148
24625W        W40094  14.465   8.844  15.443 -0.0494  0.3276  0.1340
24626W        W40095   4.487  18.147  15.201 -0.3903  0.0153 -0.1291
24627W        W40096   1.284  16.929   4.187  0.1582  0.0258  0.0641
24628W        W40097  10.579   2.198   4.052 -0.1814  0.1155  0.2028
24629W        W40098   0.064   7.869  13.579  0.0366 -0.2522  0.0316
24630W        W40099  17.112   0.380  15.543  0.4786 -0.1470  0.5166
24631W        W40100  13.798  13.899   1.459 -0.4331 -0.0909 -0.2443
24632W        W40101  13.747   2.706  13.250  0.1406 -0.0825 -0.1584
24633W        W40102  16.681  13.684   3.421  0.0364  0.3824  0.0837
24634W        W40103   1.641   8.579   1.298  0.1254  0.2114  0.3195
24635W        W40104   6.088   4.497  11.346 -0.3930  0.4619 -0.1151
24636W        W40105  15.793   7.866   1.444 -0.1288 -0.0747 -0.0809
24637W        W40106   0.423   9.476   1.546  0.0980  0.2207 -0.1032
24638W        W40107  10.383  15.111   5.001  0.1224 -0.2962  0.1810
24639W        W40108   2.129   7.017   1.369  0.0804  0.2021  0.0500
24640W        W40109   6.200  15.925  11.278 -0.2463  0.5538 -0.3977
24641W        W40110  12.610   2.370  11.655 -0.5650 -0.1535 -0.3396
24642W        W40111   2.234   8.296  15.104 -0.2957  0.0601 -0.1490
24643W        W40112  11.270  13.962  12.538 -0.2474  0.0463 -0.2195
24644W        W40113  10.952  12.250   5.113  0.2120 -0.1799 -0.0874
24645W        W40114   7.188  11.970   3.712 -0.4594 -0.0061 -0.1915
24646W        W40115  13.566  11.648  14.082  0.0005  0.2056  0.1202
24647W        W40116   8.510  17.968  10.642  0.1679 -0.3021 -0.1599
24648W        W40117   4.169   0.250   2.107 -0.0958  0.0743  0.1298
24649W        W40118   9.338   6.428  14.013 -0.4681 -0.1010  0.1155
24650W        W40119  18.222  11.092   2.832 -0.1873 -0.3895  0.4433
24651W        W40120  17.104   4.620   4.464 -0.0202 -0.3333 -0.0576
24652W        W40121  17.629  14.247   4.878 -0.0785 -0.2648 -0.2452
24653W        W40122   8.577   6.133   1.202  0.0210 -0.0867 -0.0299
24654W        W40123   3.992  12.523   4.874  0.1465  0.2315 -0.1705
24655W        W40124  13.658  12.978   2.171 -0.1610 -0.0546  0.4669
24656W        W40125  17.866  14.229   0.933 -0.3239  0.1677 -0.0797
24657W        W40126   1.900   4.593   2.068 -0.0063  0.3405  0.3308
24658W        W40127  13.365   5.363  13.691 -0.1898  0.2103 -0.1095
24659W        W40128   0.490  12.303   2.400  0.0348  0.3395 -0.1082
24660W        W40129   6.858   8.696   4.119 -0.1385  0.0343 -0.0161
24661W        W40130  10.421   6.421  11.983 -0.4297 -0.0031 -0.0689
24662W        W40131   7.941   7.710  14.993 -0.3417  0.0194  0.2124
24663W        W40132   2.169   1.843  14.547  0.1521  0.0553  0.1188
24664W        W40133   6.833   2.641   2.084  0.1454  0.0022 -0.1108
24665W        W40134   3.969   4.072  12.879  0.0364  0.0930 -0.0979
24666W        W40135  17.942   1.982   4.854 -0.4870  0.0735  0.3026
24667W        W40136   3.846   5.515  14.267  0.0519  0.1430  0.0537
24668W        W40137  16.454   5.399  12.604  0.1959 -0.1272  0.1890
24669W        W40138  15.835  17.206  10.780 -0.1739 -0.0683 -0.1334
24670W        W40139   9.501  14.681  14.738 -0.2345 -0.0204 -0.0109
24671W        W40140  12.976   5.097  13.465  0.0169  0.0524  0.0795
24672W        W40141  15.245   4.123   0.180 -0.1536 -0.2236  0.0935
24673W        W40142  15.614  14.464   2.034  0.1680  0.2691  0.4097
24674W        W40143   1.988  10.420  11.055  0.1180  0.0030 -0.3295
24675W        W40144   8.175   6.045  15.211 -0.0394 -0.0222  0.2498
24676W        W40145   0.365  17.793   9.632  0.0538 -0.3249 -0.2014
24677W        W40146   3.646   7.812  10.656 -0.0368 -0.0170 -0.1908
24678W        W40147  13.934   0.842   1.492  0.0338  0.0373  0.1587
24679W        W40148   2.332   8.382  12.052 -0.1151  0.4421 -0.0659
24680W        W40149   2.203  11.936  11.357  0.2581  0.0575 -0.1704
24681W        W40150  10.313   4.388  15.240  0.1198  0.2355  0.0794
24682W        W40151  16.484  14.110   3.119  0.0440 -0.1437 -0.0903
24683W        W40152  10.717   0.273  10.903 -0.1766 -0.1013  0.0587
24684W        W40153   1.910   1.796   1.161  0.1022  0.1029  0.1824
24685W        W40154   6.339  15.522   2.420 -0.3293 -0.0399  0.1199
24686W        W40155  13.682   3.138  13.677 -0.1582  0.5158 -0.2148
24687W        W40156   2.227   0.557  10.572  0.2576  0.1832  0.0745
24688W        W40157  17.998   1.911  12.960  0.1021 -0.0178 -0.4089
24689W        W40158  10.339  14.815  15.382  0.1267  0.3533 -0.0800
24690W        W40159  13.341  12.607   1.430  0.1428  0.0399  0.1928
24691W        W40160  15.319   0.493   4.471  0.3575 -0.3181 -0.3496
24692W        W40161   4.399   4.919  15.641 -0.6434  0.2227 -0.3879
24693W        W40162  13.566   2.615  11.061 -0.1250  0.0990  0.1307
24694W        W40163  13.529  16.597  15.435 -0.1469 -0.1294  0.0635
24695W        W40164   0.693  15.643   4.708  0.0792  0.0829 -0.0476
24696W        W40165   7.180   9.928   3.839  0.3103  0.3874  0.1338
24697W        W40166  15.981   5.749   2.415  0.0941  0.1866 -0.0341
24698W        W40167  12.860  16.718   3.805 -0.0914 -0.0816  0.1186
24699W        W40168  15.899   6.097  10.763  0.0307  0.0805 -0.0446
24700W        W40169   8.529   9.596   5.595 -0.1752  0.0879 -0.0156
24701W        W40170  15.701   1.373  12.577  0.1498 -0.3713  0.2286
24702W        W40171  10.630   9.462   1.259 -0.1654 -0.1513 -0.0749
24703W        W40172   5.358  15.071   4.943 -0.0391 -0.0292  0.1612
24704W        W40173   8.907   2.396   0.960  0.0030 -0.1026  0.0379
24705W        W40174  18.437   7.804   5.078  0.1346 -0.0897  0.3003
24706W        W40175  14.340   7.243  14.636 -0.0201 -0.1178  0.1067
24707W        W40176   0.713  13.374   0.430  0.0233  0.0414 -0.1752
24708W        W40177   0.839  11.426  13.415 -0.1121 -0.0289 -0.2478
24709W        W40178   8.895   6.651   1.832  0.1029 -0.0373 -0.2424
24710W        W40179  11.697   7.213   2.744 -0.2491 -0.1471  0.1526
24711W        W40180  13.570  15.872  12.472 -0.0769 -0.2899  0.1681
24712W        W40181   9.228  18.342  15.243 -0.0945  0.1483 -0.0145
24713W        W40182  10.291   5.350   4.517  0.3032  0.1103 -0.1191
24714W        W40183  10.307  17.226   5.094 -0.0878  0.4418  0.0298
24715W        W40184   3.379   0.894   2.817 -0.0312  0.1791 -0.1336
24716W        W40185  18.467   8.303   2.119 -0.0607  0.2075  0.0622
24717W        W40186   1.550  11.480  15.056 -0.1718 -0.1306 -0.2372
24718W        W40187   6.638   3.411  15.489 -0.0275  0.1106  0.0673
24719W        W40188   1.809   5.014  14.627 -0.0436  0.0569  0.0485
24720W        W40189   6.824  15.866  14.688  0.0505 -0.2221 -0.0187
24721W        W40190  15.337  10.040  12.669  0.2405 -0.0146 -0.0408
24722W        W40191   0.476   5.769   3.460  0.0051  0.0560  0.0309
24723W        W40192  13.196   4.790  15.163 -0.0890 -0.2520  0.1108
24724W        W40193  17.652   4.982  15.593 -0.1816 -0.2364 -0.1288
24725W        W40194   4.377   8.776   4.463  0.0390 -0.0735 -0.0396
24726W        W40195  11.661   7.841  10.652 -0.1882 -0.1077 -0.0402
24727W        W40196   3.517   7.800   2.522 -0.4116  0.2625  0.0987
24728W        W40197   6.358   3.893   3.316  0.1736 -0.1994 -0.0918
24729W        W40198   2.937   7.614  10.804 -0.3399  0.4304  0.1216
24730W        W40199  17.854   0.434  10.729 -0.2166 -0.3489  0.1830
24731W        W40200  17.739   9.657  14.533 -0.1438  0.2821  0.3379
24732W        W40201   7.781  14.070   1.951 -0.0542  0.1729 -0.2262
24733W        W40202  10.721  14.712   1.619 -0.0754 -0.1987  0.0257
24734W        W40203  10.811   6.406   0.725 -0.0808  0.1427 -0.0091
24735W        W40204   4.065  17.410  11.922  0.0586 -0.2224 -0.1248
24736W        W40205   6.678   3.456  12.112  0.0840 -0.4153  0.0383
24737W        W40206   4.152   6.029  12.939  0.2029  0.4684 -0.1687
24738W        W40207  14.036  17.420  14.132  0.0644 -0.1259  0.0037
24739W        W40208   8.509  11.050  11.671 -0.1749 -0.0327  0.1297
24740W        W40209   3.476   0.499   3.797  0.0335 -0.4900 -0.1267
24741W        W40210   9.443  16.131   0.681  0.0639  0.0976  0.0404
24742W        W40211   6.554  11.029   5.125 -0.0191  0.1586 -0.2242
24743W        W40212   6.675   6.089  15.256 -0.0190 -0.2680  0.2778
24744W        W40213   1.974  10.720  14.810  0.0712 -0.2303  0.5850
24745W        W40214  17.170   7.838  11.329  0.0361  0.0206  0.1623
24746W        W40215   9.916  12.525   4.043  0.0417 -0.0866  0.0917
24747W        W40216  14.417  17.235  12.639  0.2477 -0.0671  0.3624
24748W        W40217   6.418   3.188   2.464  0.1735 -0.1749 -0.1057
24749W        W40218   9.782  14.809   0.798 -0.1495 -0.0858 -0.3531
24750W        W40219   1.200   5.329  12.016 -0.0212  0.1160  0.2109
24751W        W40220   0.595  18.010  15.127  0.2538  0.4249 -0.0423
24752W        W40221   4.848   3.168   2.472 -0.0271  0.0813 -0.1412
24753W        W40222   6.981   2.639   0.221  0.0021 -0.1426  0.0366
24754W        W40223  12.197  16.220   1.342 -0.0152  0.0503 -0.1511
24755W        W40224   6.665  12.209   5.280 -0.3824  0.2502 -0.2408
24756W        W40225   4.750  13.345  11.057 -0.1517  0.0221 -0.1140
24757W        W40226   7.866  15.478  13.534  0.4065  0.2471 -0.3679
24758W        W40227   9.230  15.132  10.566  0.1302 -0.0584  0.0585
24759W        W40228   1.047   6.941  12.968 -0.3447  0.2266 -0.1522
24760W        W40229  18.043   0.987   2.608  0.2371  0.2263 -0.0431
24761W        W40230   0.625   3.037   3.228  0.0715  0.2712  0.0861
24762W        W40231   4.340  17.343  15.373  0.0246 -0.2145 -0.1379
24763W        W40232   6.544   9.309   0.952 -0.0574 -0.0980  0.0202
24764W        W40233   1.555  13.745   4.838 -0.2040 -0.1145 -0.1481
24765W        W40234   0.962   3.559   5.389  0.1042  0.1561  0.2925
24766W        W40235  11.019   9.980  14.648  0.1389 -0.1554  0.0521
24767W        W40236   4.876   7.362  11.557 -0.2362  0.2198  0.0976
24768W        W40237   7.592  14.774   1.531 -0.1325 -0.0553 -0.0997
24769W        W40238  17.411   6.432  13.223  0.0422  0.6198  0.1490
24770W        W40239   0.633   0.673   9.882  0.1303  0.0656  0.4229
24771W        W40240  15.656  16.854   2.207 -0.0807  0.0807  0.3520
24772W        W40241   7.747   6.136  12.939  0.0413 -0.0725  0.0299
24773W        W40242   8.554  12.644  15.136 -0.2890  0.3379  0.0673
24774W        W40243   9.906  11.078  15.685  0.0443  0.0559 -0.1338
24775W        W40244  13.512  12.175   1.710 -0.0159  0.0233  0.1914
24776W        W40245   6.039   0.158   0.032 -0.0728  0.2793  0.2500
24777W        W40246  17.780  18.537  12.612  0.2136 -0.1780 -0.0063
24778W        W40247   0.150  17.330   4.614 -0.2120 -0.0038 -0.0105
24779W        W40248  11.145  10.589   0.351 -0.2457 -0.0677  0.1910
24780W        W40249  13.627  11.624  11.982  0.1531 -0.2525 -0.0085
24781W        W40250  10.233   5.918   5.327  0.2578 -0.0649 -0.0991
24782W        W40251  15.187  14.464  14.269 -0.2898  0.1586 -0.0842
24783W        W40252   2.763   6.395   0.774 -0.3730  0.3827  0.2033
24784W        W40253  11.695   4.544   3.583  0.0111  0.1638 -0.0797
24785W        W40254   6.342  16.919   2.639  0.2653  0.0603 -0.0028
24786W        W40255   7.709  17.761   1.471  0.0042  0.1756 -0.0416
24787W        W40256   3.724   4.533  14.823 -0.4028 -0.2416  0.0372
24788W        W40257  14.512  11.540  12.801  0.0161  0.1267  0.3930
24789W        W40258  17.366   2.336   1.219  0.0212  0.2945 -0.3129
24790W        W40259  14.269   0.030  13.954 -0.0839  0.0411  0.3951
24791W        W40260  10.253  12.230   4.421 -0.0709  0.0013  0.0556
24792W        W40261  13.141   3.649  11.628  0.1493  0.0683 -0.2180
24793W        W40262   7.683   3.933  13.785  0.0876 -0.0824  0.4255
24794W        W40263   4.264   3.683   5.416 -0.0397 -0.5322 -0.0835
24795W        W40264   1.767  16.722   3.522  0.2492 -0.0358 -0.0617
24796W        W40265  11.959   6.690   1.053 -0.1865 -0.0242 -0.3221
24797W        W40266   7.640  17.232   4.476  0.1260  0.1451 -0.0204
24798W        W40267  17.095  13.453  12.215  0.0771 -0.0343 -0.1359
24799W        W40268  16.169   7.391  11.507  0.0623 -0.1819  0.0744
24800W        W40269   9.406  14.985   2.212  0.0426  0.4393  0.0777
24801W        W40270  11.085   8.974   3.389 -0.0643  0.4358 -0.2882
24802W        W40271  18.247   5.918   2.962  0.1417 -0.1209 -0.1401
24803W        W40272   7.443  18.657   3.422 -0.0905 -0.0706  0.1814
24804W        W40273   9.107   4.012  11.883  0.1401  0.0161 -0.1666
24805W        W40274   0.393  15.715   3.050 -0.0201  0.0125 -0.1566
24806W        W40275   5.595  12.420  12.513 -0.1037  0.0054 -0.2284
24807W        W40276  14.855  18.211   2.244 -0.2188  0.1236  0.0839
24808W        W40277  15.473  12.453  14.168 -0.0365  0.1603 -0.1547
24809W        W40278  15.926  10.842   4.869 -0.0889 -0.1460  0.4563
24810W        W40279  17.778   5.120   4.674  0.2063 -0.2429  0.2110
24811W        W40280  16.970  13.622  13.522  0.1894 -0.1719  0.1915
24812W        W40281  14.660   6.861   3.556 -0.1504  0.0803 -0.3105
24813W        W40282  18.108  12.462  13.765 -0.0464 -0.0339  0.1761
24814W        W40283   9.737  16.313   2.424 -0.0119  0.0449  0.0736
24815W        W40284   5.447   5.970  10.910 -0.3145  0.2649  0.1295
24816W        W40285   8.363   5.941   3.618 -0.1511 -0.1764  0.1068
24817W        W40286  15.623   4.428  15.668  0.2769 -0.0158  0.0634
24818W        W40287   4.438  14.149   1.384 -0.1819  0.2167  0.0715
24819W        W40288   4.862   7.392   1.285  0.2358  0.2058  0.0630
24820W        W40289   0.697  15.621  15.181 -0.2142  0.1997 -0.2670
24821W        W40290  17.651   5.601   4.697  0.3581 -0.3224  0.0891
24822W        W40291  14.057   5.741   1.935 -0.1200  0.1648 -0.4780
24823W        W40292  10.401  13.132  14.313 -0.0769  0.2816  0.2187
24824W        W40293   2.821   0.500  10.867 -0.1187 -0.1124  0.1699
24825W        W40294   6.100   9.858   2.555 -0.1241  0.2308 -0.2900
24826W        W40295  15.816  11.281   3.444 -0.1824  0.1936  0.1639
24827W        W40296   5.411  17.239  15.039 -0.1490  0.2527  0.0122
24828W        W40297  12.556  12.720  13.793  0.1333 -0.2867  0.0290
24829W        W40298  12.838  13.462   2.740  0.0902  0.1114 -0.4477
24830W        W40299   0.395  18.041  11.780 -0.3493  0.3012  0.0991
24831W        W40300   3.955  17.867  10.240 -0.1114 -0.0677 -0.0831
24832W        W40301  14.189   2.385   4.092  0.0972  0.1602  0.1769
24833W        W40302  17.443   8.427  11.705 -0.1708  0.1809  0.2873
24834W        W40303   1.985  13.430   1.737 -0.0758 -0.0228 -0.1464
24835W        W40304  17.358  15.447   4.410  0.2589 -0.1094  0.0023
24836W        W40305  16.961   4.159   2.965 -0.1114 -0.3841 -0.1564
24837W        W40306  17.776  15.621  13.603 -0.0028 -0.0564 -0.1872
24838W        W40307  10.187   1.829  11.491  0.0277 -0.0506  0.1811
24839W        W40308  18.084  15.077   4.764  0.1767 -0.0763  0.4390
24840W        W40309   2.622   1.489  10.885  0.0290 -0.0266  0.1365
24841W        W40310   6.109  12.715   4.765  0.3178  0.0962  0.0977
24842W        W40311   2.980   8.996  11.144  0.4066 -0.4064 -0.2087
24843W        W40312  10.288  14.280   4.594  0.0760  0.2880  0.0405
24844W        W40313   5.563   4.418   0.534  0.0504  0.0928  0.2433
24845W        W40314  16.896   4.955   1.743  0.4148  0.1685  0.0656
24846W        W40315  13.977   2.652  13.738 -0.1237 -0.0247 -0.1575
24847W        W40316   7.602  11.505  14.593 -0.2304 -0.0236  0.3183
24848W        W40317  16.258   5.778   1.989 -0.0671  0.1447  0.0462
24849W        W40318   0.984  17.306   2.595 -0.2839 -0.0300 -0.1334
24850W        W40319  10.827  12.530  12.897 -0.0680  0.0235 -0.0496
24851W        W40320   6.164  13.237  15.309 -0.2328 -0.2178  0.2690
24852W        W40321   0.917  14.523  11.187 -0.2511 -0.1456  0.4663
24853W        W40322   0.955  13.004   2.728  0.1410 -0.1019  0.2516
24854W        W40323  15.363  17.513   1.291 -0.1263  0.0464  0.1597
24855W        W40324  10.830  11.185  15.546 -0.2818 -0.0742 -0.2115
24856W        W40325   0.583  12.096  15.099 -0.0915  0.0424 -0.2395
24857W        W40326   5.127  14.401   0.363  0.0070  0.3151  0.2970
24858W        W40327   1.110  16.866   1.054 -0.3228  0.2220  0.1178
24859W        W40328  10.469   6.063  12.816 -0.2520  0.0358  0.1939
24860W        W40329  15.607  18.196  14.569  0.0436 -0.0836  0.1410
24861W        W40330  16.047   0.828  10.836 -0.4593  0.1782  0.2219
24862W        W40331  10.564   8.905   3.153 -0.2318  0.1289  0.4670
24863W        W40332  14.925   9.697  14.902 -0.2451 -0.0303  0.0451
24864W        W40333  14.059  10.970  11.001  0.0856 -0.1511 -0.0968
24865W        W40334  12.609  14.964  13.033  0.1319 -0.0721  0.0838
24866W        W40335   1.990  17.076   2.588  0.1457  0.1349  0.4691
24867W        W40336  12.767  17.193  11.141 -0.1239  0.1536 -0.1677
24868W        W40337  18.574  10.496  14.318  0.0629 -0.0134  0.4125
24869W        W40338   4.959  14.941   1.332  0.0144 -0.0910 -0.0810
24870W        W40339   2.373   3.380   5.182 -0.2951  0.0055 -0.0633
24871W        W40340   4.357  16.584   0.222 -0.1347 -0.2311  0.1833
24872W        W40341  16.000  14.617  14.931 -0.1075  0.1350  0.0680
24873W        W40342   1.271  11.856   1.362 -0.2380 -0.3743  0.1103
24874W        W40343   3.534   3.987  14.585  0.0603  0.2043  0.1269
24875W        W40344  16.569  12.534  13.876  0.2250 -0.1267 -0.1495
24876W        W40345  14.467  12.868   0.859 -0.3991 -0.0879 -0.1742
24877W        W40346   0.683  11.527   0.272  0.0321  0.2459  0.1972
24878W        W40347   3.980   8.480   3.423  0.2156  0.0264 -0.1770
24879W        W40348  11.652   9.343   2.440 -0.0046 -0.0727 -0.2332
24880W        W40349   2.058  11.047  15.719 -0.0045  0.2363  0.1239
24881W        W40350   8.811   0.997  15.375 -0.3939  0.1323 -0.3196
24882W        W40351  10.785  10.505   3.212  0.0534 -0.2223  0.0858
24883W        W40352  11.894  17.528   1.736  0.0897 -0.0501  0.1353
24884W        W40353  10.226   7.596   4.036  0.3544  0.2440 -0.0827
24885W        W40354  12.613   2.447   2.995 -0.0459  0.0455 -0.0436
24886W        W40355   5.091   1.399   2.967  0.2395 -0.0134  0.2663
24887W        W40356   1.528   4.179  15.090  0.0428  0.1227 -0.2172
24888W        W40357   7.859  17.049  15.335  0.1350 -0.0555 -0.0255
24889W        W40358   7.566   4.619  15.021 -0.0228  0.3667  0.0478
24890W        W40359  12.105   7.214  12.237  0.0830 -0.1452 -0.1250
24891W        W40360   4.597   9.582  15.467 -0.1389  0.0130 -0.2233
24892W        W40361   2.251  16.439  12.784  0.0434 -0.2140 -0.2605
24893W        W40362   9.241   9.733  11.401 -0.4017 -0.2725 -0.2524
24894W        W40363   0.133  10.738  13.902  0.0861  0.0984  0.0575
24895W        W40364   7.413  10.011  13.939  0.1419 -0.2638 -0.2643
24896W        W40365   6.714   5.979   4.467  0.3408  0.0455  0.1290
24897W        W40366  18.450   0.984  10.089 -0.1893  0.2640  0.0437
24898W        W40367  12.813  11.161  14.748  0.0122 -0.1049 -0.1374
24899W        W40368   4.786  12.084   2.022 -0.2384  0.0427  0.2339
24900W        W40369  10.999  17.829   4.536 -0.3295 -0.0078 -0.0140
24901W        W40370   9.973  18.170   3.900 -0.0560  0.2094 -0.1123
24902W        W40371   2.465   5.824   3.869 -0.3733 -0.1853  0.1035
24903W        W40372  14.834  15.797   3.511  0.0432  0.0181 -0.0578
24904W        W40373   8.865  18.068   0.625  0.2012 -0.0607 -0.0704
24905W        W40374  16.165   6.567   2.555  0.0699  0.0593  0.0565
24906W        W40375  16.571  13.914  15.160 -0.1276 -0.3387  0.4351
24907W        W40376  15.091   9.593   0.376 -0.1972 -0.0370  0.2851
24908W        W40377   3.527   6.755  11.782 -0.2185  0.2311  0.0867
24909W        W40378   6.406   5.291   0.395  0.3393 -0.1586  0.0608
24910W        W40379  10.690   3.222  11.148  0.1882  0.1488  0.1737
24911W        W40380   7.347   9.956  12.404 -0.1519 -0.0687  0.1410
24912W        W40381  10.488  11.767  14.827  0.2272 -0.1094  0.2260
24913W        W40382   1.709   6.214   4.460  0.3889  0.1169  0.0749
24914W        W40383   4.526  10.567   4.249  0.1862  0.0005 -0.0562
24915W        W40384   2.990  13.873   1.278  0.1879  0.1216 -0.0510
24916W        W40385   9.014   5.941   1.252  0.0935 -0.2262  0.0325
24917W        W40386  15.657  16.022   5.918  0.0502  0.1910 -0.0465
24918W        W40387   8.940  12.442  15.411 -0.0463 -0.1529  0.0102
24919W        W40388   5.416   0.376   5.286 -0.1372 -0.1642 -0.3361
24920W        W40389  15.654   4.972   4.044  0.1168 -0.0933 -0.2415
24921W        W40390   3.281  17.322  13.254 -0.2708 -0.0093 -0.0133
24922W        W40391  15.353   7.943   0.594  0.1281  0.2460  0.1985
24923W        W40392   9.875   6.588  10.954 -0.0034 -0.1036  0.0577
24924W        W40393   2.337  14.873  15.085  0.0426  0.0629  0.1833
24925W        W40394   7.230   4.248   5.361  0.3543  0.3830 -0.1042
24926W        W40395  18.246   2.711  10.377  0.1806  0.2475 -0.0967
24927W        W40396  14.921  14.403   5.014  0.1932 -0.0403  0.1689
24928W        W40397   6.786   5.600   5.218  0.0323 -0.0046 -0.1386
24929W        W40398  12.708   2.443  15.051  0.0479 -0.1821  0.0636
24930W        W40399   9.725   1.348   4.286  0.2145  0.1115 -0.2572
24931W        W40400   7.938  15.761  14.720 -0.0839  0.0489  0.1222
24932W        W40401   2.861   3.195   1.760  0.2125 -0.0797 -0.0227
24933W        W40402   8.737  11.726  15.164 -0.0723  0.1332  0.0734
24934W        W40403   8.463   3.291  11.032 -0.0277 -0.1987  0.0625
24935W        W40404  13.489   3.206  15.648  0.3522  0.3793 -0.0033
24936W        W40405   4.458   7.996   5.544  0.0587  0.0614  0.2007
24937W        W40406   3.182   2.405   2.240 -0.3039  0.0435  0.2665
24938W        W40407   6.553  10.222   0.634 -0.3771  0.1863  0.0782
24939W        W40408   8.194   3.490  13.743  0.0227  0.0583 -0.2682
24940W        W40409  10.639  11.625  15.312 -0.0521  0.2385 -0.0596
24941W        W40410   9.769   0.476  12.135 -0.2182 -0.1180  0.1420
24942W        W40411   0.337  12.849   5.318  0.3250 -0.1418  0.1759
24943W        W40412  10.829  13.894   2.873 -0.0046 -0.0717 -0.2689
24944W        W40413   9.816  16.875   3.956  0.3938 -0.0641 -0.2313
24945W        W40414  11.487  10.565  14.322 -0.4576  0.1675 -0.0844
24946W        W40415   7.956   9.378  13.533 -0.0171 -0.0372  0.0930
24947W        W40416   1.934   6.634  15.025  0.2551 -0.1178 -0.1752
24948W        W40417  13.714   6.759   1.580  0.1918  0.0833 -0.1797
24949W        W40418   0.113  11.656   0.413 -0.0670  0.2641 -0.1947
24950W        W40419  14.189  14.248  12.528  0.2159  0.3556 -0.1912
24951W        W40420   0.392   5.420   4.740 -0.1363  0.3624  0.1290
24952W        W40421  13.230  16.199  15.709  0.2236  0.1359  0.0303
24953W        W40422   1.371  13.529   1.906 -0.3103  0.1448 -0.0646
24954W        W40423  16.630  10.437  13.092  0.1609  0.0703 -0.3092
24955W        W40424  16.543  12.043  13.764  0.1391 -0.1826 -0.0674
24956W        W40425   4.762  18.686  15.524 -0.0151  0.0206  0.0859
24957W        W40426   9.559   1.592  12.065  0.3971 -0.1060  0.0818
24958W        W40427   2.992  12.279  11.002 -0.2236 -0.0524  0.0917
24959W        W40428  15.836   9.646   5.194  0.0181 -0.0332  0.0213
24960W        W40429   2.725   3.895  14.660  0.0860 -0.2671  0.1868
24961W        W40430  16.032   0.112   2.113 -0.1729  0.1672  0.1271
24962W        W40431  15.434   4.835   6.153 -0.1549 -0.0370 -0.1108
24963W        W40432  17.711   1.518  13.096  0.2004 -0.1271 -0.0482
24964W        W40433   6.766  14.310   2.697  0.1519 -0.1164  0.0784
24965W        W40434  13.495   7.465   2.976 -0.1776  0.6833 -0.2921
24966W        W40435   6.307   5.376  11.543  0.4481  0.0649  0.1845
24967W        W40436  11.538  12.141   2.418  0.0847 -0.0189 -0.2292
24968W        W40437   5.284   3.315   0.121  0.0615  0.0580 -0.3215
24969W        W40438  14.270   8.561  13.037 -0.1774 -0.1163 -0.1819
24970W        W40439  11.928   5.816  15.771  0.2619  0.1597 -0.3253
24971W        W40440   1.112   0.848  13.585 -0.1664 -0.0551  0.0259
24972W        W40441  16.551   4.165   0.491  0.1354  0.0035  0.6455
24973W        W40442  15.668  11.187  10.549 -0.1171 -0.0117 -0.1993
24974W        W40443  11.369  17.787   3.174 -0.2225 -0.0688  0.3936
24975W        W40444   1.142  14.297   0.447 -0.2831  0.0695  0.1863
24976W        W40445  15.352   3.993   3.072  0.1631  0.2780 -0.1414
24977W        W40446  10.390   5.572   3.003  0.2186 -0.0164 -0.0803
24978W        W40447   5.081  10.715  11.423  0.0018  0.0598 -0.1074
24979W        W40448  15.090   2.239  14.525  0.2506 -0.2168 -0.0842
24980W        W40449   4.345  18.519   1.909  0.0074  0.1833 -0.2541
24981W        W40450  10.305  16.793   5.385 -0.2049  0.0660 -0.1381
24982W        W40451  14.896  14.676   2.532  0.0316 -0.3173 -0.1383
24983W        W40452   0.584   8.343  12.719 -0.3769 -0.1804 -0.0290
24984W        W40453  13.564  10.906  12.736  0.1396 -0.1435 -0.0384
24985W        W40454  15.431   7.306  10.721 -0.0880  0.0373  0.2964
24986W        W40455  10.087   1.685  12.003 -0.4851  0.0466  0.0436
24987W        W40456   9.602  10.503  11.398  0.4622  0.1299 -0.0963
24988W        W40457  14.452  18.633  12.585 -0.0419  0.2267  0.0672
24989W        W40458   7.808   9.351   0.679  0.2071 -0.2232  0.0685
24990W        W40459  12.289   9.458   1.312  0.2122 -0.2413  0.0874
24991W        W40460  12.229  18.383  15.014  0.2273 -0.2141  0.1938
24992W        W40461   5.050   8.149   5.454 -0.1588 -0.0780  0.3951
24993W        W40462   3.251  15.181   4.704  0.1338 -0.0390 -0.1213
24994W        W40463   3.701  10.011  13.938 -0.3393  0.1461 -0.1537
24995W        W40464  12.626   9.532   2.038  0.2857  0.1943  0.0562
24996W        W40465  13.712   2.076  10.942 -0.0757 -0.2026  0.1122
24997W        W40466   3.078   1.516   3.718  0.0460 -0.1602 -0.1466
24998W        W40467  14.966   7.409  13.455 -0.0325  0.4240  0.2677
24999W        W40468   2.103   6.266  12.617  0.0130  0.0508  0.0209
25000W        W40469   8.562   1.155  12.796  0.3336 -0.0233  0.4260
25001W        W40470   1.824  16.546   0.463  0.4263 -0.3030 -0.0429
25002W        W40471   8.910  17.353   2.922  0.3922 -0.2376  0.2106
25003W        W40472  10.580   1.519   1.265 -0.0111  0.0504 -0.0226
25004W        W40473   4.121   4.084  14.274  0.1437  0.1434  0.4137
25005W        W40474  17.913   8.197  10.941  0.3302  0.0359  0.2073
25006W        W40475  16.251  17.415  10.904 -0.1815  0.1146  0.0136
25007W        W40476  10.627   9.158  15.090  0.0411  0.0432 -0.2807
25008W        W40477  16.113  10.660   2.819 -0.2428  0.0216 -0.1925
25009W        W40478  14.963   8.305   3.675  0.0815 -0.0580 -0.1978
25010W        W40479  13.439  13.057   3.183 -0.0763 -0.2874  0.2780
25011W        W40480   6.877   5.269   3.711 -0.2043 -0.0916 -0.1121
25012W        W40481   3.303   3.814   2.872  0.0146 -0.2993 -0.3473
25013W        W40482   4.595   6.832   1.145 -0.0970  0.1372 -0.0106
25014W        W40483   0.499  10.869  11.516  0.0601 -0.1617 -0.1771
25015W        W40484  18.127  17.799  15.576 -0.0429  0.0603 -0.0993
25016W        W40485   4.984  16.132   4.687 -0.0139  0.0969  0.1421
25017W        W40486  18.200   8.453  12.708 -0.2855 -0.0385  0.0660
25018W        W40487   1.528  17.950   5.220 -0.4319 -0.0704 -0.1690
25019W        W40488   9.103  11.306   1.079  0.2164 -0.0976  0.3470
25020W        W40489  16.545   2.631  12.044 -0.0767  0.0220  0.1400
25021W        W40490   0.020   6.340  11.474  0.0105  0.2250  0.2732
25022W        W40491  16.955   3.089   3.394 -0.0684 -0.3365  0.3571
25023W        W40492   6.877  14.889   2.639  0.0959  0.2061  0.2048
25024W        W40493   7.082   3.882  10.728 -0.0390 -0.0161 -0.1783
25025W        W40494   7.841   3.081  15.023 -0.1431 -0.2091  0.0021
25026W        W40495   9.746   1.124  13.601  0.0669  0.2029  0.1758
25027W        W40496  11.787  17.090  15.092 -0.0530  0.2081 -0.3085
25028W        W40497   1.474   3.807  10.558 -0.2838 -0.2311  0.0060
25029W        W40498  14.426   8.404   0.266  0.1498 -0.5657 -0.0286
25030W        W40499  11.967   8.847   3.525 -0.0030  0.0258 -0.1586
25031W        W40500   2.727  16.199   2.177 -0.1752  0.1501  0.4275
25032W        W40501  10.513   2.641  10.755 -0.0474  0.2280  0.2639
25033W        W40502  16.052  16.723  12.989 -0.0914  0.3710  0.0536
25034W        W40503  10.449   0.986   1.420  0.0410  0.0583  0.0003
25035W        W40504  15.631   1.504   1.808 -0.1187  0.0302  0.3217
25036W        W40505  14.566   8.270  11.466  0.0721 -0.3924  0.1989
25037W        W40506  17.495   7.100  13.941  0.3885 -0.0181 -0.1180
25038W        W40507  18.099  14.236  10.923  0.1868  0.1782  0.0362
25039W        W40508   9.636  11.824   4.943 -0.1323 -0.1950  0.3397
25040W        W40509  15.198   1.739  12.365 -0.0125 -0.1645  0.0992
25041W        W40510   8.457  14.536  11.592 -0.2871  0.0905  0.0679
25042W        W40511  17.525  15.411  11.816  0.0235 -0.3389  0.1469
25043W        W40512  12.846   2.620   2.545 -0.0871 -0.0814 -0.1639
25044W        W40513  18.295   8.839   3.946  0.1042 -0.2179 -0.0789
25045W        W40514   2.579   7.773  12.196  0.0086  0.1487  0.1199
25046W        W40515   7.309   1.106  10.519 -0.1920 -0.0703 -0.0355
25047W        W40516   4.561  12.437   1.700  0.3467 -0.2076  0.0345
25048W        W40517   2.202   7.170   2.642 -0.0837  0.1056  0.0074
25049W        W40518  14.099  12.037   1.456 -0.2859 -0.3071 -0.0532
25050W        W40519   5.504   1.247   1.196  0.1342 -0.0530  0.0873
25051W        W40520   4.636  10.177   3.021 -0.1857  0.2483  0.1906
25052W        W40521   8.852  14.582   5.066 -0.1738 -0.4446  0.1306
25053W        W40522   6.548  17.909  10.267  0.1269  0.1808 -0.2644
25054W        W40523   5.296   5.477  11.175  0.0404 -0.3083 -0.1702
25055W        W40524   0.667   4.535   4.354  0.0031 -0.0855 -0.3646
25056W        W40525   5.607  14.647  13.909 -0.1301 -0.0617  0.1164
25057W        W40526  18.678   0.299   5.672  0.1157  0.0196  0.0725
25058W        W40527   3.983  14.997  14.931 -0.4404  0.2830  0.1320
25059W        W40528  12.179   5.170  10.988  0.0334  0.0919  0.1075
25060W        W40529   2.236   0.170   0.719 -0.0642  0.0682  0.0660
25061W        W40530  18.686  16.912  13.131 -0.1023 -0.0116 -0.4687
25062W        W40531  10.765  11.620   1.962 -0.0044  0.1050  0.0684
25063W        W40532   6.070  13.715   2.330 -0.4036  0.0541 -0.1886
25064W        W40533  12.256  10.489   1.847 -0.1698  0.0252 -0.1637
25065W        W40534  13.155  15.327  11.947  0.0232  0.4882 -0.2681
25066W        W40535  13.744   1.039  11.072  0.0328  0.2228 -0.2282
25067W        W40536  13.374  14.196   1.590  0.1005 -0.1953 -0.1048
25068W        W40537   3.334   3.245  15.685 -0.0076 -0.1372  0.1042
25069W        W40538  17.289   4.069   1.751  0.2449  0.1722 -0.0475
25070W        W40539   2.760  17.913  14.813 -0.0707 -0.1331  0.0477
25071W        W40540   5.512  16.733  11.857 -0.2617  0.0536 -0.2959
25072W        W40541  13.618   8.270  14.062 -0.0987  0.2887 -0.0251
25073W        W40542   4.058  17.748   1.580 -0.2719  0.2947  0.3177
25074W        W40543   8.318   3.252   3.135 -0.0255 -0.2676  0.1851
25075W        W40544  14.729   9.431   3.215  0.2431  0.0140  0.2383
25076W        W40545   3.290  17.684   2.079  0.0493 -0.1755 -0.2705
25077W        W40546  11.371   6.261   1.545  0.0685  0.3837 -0.1429
25078W        W40547  17.750   0.048   0.153  0.1274  0.0761  0.2060
25079W        W40548   5.149  13.516   1.157 -0.0092  0.2095 -0.3030
25080W        W40549   7.112  17.111   4.497 -0.2335  0.0772  0.0278
25081W        W40550  11.820  12.082  13.789  0.1137  0.0630 -0.0990
25082W        W40551   5.447   6.714  12.426 -0.0110  0.2027 -0.2909
25083W        W40552  13.214  15.317   5.849  0.1047 -0.3784  0.1226
25084W        W40553   2.919   9.614   2.571 -0.2050  0.1315 -0.0795
25085W        W40554  12.932  13.588   4.168 -0.0637  0.1382 -0.0717
25086W        W40555   0.867   0.334   1.590  0.0820  0.2498  0.0557
25087W        W40556   5.610   3.912   2.827  0.0935 -0.3173  0.0736
25088W        W40557   3.741   6.904   1.140  0.1086  0.0390 -0.0258
25089W        W40558   9.670   7.171   0.654 -0.1018  0.0505  0.1324
25090W        W40559  17.882  10.100   0.716  0.3188  0.2788  0.2717
25091W        W40560  17.365  18.339  10.400 -0.2931 -0.1593  0.3713
25092W        W40561  13.369  15.609   2.608  0.2984  0.3000  0.1469
25093W        W40562  10.360  11.801  12.426 -0.1301 -0.2523 -0.1207
25094W        W40563  11.437   7.545   1.077  0.0167  0.1022 -0.0356
25095W        W40564   1.004   5.215   1.210  0.0979  0.1448  0.4093
25096W        W40565   3.552   4.599  11.310 -0.0908 -0.3117  0.2612
25097W        W40566   1.951   2.723   5.051  0.0058 -0.1783  0.2324
25098W        W40567   3.864  14.501   1.395 -0.0335  0.3246  0.2528
25099W        W40568  10.340  14.344   2.907 -0.1454 -0.2855  0.0475
25100W        W40569  11.906   9.618   1.031 -0.0855 -0.0169 -0.1034
25101W        W40570   9.535  16.201   3.568 -0.1061  0.0951  0.1025
25102W        W40571   5.159   9.032  14.379 -0.4140 -0.0595 -0.2649
25103W        W40572  10.815  15.302  13.722 -0.1840 -0.3970 -0.2653
25104W        W40573   8.121  14.696   3.882 -0.0293 -0.1034 -0.2565
25105W        W40574  13.219  10.368  12.466  0.5523 -0.0806  0.0336
25106W        W40575   5.104  18.682   1.386  0.3577  0.0122 -0.1945
25107W        W40576  16.521   6.975   2.464 -0.0040  0.1590  0.0152
25108W        W40577  17.063   4.885   5.261 -0.1400 -0.0062  0.0598
25109W        W40578   4.214  12.550  14.650 -0.0889  0.0475 -0.1331
25110W        W40579   3.029  12.068   4.908  0.2472 -0.0328  0.0245
25111W        W40580  13.559   2.244   4.886  0.1144  0.0643 -0.0635
25112W        W40581  18.407   2.862   1.184 -0.2525  0.1646  0.2147
25113W        W40582   0.847   1.220  13.433  0.1879 -0.0073 -0.0051
25114W        W40583  13.935   9.826  12.751 -0.0295 -0.2403  0.0810
25115W        W40584  12.322   3.974   2.709  0.1234  0.0172  0.2014
25116W        W40585  13.068   8.620   5.774  0.1409 -0.0603  0.1521
25117W        W40586  16.338  10.136   0.527 -0.1629  0.0050  0.3776
25118W        W40587   6.755   6.078  13.920 -0.1818 -0.2640 -0.1037
25119W        W40588  12.021  11.229   4.824 -0.0355 -0.0465  0.1024
25120W        W40589   6.063   9.239   4.226  0.0893  0.1018 -0.1705
25121W        W40590  11.469  17.827  14.813  0.2990 -0.0498  0.1806
25122W        W40591   0.407  16.121  12.822 -0.1958  0.1153 -0.2165
25123W        W40592   7.950  14.375   4.155 -0.4253 -0.1336  0.0912
25124W        W40593   4.591   6.754  14.597 -0.0189 -0.1859  0.1112
25125W        W40594  15.503   0.328  14.914  0.2439  0.1084  0.1507
25126W        W40595  12.603  12.541   1.740  0.1057  0.3601  0.0628
25127W        W40596   4.883   7.758   2.514 -0.3498 -0.1893  0.2140
25128W        W40597   9.472   3.890   2.188  0.1464  0.0125  0.0931
25129W        W40598   9.138  10.602   4.968  0.0878  0.0857  0.1328
25130W        W40599   9.808  13.100   2.978  0.1558 -0.1122  0.3327
25131W        W40600   6.604  13.322  15.087  0.0809  0.2145 -0.2820
25132W        W40601  12.786   1.445  13.262  0.1557  0.0458 -0.2224
25133W        W40602  12.171   1.667   1.355  0.3098 -0.1003 -0.1277
25134W        W40603  16.723   0.508  12.400  0.1385  0.0117  0.0040
25135W        W40604  13.265   1.316  13.371 -0.3952 -0.2113  0.1166
25136W        W40605   0.798  10.832   4.447 -0.2235  0.1674  0.3335
25137W        W40606  11.125  17.157   3.126  0.0129  0.1529  0.1015
25138W        W40607   7.967  17.167  14.846  0.1833 -0.4233 -0.0658
25139W        W40608   4.985   9.210   3.092 -0.1273 -0.0880 -0.0755
25140W        W40609  16.958  15.078   9.844  0.1255 -0.1078 -0.0542
25141W        W40610  13.122   3.614   1.249 -0.0949  0.1336  0.4391
25142W        W40611  16.515  14.424  12.271 -0.2077  0.1304  0.0631
25143W        W40612   2.832  15.365   3.687  0.3131 -0.1779 -0.0247
25144W        W40613  11.535  17.851  13.052 -0.0959  0.3644 -0.1478
25145W        W40614   9.866  18.105   1.420 -0.2447 -0.0039 -0.3054
25146W        W40615  15.582  13.488   0.548  0.1394  0.0712 -0.3831
25147W        W40616   3.393  10.636  12.093  0.1422 -0.3653  0.2136
25148W        W40617  11.685   4.536   2.820  0.2098 -0.0551 -0.1580
25149W        W40618   8.873   3.303   0.307  0.1575  0.3626  0.1475
25150W        W40619   0.568   9.526  14.154  0.1932 -0.1303  0.1999
25151W        W40620   2.109  17.639  11.279 -0.2004 -0.1627 -0.4749
25152W        W40621  15.561   7.381   3.630  0.0859 -0.0715  0.0447
25153W        W40622   9.939  12.505  14.743 -0.3376 -0.0921  0.1872
25154W        W40623   1.382   1.668  12.565 -0.0728 -0.1659  0.3854
25155W        W40624  12.697   1.690  14.991 -0.5062  0.0524  0.0461
25156W        W40625   6.022  12.334  12.853  0.2168  0.1444  0.0301
25157W        W40626   4.062   7.950  13.855 -0.0714  0.2364 -0.1823
25158W        W40627  18.191   8.615   3.084 -0.0118 -0.0648 -0.1145
25159W        W40628   6.024   8.100   2.034 -0.0039 -0.0764 -0.3593
25160W        W40629  15.444   2.077   0.357  0.1843  0.4446 -0.0724
25161W        W40630   9.248   5.900  10.773  0.0185  0.2284  0.0460
25162W        W40631   2.595   4.752  15.599  0.0877  0.3052  0.0519
25163W        W40632   2.921   8.587  12.533 -0.3079  0.0968  0.0975
25164W        W40633   6.667  12.634   4.583  0.2753 -0.0372  0.2353
25165W        W40634   3.567  12.347  12.181  0.0084  0.2004  0.0984
25166W        W40635  18.325  11.598  14.000 -0.1525 -0.0801  0.0027
25167W        W40636   5.503   8.544   1.008 -0.0284 -0.1604  0.4118
25168W        W40637  17.789   5.182  11.639 -0.0122 -0.3142  0.1404
25169W        W40638  15.830  13.219  13.346 -0.1245  0.0780  0.0103
25170W        W40639  10.245   3.895  12.573  0.0644 -0.1143  0.0191
25171W        W40640   4.632  12.737  14.401  0.1589 -0.0280 -0.0107
25172W        W40641   4.437  10.525  12.120 -0.4095 -0.0662  0.0849
25173W        W40642  10.845   9.535   4.790  0.1751 -0.2088  0.1851
25174W        W40643   9.321  12.210   2.793 -0.3710  0.2517  0.1493
25175W        W40644   3.026  17.504  13.615  0.0774  0.0079  0.2274
25176W        W40645  10.522   3.039  12.713 -0.1909  0.1972  0.0073
25177W        W40646   3.537   0.688  13.588  0.0541  0.3363 -0.0548
25178W        W40647  10.562   4.749   1.292  0.3964 -0.0243 -0.0639
25179W        W40648  15.579   6.357  11.210  0.0349  0.2071 -0.5842
25180W        W40649  14.248  11.596   1.357  0.0486 -0.0094  0.2875
25181W        W40650  10.423  10.280  15.664  0.2651 -0.0973 -0.0290
25182W        W40651   0.720   1.686  13.301 -0.0582 -0.0526 -0.0063
25183W        W40652   6.930   5.278   4.682 -0.0420 -0.2242 -0.2145
25184W        W40653   7.555   0.918   3.370  0.0517  0.0956  0.0373
25185W        W40654  11.291   1.347   2.614  0.1915 -0.5094 -0.0029
25186W        W40655   1.725  15.390   3.870  0.2459 -0.0759 -0.0350
25187W        W40656  10.265   6.892  14.357 -0.0099  0.1890 -0.4822
25188W        W40657  13.254  12.737  12.622  0.0282  0.1422  0.0669
25189W        W40658   7.705  14.831  11.558  0.0448  0.0670 -0.1048
25190W        W40659  17.114   8.485   1.982  0.3313  0.1409 -0.1311
25191W        W40660   7.988   9.390  12.619 -0.3665 -0.1525  0.1881
25192W        W40661   2.791   4.472   1.244 -0.2833 -0.2223  0.0200
25193W        W40662  13.086  17.795  13.129 -0.1084 -0.0020 -0.2612
25194W        W40663   8.328   5.097   3.873 -0.1436 -0.5607 -0.1943
25195W        W40664   7.856  12.793  15.762 -0.1039  0.2224  0.0514
25196W        W40665   6.545   6.906  14.060 -0.0712  0.2549  0.2121
25197W        W40666  16.589  18.280  11.970 -0.0032  0.0326  0.0169
25198W        W40667   4.134  13.203   5.643 -0.0218 -0.0671 -0.0697
25199W        W40668  16.473  10.357  15.109 -0.0933  0.1060 -0.1171
25200W        W40669   0.993   0.663  15.409  0.1191 -0.1507 -0.0434
25201W        W40670  11.578  13.429   2.727  0.1515 -0.2225 -0.1272
25202W        W40671   2.912   4.621  13.251  0.2735  0.2014 -0.2657
25203W        W40672   3.126   6.073   0.949  0.1361 -0.1380 -0.2423
25204W        W40673   5.566  15.931   1.205  0.0094 -0.3116 -0.1223
25205W        W40674   1.880   2.552   2.018  0.1193  0.1097 -0.2389
25206W        W40675   5.390   6.637   4.907  0.1032 -0.1953 -0.0812
25207W        W40676  13.502  13.990  15.129  0.0990 -0.1683 -0.1364
25208W        W40677   5.091  12.841  14.290 -0.0896 -0.1323 -0.1471
25209W        W40678  18.613  13.804  11.527 -0.1907 -0.1035 -0.1414
25210W        W40679  14.923   8.683   1.143  0.0914 -0.0718 -0.1928
25211W        W40680   3.373  14.248   0.696 -0.3470 -0.5627 -0.0639
25212W        W40681   1.786  14.814  13.847 -0.1137  0.0207 -0.1142
25213W        W40682  11.561  12.258  11.714  0.1638 -0.2857 -0.0121
25214W        W40683  11.224  17.157  11.407  0.1795 -0.1269 -0.1771
25215W        W40684  11.135   0.017   5.618 -0.1234 -0.0642  0.0273
25216W        W40685   9.759  17.280   0.946  0.0319  0.2587 -0.0511
25217W        W40686   9.434  17.135  14.326  0.3753  0.1510  0.1502
25218W        W40687   5.823  16.436  13.198  0.0574 -0.1875  0.0660
25219W        W40688  16.286   3.883   3.689 -0.1477 -0.0691  0.1216
25220W        W40689  15.460   5.818   2.468 -0.4208 -0.1284 -0.3149
25221W        W40690  12.052  16.054   4.224 -0.1358  0.0068  0.0023
25222W        W40691   5.178  16.129  11.769  0.0925 -0.2042 -0.0576
25223W        W40692  10.787   3.159  13.816  0.1100 -0.1841  0.1843
25224W        W40693  14.845   1.623   2.611  0.0196  0.4198 -0.0223
25225W        W40694  13.009   6.858   2.387 -0.2123 -0.0849  0.0115
25226W        W40695   1.954  13.439   4.314  0.0053 -0.1104  0.0240
25227W        W40696  13.193   1.559  12.952 -0.0868 -0.3659 -0.0039
25228W        W40697   5.359   6.180  14.252  0.0331 -0.0153 -0.0048
25229W        W40698   7.390   1.275   5.947 -0.1707 -0.3091  0.0484
25230W        W40699  17.533  17.167  14.204  0.0569 -0.1532  0.0421
25231W        W40700   0.560   6.895   3.376  0.0754  0.2851 -0.1089
25232W        W40701   1.383   4.096   1.065  0.1461  0.1345  0.0925
25233W        W40702  11.140  12.102  10.887 -0.0974 -0.0665 -0.1347
25234W        W40703   0.864  17.778  12.522 -0.1774 -0.0467 -0.0325
25235W        W40704  17.921   9.133   5.814 -0.3364  0.0703  0.3060
25236W        W40705  14.457   0.083   5.323  0.0746  0.0625  0.0755
25237W        W40706  17.143   7.871  13.066  0.2811 -0.2496 -0.0697
25238W        W40707   1.864   9.341   3.359  0.2034  0.0060 -0.0334
25239W        W40708   7.569   5.388   1.329  0.1753  0.1766  0.2921
25240W        W40709  18.331   0.386  14.146  0.1984  0.0963 -0.0005
25241W        W40710  12.748   0.824  10.307  0.0860  0.1029 -0.4157
25242W        W40711   7.892  11.952   0.435 -0.1417 -0.1166  0.1267
25243W        W40712  13.506  17.518   3.632 -0.3576  0.0929  0.2652
25244W        W40713  14.718  15.324   1.813  0.0812 -0.2075 -0.0144
25245W        W40714   8.765   1.962  11.118 -0.1137  0.2110 -0.0498
25246W        W40715   7.496  13.270  14.571 -0.1046  0.0215 -0.1710
25247W        W40716  12.598   6.318  15.626 -0.2271 -0.1827 -0.1625
25248W        W40717   9.302  14.439   4.449  0.0710 -0.0071 -0.1323
25249W        W40718  13.833   1.389   1.572  0.0599  0.0600  0.1357
25250W        W40719   2.045  16.566  15.210 -0.2084 -0.0612  0.1577
25251W        W40720   2.714  18.530  11.124  0.0478  0.1038  0.1005
25252W        W40721   8.004  10.526   3.110 -0.1785  0.0634  0.0951
25253W        W40722   3.830  10.401   3.207 -0.1804 -0.0651  0.0830
25254W        W40723   1.731   1.226  15.483 -0.2796  0.0161  0.0889
25255W        W40724  17.534   7.186   4.808  0.2334 -0.2060 -0.1194
25256W        W40725   2.521   7.337  10.661 -0.0099  0.1820 -0.1142
25257W        W40726  16.963   7.864   3.843  0.1141 -0.0663 -0.0892
25258W        W40727   5.242   1.266  13.807 -0.2017 -0.0968  0.2383
25259W        W40728   0.138  15.793  15.713 -0.3146  0.0508 -0.1298
25260W        W40729  12.758   1.317   2.079 -0.3680  0.0602  0.4319
25261W        W40730   6.209   9.901   4.841 -0.3053 -0.0883  0.1827
25262W        W40731  16.448  16.631   0.447 -0.1795 -0.1811 -0.2581
25263W        W40732  16.040   4.347  13.625 -0.1899  0.2866  0.0497
25264W        W40733  11.712  11.567  13.475  0.1834  0.0968  0.2716
25265W        W40734   1.009  14.961  11.017  0.0414 -0.4493  0.0708
25266W        W40735   5.369   9.704  12.880 -0.1795 -0.0568 -0.0312
25267W        W40736  10.630  16.430  10.943  0.2163 -0.3449 -0.0926
25268W        W40737  17.939  16.197  14.389 -0.2214 -0.1029 -0.0139
25269W        W40738   9.851   8.962  10.995  0.1618 -0.0006 -0.1143
25270W        W40739   4.500   6.808  13.130  0.1137 -0.0735  0.2697
25271W        W40740  15.247   1.500  14.406  0.1315  0.0429  0.2119
25272W        W40741   8.775   2.692  11.774 -0.0135  0.1426  0.3466
25273W        W40742  14.261   2.562  12.327  0.1712 -0.0991 -0.1588
25274W        W40743   3.734  17.616  14.047 -0.0939  0.0393 -0.0293
25275W        W40744  14.447   6.692  12.946 -0.1043  0.2767 -0.3755
25276W        W40745   4.734   6.388  15.438  0.0231  0.1409  0.3818
25277W        W40746  12.057  14.284  14.430 -0.4702  0.0391  0.0835
25278W        W40747   7.316  11.295  14.098 -0.1116 -0.0252  0.1802
25279W        W40748  10.643  17.048  12.807 -0.0221 -0.0995 -0.1339
25280W        W40749  11.298  12.590  12.606 -0.0855 -0.0831 -0.0857
25281W        W40750   1.032   2.612  12.449 -0.3984  0.1816 -0.0379
25282W        W40751  14.703   3.868   2.300  0.0098  0.1685 -0.2483
25283W        W40752  17.613  11.602   3.517  0.1613 -0.4239 -0.2551
25284W        W40753   7.234  18.577   3.903 -0.0002 -0.0312 -0.1886
25285W        W40754  15.826  13.017   0.547 -0.2281  0.0178  0.1593
25286W        W40755   6.304   0.431  10.798 -0.1789 -0.2126  0.3356
25287W        W40756  14.030  12.049   1.960 -0.1976 -0.0160  0.0950
25288W        W40757   8.597  12.202   2.102 -0.1176  0.1054  0.0582
25289W        W40758  13.131   4.422   3.831 -0.2653 -0.0960 -0.2780
25290W        W40759   4.477  13.439   2.058  0.0413  0.0769  0.0045
25291W        W40760  14.854   9.565  13.904  0.0640  0.0782  0.2690
25292W        W40761   0.521   5.015  13.108  0.0330 -0.0174 -0.2048
25293W        W40762  11.244   8.108  13.584 -0.0493  0.1993  0.0132
25294W        W40763  13.667   1.613   4.597  0.5237  0.3790 -0.2871
25295W        W40764  13.538   5.019   2.339  0.0629 -0.3302  0.1086
25296W        W40765  12.571   4.028   0.342  0.1909  0.0763 -0.0909
25297W        W40766   2.119   9.713  12.897 -0.2745  0.2795  0.1454
25298W        W40767   5.081   9.756   4.190 -0.0577  0.0400 -0.2404
25299W        W40768   8.558   0.872   4.825 -0.1244 -0.1482  0.2022
25300W        W40769   2.498   3.386  13.954 -0.2601  0.1129  0.3585
25301W        W40770   9.098  18.521  13.175  0.0322 -0.0647 -0.2732
25302W        W40771  15.982  12.040  15.782 -0.1624 -0.0899  0.1746
25303W        W40772   2.787  10.142   5.071  0.0570  0.2714 -0.3965
25304W        W40773   2.504   4.028   4.464  0.1210 -0.1784 -0.1791
25305W        W40774  10.187   8.977   3.440 -0.0191 -0.0317 -0.2754
25306W        W40775   9.134  14.238   1.459  0.0442 -0.0872  0.1934
25307W        W40776   5.166   9.045   1.693 -0.2776 -0.1889 -0.0386
25308W        W40777   7.513  14.485  14.364 -0.3084  0.0256  0.2392
25309W        W40778  11.816  17.187  12.030 -0.3428 -0.1765 -0.0411
25310W        W40779   6.705   7.441  14.900  0.1624  0.5963  0.0461
25311W        W40780  14.258  13.751   5.885 -0.1274 -0.0138 -0.4277
25312W        W40781   6.963  18.432  11.981 -0.1423  0.0087  0.0156
25313W        W40782   3.739   6.390   1.255 -0.2584 -0.0040 -0.4137
25314W        W40783  18.603   6.018   0.284 -0.2454 -0.0693 -0.2162
25315W        W40784  15.167   7.681  13.026  0.4046 -0.1428 -0.1776
25316W        W40785  11.163   2.255  13.282 -0.2322  0.1701 -0.1220
25317W        W40786  18.194   4.331  13.979 -0.1264 -0.1527  0.0965
25318W        W40787   8.382  10.116  12.004 -0.1382  0.5317 -0.0099
25319W        W40788  16.313   7.645  10.961  0.2125 -0.3123  0.2585
25320W        W40789   1.214   2.114  15.676  0.2009  0.1984  0.1957
25321W        W40790  10.803   3.132   1.275  0.1767 -0.0946 -0.0139
25322W        W40791   8.188   4.828  11.877  0.0347 -0.0301  0.1202
25323W        W40792   5.416  17.825   3.449 -0.1221 -0.0002  0.0187
25324W        W40793   5.481  16.810   4.078  0.1603  0.1278  0.0683
25325W        W40794  10.996  18.546   1.892 -0.2730  0.0994 -0.0427
25326W        W40795   6.903   8.597  12.963  0.2388  0.0962 -0.1968
25327W        W40796   6.511   0.659  12.549 -0.1542  0.0019  0.4427
25328W        W40797   2.458   5.116  10.880 -0.0724  0.0072  0.1168
25329W        W40798  15.307   1.290  15.728 -0.4378  0.1089 -0.1254
25330W        W40799  18.005   6.323   1.701 -0.0489 -0.0491 -0.1506
25331W        W40800   2.302  12.430  12.604 -0.0114  0.2090  0.0468
25332W        W40801  12.334  11.459   1.950 -0.4075 -0.2767  0.0141
25333W        W40802  13.247   7.433  15.190  0.2227  0.2094  0.0172
25334W        W40803   7.328   7.408  14.755  0.0212  0.1695  0.0088
25335W        W40804   2.694   1.432   0.164 -0.2545  0.1400 -0.0794
25336W        W40805   6.597  15.980  15.141 -0.1071 -0.3786 -0.1391
25337W        W40806   8.908   6.384   4.174  0.1630 -0.2901 -0.1764
25338W        W40807  17.970  11.462  14.933 -0.0129  0.2203  0.2084
25339W        W40808   0.752  14.601   4.504  0.1990 -0.3589  0.3194
25340W        W40809   5.760   0.841  11.827  0.2306  0.2114  0.1612
25341W        W40810  11.522   9.696  15.403  0.0035  0.0146 -0.0534
25342W        W40811   0.059  18.166   3.048 -0.1348 -0.0838 -0.2104
25343W        W40812   4.370  13.324   1.127 -0.2741  0.3794  0.3025
25344W        W40813   0.070   2.287  15.103 -0.0822  0.2261 -0.1026
25345W        W40814   6.449  14.880   0.374  0.2767 -0.0117 -0.1450
25346W        W40815   3.113   1.697  12.873 -0.0858 -0.2902  0.0265
25347W        W40816   1.034   4.678  10.977  0.1229  0.2462  0.2490
25348W        W40817  14.525   0.459  12.719 -0.2005  0.2598  0.0101
25349W        W40818  10.228  11.239  12.516  0.1117 -0.1148 -0.0745
25350W        W40819   7.025   7.635   5.297 -0.1253 -0.3780  0.1125
25351W        W40820  10.809   5.874   4.405  0.0387 -0.1394 -0.1993
25352W        W40821   7.515  16.712   1.152 -0.1987  0.4012 -0.0105
25353W        W40822   8.890  14.204   1.933  0.1101  0.0748  0.2249
25354W        W40823  11.982  16.190  14.465 -0.0152  0.2116  0.1436
25355W        W40824  17.948  16.241   0.863  0.0347 -0.2092 -0.3986
25356W        W40825  14.413   2.103  13.104 -0.2095 -0.1617 -0.2690
25357W        W40826  10.098  10.709   4.980 -0.0139  0.2683  0.4986
25358W        W40827  13.256  13.550  13.773 -0.1083  0.2245  0.0936
25359W        W40828   1.371  12.945   5.380  0.1666 -0.0503 -0.2214
25360W        W40829   5.350   6.460  11.530 -0.1693  0.0473  0.2161
25361W        W40830  17.733  15.603   1.197 -0.0615 -0.1073 -0.2536
25362W        W40831  10.714   3.720  12.642  0.2545  0.1294  0.4415
25363W        W40832  18.485   4.228  13.556  0.0151 -0.0836 -0.1142
25364W        W40833   4.238  16.163   2.828  0.1121  0.0867 -0.2145
25365W        W40834   8.432   9.263  11.864 -0.1512 -0.1447  0.1131
25366W        W40835  14.798  15.989  12.154  0.0329  0.0111 -0.0372
25367W        W40836  16.745   6.146   3.708 -0.0108  0.3128  0.2028
25368W        W40837  12.772  16.010  10.889  0.2258  0.0517 -0.4264
25369W        W40838  13.490   9.742   4.446 -0.1535  0.0643 -0.0615
25370W        W40839  12.882   3.933  13.978 -0.1127  0.1065 -0.0258
25371W        W40840   8.312  12.931  12.429 -0.0254 -0.1840 -0.1758
25372W        W40841  18.495   1.924  13.047  0.4301 -0.0488  0.0606
25373W        W40842   3.661  10.679  11.673  0.0568  0.0528  0.1535
25374W        W40843  18.334  17.078   2.853  0.1052  0.0312  0.0821
25375W        W40844  11.154   4.174  10.762 -0.0444 -0.0734 -0.1040
25376W        W40845  16.852  12.900  12.034  0.1589  0.1878 -0.2055
25377W        W40846  10.227  14.377   2.259 -0.5113  0.2858 -0.1061
25378W        W40847  11.809  16.601   0.480  0.2250 -0.0702  0.1475
25379W        W40848   3.907  15.686   4.957  0.3135  0.0904  0.0467
25380W        W40849   8.539   0.395   1.923 -0.1579  0.1142  0.0869
25381W        W40850   2.294  16.240   6.133 -0.1554 -0.2069 -0.1106
25382W        W40851   9.353   0.932  12.567  0.1284  0.1081  0.1299
25383W        W40852   0.703  13.317   5.195 -0.1785  0.0966 -0.0893
25384W        W40853   3.090   1.759  11.092 -0.2122 -0.1569 -0.0714
25385W        W40854  15.481   9.113   1.772 -0.1638 -0.1217 -0.0860
25386W        W40855  11.027   6.214   2.049  0.0642 -0.2018 -0.3709
25387W        W40856  12.282  14.093   0.876 -0.1010  0.2106  0.0839
25388W        W40857   2.745   3.797   2.113  0.1756  0.1344 -0.2118
25389W        W40858  16.151   6.547  14.508 -0.0037 -0.1320  0.2073
25390W        W40859  16.285  15.295   1.028 -0.1246 -0.2887  0.2756
25391W        W40860  15.524   6.876   5.992  0.0306 -0.0698 -0.1317
25392W        W40861  15.216   9.895  11.505  0.0467  0.3242 -0.1806
25393W        W40862  13.961  12.503  11.336  0.3415  0.1623 -0.3011
25394W        W40863  11.256   9.378   0.582  0.0118  0.2130  0.3412
25395W        W40864  16.077   8.596  13.763  0.0192  0.0632 -0.0038
25396W        W40865   1.085   8.544   6.034  0.0656  0.0216 -0.0503
25397W        W40866   4.416  18.090   1.061 -0.2823 -0.0148  0.0028
25398W        W40867  14.882   4.589   9.787 -0.0221 -0.0549 -0.0156
25399W        W40868   4.647  14.424   0.585 -0.0926 -0.0345  0.0628
25400W        W40869  15.626   6.663   1.349 -0.1388 -0.0987 -0.0995
25401W        W40870   7.376  10.596   3.782 -0.1070 -0.3118  0.1577
25402W        W40871   4.423  12.796   1.282 -0.2030  0.2645  0.0667
25403W        W40872   8.936  15.688  14.303 -0.3646  0.3000  0.0438
25404W        W40873   5.797  13.600  14.600  0.4620  0.0996  0.1196
25405W        W40874   0.967   5.860  15.340 -0.0588 -0.2527  0.0971
25406W        W40875  13.526   9.520  13.818 -0.5193 -0.1546 -0.2024
25407W        W40876  11.235   0.962  11.967  0.0546 -0.2377 -0.0354
25408W        W40877   0.082   8.251  13.903  0.3292 -0.1217  0.1719
25409W        W40878  12.628   6.275  13.453  0.0616  0.5083 -0.0022
25410W        W40879   0.762   9.102  14.906 -0.0336 -0.1889 -0.2638
25411W        W40880   4.491   7.422  14.213 -0.2521 -0.1494  0.0133
25412W        W40881  11.533  12.135   3.581 -0.4437  0.0807  0.0601
25413W        W40882  17.727   8.513   0.741 -0.0336 -0.1902 -0.1119
25414W        W40883   2.294  18.559  12.610  0.1202  0.0358  0.3828
25415W        W40884   6.947  13.500  15.396 -0.0541  0.2808 -0.0297
25416W        W40885  10.774   2.587   1.483 -0.2652 -0.0599 -0.1977
25417W        W40886  16.839   0.670  14.310 -0.4317 -0.4726  0.3330
25418W        W40887  11.730  12.421  15.375  0.2325  0.2020 -0.1354
25419W        W40888   6.930   4.244  15.184  0.4892  0.1379 -0.1723
25420W        W40889   7.462   2.325  12.290  0.2703  0.1182 -0.0396
25421W        W40890  11.843   0.224   1.914  0.0564  0.0316 -0.2773
25422W        W40891   1.619  15.185   4.518  0.2432  0.2839 -0.4254
25423W        W40892  12.367   1.056   3.304  0.1661  0.1383 -0.1605
25424W        W40893   1.391   4.324  10.637 -0.0060  0.2866 -0.2278
25425W        W40894  10.996  14.557  15.756  0.1219  0.1081  0.2829
25426W        W40895   6.642  15.164   2.228  0.1242  0.1424  0.3108
25427W        W40896   1.968  16.043   0.197 -0.1684  0.0903  0.1603
25428W        W40897  17.598   7.506   3.504 -0.1761  0.2077  0.0829
25429W        W40898  11.579   8.742  13.517  0.1885  0.0211 -0.0451
25430W        W40899   2.001  15.493  11.666  0.2086 -0.1207 -0.0674
25431W        W40900   5.144  18.515   0.868  0.1388  0.0566  0.2953
25432W        W40901   0.827  14.295   5.269  0.1721  0.0263 -0.1751
25433W        W40902   2.946   6.174  12.807 -0.1437 -0.0764 -0.0230
25434W        W40903   9.404  10.387   0.339  0.0447  0.1914 -0.0801
25435W        W40904  11.523   0.837   3.607 -0.1097 -0.0783  0.2187
25436W        W40905   4.787  11.437   2.500 -0.0272 -0.1816  0.2354
25437W        W40906  15.543  16.450   5.672 -0.3396 -0.1714 -0.1893
25438W        W40907   6.052   1.470  15.062 -0.0022  0.1150 -0.0502
25439W        W40908   7.362   5.880  10.736  0.4389 -0.0055 -0.1354
25440W        W40909  15.064  10.794   0.686  0.0525  0.0744  0.0258
25441W        W40910   5.629   5.652  13.497  0.0524  0.4926 -0.1828
25442W        W40911  13.682  17.879  14.115 -0.0677  0.2079 -0.0407
25443W        W40912  13.694   8.617  13.691 -0.0434 -0.0804  0.1981
25444W        W40913   9.408  15.530  13.590 -0.4971  0.1132  0.1303
25445W        W40914  16.900   7.310   5.099  0.1607 -0.3350 -0.2420
25446W        W40915   2.695   7.928   4.412 -0.2113  0.1155 -0.3858
25447W        W40916  13.712  12.711  12.319  0.3713  0.2940 -0.1603
25448W        W40917   6.299  16.697  12.487 -0.0032  0.0693 -0.1749
25449W        W40918  13.282  13.946   4.821 -0.1831 -0.0435 -0.1659
25450W        W40919   8.308  18.476  15.280  0.0523 -0.2524 -0.1743
25451W        W40920   1.411  12.180  15.576 -0.2107  0.0497 -0.2226
25452W        W40921   6.407   2.631   1.259 -0.3802  0.2592  0.0515
25453W        W40922   9.730   1.714   1.196  0.2102 -0.0403  0.0653
25454W        W40923   3.709   5.447  13.363  0.1289  0.0019 -0.0205
25455W        W40924   8.806   9.995  12.525  0.2319  0.0424 -0.2382
25456W        W40925  11.208   0.885   5.222 -0.1125 -0.0387 -0.2154
25457W        W40926  12.200  15.456  10.619 -0.1854 -0.1440  0.2305
25458W        W40927  11.989  15.499   3.528 -0.1635  0.2127 -0.0727
25459W        W40928  10.146  17.202   5.573  0.0353 -0.0024  0.1895
25460W        W40929   7.490   9.512  13.848 -0.3026  0.0532 -0.4289
25461W        W40930  17.638  12.745  12.121 -0.5612  0.1729  0.3017
25462W        W40931   6.691   6.957   5.082 -0.0366 -0.0055 -0.2219
25463W        W40932   9.422   7.747   6.074 -0.1226 -0.2267 -0.1045
25464W        W40933   8.929  11.317  10.883 -0.0488  0.2634  0.0990
25465W        W40934   5.247  11.495  13.208  0.0624 -0.4491 -0.2641
25466W        W40935   6.037  17.141   4.418 -0.1922  0.1704 -0.0093
25467W        W40936  17.403   5.083  11.046 -0.1643  0.1301 -0.0491
25468W        W40937   9.195   8.306  14.502 -0.0245 -0.0398  0.2140
25469W        W40938  14.192  10.607   9.648  0.1157  0.4329  0.1808
25470W        W40939   3.966   3.896  10.717  0.1775  0.2330  0.1360
25471W        W40940   8.777   6.875  15.732 -0.0800 -0.4028  0.5970
25472W        W40941  13.620   8.361  10.887  0.1701 -0.4092 -0.1368
25473W        W40942   9.001   8.044   5.330  0.1440  0.1153  0.1137
25474W        W40943  11.755   0.863   1.427  0.1022  0.1488  0.2883
25475W        W40944  16.423   0.362   5.725 -0.1208  0.1435  0.3384
25476W        W40945   1.787  13.202  14.462 -0.1138  0.3502 -0.1950
25477W        W40946   8.901  14.663   0.370  0.2099  0.0642  0.2006
25478W        W40947  15.942   5.030   4.434  0.2561  0.2400  0.1998
25479W        W40948   4.310  17.606   3.615 -0.0543  0.1155  0.0571
25480W        W40949  14.364  15.361   2.596  0.1857  0.0417 -0.0763
25481W        W40950   1.397  16.329  13.438 -0.3417  0.0969 -0.1554
25482W        W40951  16.145   8.270   5.696 -0.0963 -0.0428  0.3026
25483W        W40952   0.061   9.107   1.379 -0.0318  0.0881  0.1767
25484W        W40953   8.812   1.684  11.510 -0.3378 -0.0813  0.0279
25485W        W40954  14.042  18.487  12.317 -0.1148 -0.0631 -0.1152
25486W        W40955  11.335  14.310  14.971  0.1954  0.0068 -0.0937
25487W        W40956   0.675  17.109  15.709 -0.0781  0.0919  0.0503
25488W        W40957   4.694   5.569   3.972  0.0517  0.1085  0.0427
25489W        W40958   4.061   6.543  13.011 -0.1416  0.0424 -0.0664
25490W        W40959   5.844   7.709   4.429  0.2935  0.2995 -0.1566
25491W        W40960  11.963   7.878  12.960  0.1202  0.0243 -0.0803
25492W        W40961   3.405   0.689   4.497  0.0051 -0.1308 -0.0820
25493W        W40962  14.993   0.909   4.746  0.1051  0.0060 -0.0844
25494W        W40963   8.531   6.329   3.297 -0.1852 -0.0360  0.1771
25495W        W40964  15.606  13.684  11.988  0.2113 -0.0401  0.2063
25496W        W40965  16.134   7.921   4.268  0.2270  0.0671  0.0170
25497W        W40966   0.465  16.741   1.000  0.1676 -0.0781 -0.2272
25498W        W40967  14.997  11.714  13.104  0.0638 -0.1017 -0.0754
25499W        W40968   0.784   0.610   3.495 -0.0302  0.0514  0.0536
25500W        W40969   9.239  13.102  12.403 -0.1810  0.1236 -0.2081
25501W        W40970   4.005   8.475  12.684 -0.0689  0.2264 -0.1156
25502W        W40971  10.410   7.399  14.115 -0.1459  0.0029 -0.2438
25503W        W40972  17.315   5.629   1.317 -0.0669  0.2934 -0.0922
25504W        W40973   0.680   5.190   1.620 -0.3366  0.0067 -0.2757
25505W        W40974   0.055   8.481   3.992  0.3621 -0.1081  0.0654
25506W        W40975  17.360   2.877  11.267 -0.3809 -0.1030  0.2258
25507W        W40976  17.303  10.846   4.856  0.1763  0.1744  0.1205
25508W        W40977   8.278   3.946   2.629  0.1547 -0.0496  0.3526
25509W        W40978   5.815  17.815   1.076  0.2482  0.1030 -0.0738
25510W        W40979  10.060  12.469   3.055 -0.3344  0.2679  0.1983
25511W        W40980   1.705   7.325   2.199  0.0926  0.0172  0.0206
25512W        W40981   5.905   5.289  14.699 -0.1926  0.2214  0.0169
25513W        W40982   2.441   8.236  15.597 -0.3339 -0.1079  0.0390
25514W        W40983   6.909  10.656   3.173 -0.0855 -0.2462 -0.0256
25515W        W40984   9.848   6.028  15.262 -0.1820 -0.1492  0.1137
25516W        W40985  17.388  11.805  13.056 -0.3302  0.0672 -0.1864
25517W        W40986   0.577   8.174   2.785 -0.2630 -0.0140  0.3471
25518W        W40987  16.000   3.119   1.213  0.2124  0.5060  0.2003
25519W        W40988   8.644  13.591   4.270 -0.1431  0.1015 -0.3726
25520W        W40989   2.520   8.023   0.543 -0.1293  0.0161  0.1852
25521W        W40990   7.938   2.192   3.984 -0.3782 -0.1455 -0.0886
25522W        W40991   1.707   5.435   5.957 -0.0012  0.0180  0.2132
25523W        W40992  16.696  13.385  12.529  0.1651  0.3251 -0.0462
25524W        W40993   4.794   4.956   5.038  0.2741  0.0564  0.0527
25525W        W40994  10.579   7.756  12.022 -0.4108  0.4538 -0.1293
25526W        W40995  18.606   1.871   1.987  0.0919 -0.0034 -0.0316
25527W        W40996   1.954   8.823  12.019  0.3116 -0.3707 -0.0862
25528W        W40997  17.030   6.283   0.879  0.0744  0.2179  0.0168
25529W        W40998  18.250  17.514  15.214 -0.1736 -0.1624  0.3589
25530W        W40999  15.159   7.151   2.914  0.0257 -0.5923 -0.0606
25531W        W41000  10.414   7.515   0.673 -0.0276 -0.3603 -0.2571
25532W        W41001  14.429  14.053  14.040  0.2680 -0.0566 -0.0910
25533W        W41002   2.570  14.495   2.027 -0.2153 -0.2112 -0.1157
25534W        W41003  17.535  17.116  11.811  0.0202  0.0531  0.1779
25535W        W41004   0.936  13.426  14.796  0.0164  0.1096 -0.1244
25536W        W41005   0.096   9.474   2.376  0.3904 -0.0977 -0.2352
25537W        W41006   9.833  11.935   1.018  0.0530  0.2560 -0.3084
25538W        W41007  13.374   8.577  14.929 -0.0644  0.1402 -0.0824
25539W        W41008   7.281  14.027   0.356 -0.2548 -0.0622  0.1641
25540W        W41009   4.877  16.994   5.019  0.1855  0.1854  0.1201
25541W        W41010   3.170   0.326  10.485 -0.0331  0.0247  0.1014
25542W        W41011  13.106   0.402   1.420 -0.1126  0.0141  0.0449
25543W        W41012  10.392   0.560   1.621 -0.0595  0.1464  0.1164
25544W        W41013   3.948   5.245  12.572 -0.2025  0.1925 -0.0211
25545W        W41014   3.041  18.453  13.904  0.2382 -0.2319 -0.2312
25546W        W41015   1.223   8.426  13.197 -0.0411  0.1644  0.0550
25547W        W41016  11.328   5.047   4.713  0.2867  0.0819  0.2618
25548W        W41017   9.070   5.599  12.347 -0.3723 -0.0259  0.0117
25549W        W41018  10.620  16.507  11.450 -0.0124 -0.0971 -0.0120
25550W        W41019   3.804   1.174  11.089  0.0404  0.1462 -0.0664
25551W        W41020   4.449  12.763   4.650  0.4616  0.0977  0.0273
25552W        W41021  11.771   7.927   2.368 -0.1207 -0.0372 -0.4616
25553W        W41022   6.497  14.577   5.186 -0.0810 -0.0697 -0.1551
25554W        W41023  17.433  14.788   0.160 -0.1140 -0.3665 -0.2553
25555W        W41024  11.812  12.728   1.620  0.0179  0.0823  0.1585
25556W        W41025  15.721  18.330   5.160 -0.1966 -0.0302 -0.0359
25557W        W41026   0.329  17.808  10.724 -0.1269 -0.4612 -0.0528
25558W        W41027  14.491  18.139  12.846  0.1620 -0.0942 -0.4026
25559W        W41028  14.488  11.972   2.799 -0.1418 -0.1829 -0.0836
25560W        W41029  12.101  12.196   2.425 -0.0409  0.3680 -0.2209
25561W        W41030   6.489   3.996  15.232 -0.0949  0.0916  0.1561
25562W        W41031  11.890   5.099  11.410  0.1427 -0.0713  0.0497
25563W        W41032  10.720   1.669  12.835 -0.3231  0.0879 -0.0408
25564W        W41033   6.281   7.405   0.528  0.0876  0.1606 -0.1461
25565W        W41034  11.184  16.791   1.517 -0.0478  0.2533 -0.0969
25566W        W41035   0.919  14.273  12.860  0.0039 -0.1818 -0.3940
25567W        W41036   6.039  10.983   4.062 -0.0852 -0.1479 -0.4347
25568W        W41037   5.004  17.464   2.543 -0.3115 -0.0004 -0.1539
25569W        W41038   0.099  12.314  15.045  0.2160 -0.2946 -0.2035
25570W        W41039   6.357  16.468   2.286 -0.6673 -0.0375 -0.4842
25571W        W41040   9.706  17.873   0.956  0.1744 -0.1047  0.0942
25572W        W41041  10.125   7.242   3.671  0.0694  0.0889  0.1385
25573W        W41042   9.161   0.257  14.994 -0.2250 -0.3137  0.2585
25574W        W41043  17.133   4.921  12.264  0.2136  0.1141 -0.0191
25575W        W41044  16.403   3.295   5.166 -0.1079  0.0872  0.0964
25576W        W41045   2.621   8.574   4.722 -0.1040  0.0728  0.2857
25577W        W41046   2.238  17.878  10.784  0.1288  0.0580  0.1427
25578W        W41047  10.097  17.453  13.166  0.1083 -0.0924  0.1351
25579W        W41048   8.107   7.983   4.589  0.0709 -0.2413 -0.0497
25580W        W41049  10.319  15.582  14.010  0.2094  0.1101 -0.0345
25581W        W41050  16.409  17.853  12.929 -0.0895  0.2694  0.1120
25582W        W41051   8.326  16.033  14.964  0.1839  0.0127  0.3708
25583W        W41052   0.014  17.471  15.522  0.1880  0.5003  0.0766
25584W        W41053  10.073  12.273  15.751 -0.0203 -0.1562 -0.0863
25585W        W41054   0.767   8.980  11.313 -0.0555  0.1631 -0.1064
25586W        W41055  14.849  17.782  11.043  0.0668 -0.2367 -0.1344
25587W        W41056  16.404   3.987  13.405 -0.1350 -0.3357 -0.1146
25588W        W41057  18.459  15.543  12.366  0.1239 -0.3871 -0.3260
25589W        W41058  17.919  15.640   2.508 -0.0634 -0.1547  0.1795
25590W        W41059   8.231  13.215   3.039  0.0330  0.1676 -0.0227
25591W        W41060   5.747  10.005   3.493  0.0360 -0.1234 -0.2299
25592W        W41061  16.178   4.165  11.315 -0.0466 -0.2012 -0.0262
25593W        W41062  15.425   1.591  15.305  0.1287  0.0492 -0.0406
25594W        W41063   0.674  15.752  14.345 -0.0008  0.1823  0.0652
25595W        W41064   2.379  10.632  12.035  0.0279  0.0896 -0.1335
25596W        W41065   2.657   4.794   5.190  0.2683  0.0175 -0.3058
25597W        W41066   5.847   2.931  12.219  0.1797 -0.0346  0.3066
25598W        W41067   0.280   4.736  14.669 -0.0419 -0.0424  0.1743
25599W        W41068   3.959  15.273   4.265 -0.0158 -0.1090  0.3466
25600W        W41069  17.027  10.269  11.977  0.2252  0.2927  0.2930
25601W        W41070  12.357   3.619  11.562  0.1318  0.0238 -0.5078
25602W        W41071   8.838  15.519   0.836 -0.0927  0.2267 -0.0083
25603W        W41072   3.349  12.207   4.534 -0.0841  0.0069 -0.2039
25604W        W41073   6.827   5.413  11.754 -0.3662 -0.0038  0.0350
25605W        W41074  14.415  17.547  11.168  0.1386 -0.2043 -0.2939
25606W        W41075  12.321  17.937  11.737 -0.1297  0.0609  0.1582
25607W        W41076   3.262  13.152  13.912  0.0797  0.3989 -0.0459
25608W        W41077   0.054  10.146   0.324 -0.2237 -0.1803 -0.2338
25609W        W41078  17.007   3.813   9.991 -0.2321  0.1293 -0.0708
25610W        W41079   8.758   9.239  13.136  0.3109 -0.1277 -0.3651
25611W        W41080  18.402   0.559   0.347 -0.2479 -0.0095 -0.2361
25612W        W41081   8.794   3.803  11.476 -0.0249  0.1133 -0.5089
25613W        W41082   6.692   3.557   3.316 -0.0084 -0.2339 -0.1636
25614W        W41083  16.786   0.025   0.010  0.2661 -0.1317 -0.4295
25615W        W41084  15.193  10.523  14.669  0.0123 -0.1469 -0.0166
25616W        W41085  11.858   7.591  13.350 -0.0982 -0.2174 -0.1187
25617W        W41086   6.604   9.012   4.577 -0.1139  0.0714  0.1752
25618W        W41087  14.834   8.636  13.604 -0.0020 -0.0613 -0.1292
25619W        W41088  15.982   7.743   0.176 -0.0112 -0.3943 -0.0146
25620W        W41089  15.507  16.509   0.686 -0.1253 -0.1129 -0.1127
25621W        W41090   9.021   6.870   4.342 -0.2253  0.1783  0.0223
25622W        W41091  10.268  12.195  14.509  0.2758 -0.1847  0.1182
25623W        W41092  17.131   2.799   0.320  0.1978 -0.0257  0.2661
25624W        W41093  13.175   7.973   1.358 -0.1076  0.1368 -0.1696
25625W        W41094   1.108  11.844   4.270  0.2246 -0.0469 -0.3840
25626W        W41095   5.917   2.916  14.226  0.1447 -0.0921 -0.2290
25627W        W41096   7.906  16.936  10.729 -0.1129  0.1226  0.2365
25628W        W41097  17.403   4.914  12.831 -0.2069 -0.1505  0.1729
25629W        W41098   2.419  15.446   5.685 -0.1492  0.1363 -0.1213
25630W        W41099  12.072   9.327   3.345  0.2554 -0.0496 -0.2117
25631W        W41100   5.639   3.218  11.842  0.2592 -0.1551 -0.1039
25632W        W41101  11.851  17.590   1.057  0.0058  0.2954 -0.0669
25633W        W41102  18.546   6.205  10.934  0.1255 -0.1189  0.0804
25634W        W41103   8.251   9.639  11.022 -0.0257 -0.0297  0.1212
25635W        W41104   5.755   8.026   4.847  0.0660 -0.1012  0.0482
25636W        W41105  10.879  13.446  10.878  0.1775 -0.0069  0.0271
25637W        W41106  18.049  10.769   2.005 -0.1715 -0.0541  0.0838
25638W        W41107  13.444  14.418  15.433 -0.1022  0.0832 -0.0139
25639W        W41108  12.105   0.644   1.707  0.0689  0.4317 -0.1546
25640W        W41109   9.624   2.200   4.051  0.1357 -0.0840  0.1135
25641W        W41110   8.372   4.946   5.889  0.3560  0.0308  0.2840
25642W        W41111   5.105  11.048   5.325 -0.5124 -0.1300  0.0012
25643W        W41112  10.860   3.888   0.318 -0.2849  0.1735  0.0843
25644W        W41113   3.528  10.680   2.741 -0.0289 -0.1830 -0.0847
25645W        W41114  12.702   8.738   1.796 -0.2140  0.1735 -0.0849
25646W        W41115  11.830  14.638  13.567 -0.3136  0.0060  0.1475
25647W        W41116  18.024   2.657  10.916 -0.0454  0.1455  0.3488
25648W        W41117   0.005   3.891  12.002  0.0697 -0.1439 -0.0330
25649W        W41118  13.116  15.858  11.854  0.3706 -0.0124 -0.0247
25650W        W41119  15.708   7.693   2.245 -0.0541  0.2876  0.2312
25651W        W41120  12.349  12.448   6.314  0.1624  0.2079  0.0027
25652W        W41121   6.566   5.174   2.734  0.0694  0.0594 -0.0654
25653W        W41122  12.940   0.040   5.205  0.1430  0.2606  0.2518
25654W        W41123  17.058   6.544   1.406 -0.2506  0.0113  0.2847
25655W        W41124   3.903  17.958   2.307  0.3571 -0.1732  0.1057
25656W        W41125  17.158   6.191   5.214  0.2794 -0.1128 -0.0702
25657W        W41126   7.394  16.855   3.534  0.1155  0.0625  0.2510
25658W        W41127   1.893  15.161  13.462 -0.0497 -0.0617  0.2275
25659W        W41128  13.726   5.944  15.507 -0.1146 -0.2729  0.0019
25660W        W41129  10.824  10.078   0.068  0.0856  0.1673  0.0159
25661W        W41130  12.924   5.195   2.421 -0.0896  0.0571 -0.1285
25662W        W41131   7.100   2.127   4.086 -0.1677 -0.1432  0.2835
25663W        W41132  10.821   0.089   4.134 -0.3588 -0.1958  0.0751
25664W        W41133   5.010   8.672   5.278  0.0889  0.2170 -0.1132
25665W        W41134  11.507   6.236   4.655 -0.1094  0.1392 -0.1382
25666W        W41135   6.834  17.273  13.887 -0.2870 -0.0141  0.0912
25667W        W41136  13.211  10.577   0.941 -0.1384 -0.0957 -0.1907
25668W        W41137   8.713   8.520  13.669  0.1940  0.2135  0.3147
25669W        W41138   2.336  15.950   5.688  0.2258  0.0489  0.0059
25670W        W41139  13.626   3.863   1.669  0.0271 -0.1646 -0.2222
25671W        W41140  17.545  15.571  13.179 -0.0453  0.2555  0.1466
25672W        W41141   9.858  11.159  14.756 -0.1589 -0.1281  0.0440
25673W        W41142   5.669   1.467  15.362  0.0183 -0.0903  0.5572
25674W        W41143  15.231   7.837  13.569 -0.3250  0.1158  0.1282
25675W        W41144  12.715  16.835  14.567 -0.0408 -0.3863 -0.0504
25676W        W41145   7.355   4.434  14.437 -0.1577 -0.1723 -0.0493
25677W        W41146  13.172  18.021  11.095  0.0882  0.0621 -0.2367
25678W        W41147   4.150   1.197   2.714  0.0019  0.3937 -0.1861
25679W        W41148   0.671  16.936   5.358 -0.1162 -0.2437  0.1040
25680W        W41149   2.195  17.588  10.382  0.0216 -0.2849 -0.1791
25681W        W41150  14.996  18.472  12.331 -0.0062  0.0126  0.0659
25682W        W41151  14.121   7.754   0.983  0.0120  0.0238 -0.0306
25683W        W41152  14.701  13.929  11.025 -0.2532 -0.0455 -0.1957
25684W        W41153   2.706   2.846   0.726 -0.2388  0.0183  0.3344
25685W        W41154   7.608   3.426  13.619 -0.1244  0.1133 -0.1248
25686W        W41155  10.024   8.335   1.072 -0.1329  0.0781 -0.3920
25687W        W41156  13.202   0.899  13.596 -0.1318 -0.0647  0.0925
25688W        W41157  15.340  15.368  14.037  0.1345 -0.0707  0.0659
25689W        W41158  17.771   5.390  10.774 -0.1611  0.2708  0.1927
25690W        W41159   6.671  13.826  11.870 -0.1176 -0.0908 -0.1641
25691W        W41160   6.029   4.728  13.403 -0.2472 -0.0569  0.0618
25692W        W41161   7.146  14.340  13.026 -0.0383  0.1980 -0.0195
25693W        W41162   1.342   0.026  13.105  0.1049 -0.0557 -0.2040
25694W        W41163  10.147  11.845   3.431  0.0985  0.0319  0.2550
25695W        W41164  10.000   5.099   0.467 -0.2236 -0.0530 -0.2363
25696W        W41165   6.293  16.712  13.000  0.1736  0.0504 -0.1618
25697W        W41166   9.851   4.969   5.043 -0.0025 -0.3046 -0.1020
25698W        W41167   0.812   5.087  14.605 -0.1157  0.1132 -0.0569
25699W        W41168   3.113   3.681  14.827  0.0895  0.0007 -0.1513
25700W        W41169   0.735  14.969  12.040  0.0491  0.0508 -0.2255
25701W        W41170  11.669   4.192  15.718 -0.0084  0.1574 -0.0598
25702W        W41171  15.877  11.376   4.745 -0.1809  0.2063  0.2045
25703W        W41172  14.400  12.172   3.233 -0.1018  0.0559  0.0532
25704W        W41173  13.912   8.074   2.432  0.1495 -0.0015 -0.1229
25705W        W41174  17.049  13.611  11.301 -0.0189 -0.0472  0.3653
25706W        W41175   0.012  18.279  11.961 -0.0945 -0.0300  0.2474
25707W        W41176  11.032  15.085   0.825  0.1294 -0.3162 -0.1912
25708W        W41177  15.141  10.937  15.458 -0.3948 -0.1633  0.2230
25709W        W41178  18.241  12.164   5.593 -0.1387 -0.1821  0.1347
25710W        W41179  10.297   1.368   2.918  0.1949  0.2097  0.0315
25711W        W41180   0.586   8.182   4.517  0.0237 -0.1989 -0.1712
25712W        W41181   4.400   4.414  15.641 -0.2094  0.1227 -0.1128
25713W        W41182   9.546   6.150   1.102  0.0234  0.1974  0.5506
25714W        W41183  17.507   8.288  11.245 -0.0212  0.1356  0.1657
25715W        W41184   8.411  11.350   3.230 -0.1921 -0.3880 -0.3306
25716W        W41185   5.449   6.810   2.850  0.2104 -0.1821 -0.1916
25717W        W41186   5.100  17.237  13.442 -0.0861  0.1407  0.1167
25718W        W41187   2.978   8.805   4.410  0.1066  0.2035 -0.0945
25719W        W41188   8.172   7.678   1.396  0.0976  0.0343  0.0724
25720W        W41189  14.360  16.262  11.822  0.0485  0.3396 -0.1982
25721W        W41190   2.937  11.590   5.061  0.0023 -0.0599  0.3139
25722W        W41191   6.187   1.044   0.561 -0.1625 -0.2046 -0.2066
25723W        W41192   6.894   7.437   3.514  0.2589  0.1030  0.1935
25724W        W41193   3.286  15.343   3.088  0.0925  0.0704 -0.1634
25725W        W41194   4.327   3.901   1.303 -0.3383  0.2511 -0.1984
25726W        W41195  15.280   2.184  10.789 -0.0355 -0.1968  0.2349
25727W        W41196   6.108  17.609  12.046  0.1978  0.0998 -0.1101
25728W        W41197  10.840   5.286   0.621  0.0719  0.0265  0.2140
25729W        W41198  10.981   6.206   4.117  0.2697 -0.0253  0.0635
25730W        W41199  15.990  14.988  12.593 -0.0416  0.2125  0.2151
25731W        W41200   7.063   6.327  13.528 -0.0758 -0.1073  0.0457
25732W        W41201  18.695  11.733   2.574  0.0273 -0.4455 -0.2650
25733W        W41202   8.663  18.226   4.219 -0.3070  0.1386  0.0302
25734W        W41203  13.490  10.619  14.537 -0.1585  0.0171  0.0472
25735W        W41204  15.858   4.628  10.999 -0.0721  0.0734 -0.3267
25736W        W41205  18.119  15.864  14.029 -0.0882  0.1909  0.1682
25737W        W41206  17.336  12.064   4.217  0.0270  0.0644 -0.1337
25738W        W41207   6.696  14.609   3.129  0.1112  0.0287  0.0582
25739W        W41208   1.259   9.100  14.726 -0.0085 -0.3080 -0.1893
25740W        W41209  13.712   5.367  11.547  0.0273 -0.0176  0.1268
25741W        W41210   1.813   5.723   1.431 -0.3552  0.4461 -0.2775
25742W        W41211  17.917   7.169   2.376 -0.4465 -0.2000  0.0988
25743W        W41212   6.274   8.099   1.091 -0.1893  0.1219  0.0289
25744W        W41213   6.728  16.126  12.744 -0.1237 -0.1388 -0.2316
25745W        W41214   6.535   7.890  14.144  0.0437  0.1202  0.0377
25746W        W41215   0.364   1.474  12.987  0.1634  0.1517 -0.0932
25747W        W41216  16.138   0.371  11.055 -0.3799 -0.1304 -0.0077
25748W        W41217   7.731   9.693   0.075  0.1661 -0.0235  0.0142
25749W        W41218   3.029   2.291   4.347  0.2148 -0.0533 -0.1635
25750W        W41219   7.640   7.553   3.630  0.0129  0.0093  0.3056
25751W        W41220  11.854  17.756   2.651  0.1228 -0.0272 -0.0149
25752W        W41221   1.536  11.218   0.840 -0.0763 -0.2148 -0.0990
25753W        W41222   4.920  16.139   0.199 -0.1609 -0.2612  0.0923
25754W        W41223  13.337   3.917   4.018 -0.0262 -0.1029 -0.6253
25755W        W41224   5.703   8.551   0.309 -0.1131 -0.3666  0.0995
25756W        W41225   5.981  17.942   2.701  0.2635 -0.1353  0.2878
25757W        W41226   4.840   9.677   3.079  0.3480  0.4229 -0.1726
25758W        W41227   7.323   9.357  14.309 -0.1090  0.2036 -0.1265
25759W        W41228   2.742  10.271  12.084 -0.1986  0.0026  0.2039
25760W        W41229   3.658  18.531   5.623  0.0664  0.2118 -0.1024
25761W        W41230   9.754   7.752   3.864 -0.1519  0.1967  0.1708
25762W        W41231   8.933  17.303  14.308 -0.1215 -0.2589 -0.1234
25763W        W41232  18.529   2.321   4.244 -0.0437 -0.1018 -0.1101
25764W        W41233  12.823   2.570  15.631  0.2725 -0.0100  0.2481
25765W        W41234   9.781  11.886  11.794 -0.1476 -0.1672 -0.1446
25766W        W41235  11.996   5.465  14.783 -0.0170 -0.3159  0.1335
25767W        W41236   4.421  13.550   3.087  0.3580 -0.0322 -0.0541
25768W        W41237  12.662   0.036   3.588 -0.0182 -0.0522  0.0383
25769W        W41238  10.987   2.313   2.544  0.0306  0.2637 -0.1097
25770W        W41239   5.053  12.898  15.157 -0.0275  0.1240 -0.2627
25771W        W41240   8.507   3.777   0.042  0.1707  0.1497  0.1605
25772W        W41241   0.959   8.890  14.049 -0.0657 -0.1684 -0.2085
25773W        W41242  11.780   9.313   2.952  0.4692  0.1167  0.2365
25774W        W41243   6.998   9.331  11.804  0.0256  0.3475 -0.0353
25775W        W41244  10.007  11.435   2.593 -0.0291 -0.1740 -0.2832
25776W        W41245  15.322  10.173   2.402 -0.1138 -0.1225 -0.0509
25777W        W41246   7.419  10.708   0.769 -0.0466 -0.2361 -0.0437
25778W        W41247   1.772   7.506  11.687  0.4547  0.4208  0.0984
25779W        W41248   1.250   2.543   2.928  0.2006  0.3377 -0.1585
25780W        W41249   8.841  16.516   9.766  0.4552 -0.0083  0.0602
25781W        W41250   2.758   8.804   0.658  0.1468 -0.0217 -0.2250
25782W        W41251  18.221   3.611  12.017 -0.0719 -0.0313 -0.3890
25783W        W41252  14.460   3.540   0.652  0.1904  0.0126  0.0919
25784W        W41253  17.842   8.306   2.859 -0.2086  0.1498 -0.0225
25785W        W41254   3.604   1.070   4.262 -0.0412 -0.1695 -0.1768
25786W        W41255  13.627   2.790   4.999 -0.0522 -0.0593 -0.1022
25787W        W41256  14.940   9.008  12.426  0.1018  0.1496  0.1824
25788W        W41257   1.007  13.205   0.769 -0.0023 -0.4697 -0.1778
25789W        W41258  13.243   3.631  15.664  0.0602  0.1361  0.0563
25790W        W41259  10.553  17.995   4.718 -0.1484 -0.1925 -0.1926
25791W        W41260   6.435   6.455   3.074 -0.1881  0.1445  0.0516
25792W        W41261   9.503  10.675  13.713  0.1785  0.0162  0.0809
25793W        W41262  18.231  16.774   0.666  0.0560 -0.1153  0.0850
25794W        W41263   1.311   5.298  13.136 -0.1628  0.0684 -0.2306
25795W        W41264   3.138   3.569   0.254 -0.1204 -0.1111 -0.1484
25796W        W41265  14.400  15.762  14.110 -0.0654 -0.1492 -0.0763
25797W        W41266  18.132  15.156  14.586 -0.4347  0.0361 -0.0584
25798W        W41267   3.347   1.275  14.098 -0.4161 -0.3565  0.0730
25799W        W41268  13.722   5.480   2.361  0.1187  0.1489 -0.2301
25800W        W41269  17.698   0.221  12.268 -0.0052 -0.0677  0.1053
25801W        W41270  10.283   4.542   2.365  0.0097 -0.1463 -0.3747
25802W        W41271  18.694  11.001  14.605 -0.0664 -0.2060  0.2105
25803W        W41272  16.188  18.492  15.450  0.0281 -0.2428  0.0340
25804W        W41273   5.360   9.721  11.715  0.2949  0.0116 -0.0987
25805W        W41274   1.805   3.945  12.370 -0.0594 -0.0057 -0.2390
25806W        W41275  16.429   4.914   0.832 -0.0900  0.2348  0.2183
25807W        W41276   7.242   9.896   4.951 -0.0214  0.2125  0.0416
25808W        W41277  15.803   2.239   5.901 -0.3231 -0.0571 -0.1505
25809W        W41278  14.014  13.407   1.402  0.1332 -0.0877 -0.2525
25810W        W41279  17.480  16.253  15.334  0.1223 -0.0762  0.0622
25811W        W41280   1.195  14.046  12.306 -0.0163 -0.2533  0.1303
25812W        W41281   2.048  18.043   3.513  0.1336 -0.0489  0.2855
25813W        W41282  12.853   8.737  11.439  0.1869  0.1329  0.2067
25814W        W41283   4.916   8.868   0.357 -0.1046 -0.2501  0.0542
25815W        W41284   3.883  13.283  10.984  0.3365  0.1611  0.4389
25816W        W41285   5.493  13.882  11.163  0.1122 -0.0643 -0.0980
25817W        W41286   0.778  12.749   4.601 -0.1327 -0.1131  0.1516
25818W        W41287   5.775   5.654   2.017 -0.1885  0.0404  0.2258
25819W        W41288  18.368   0.280   3.173  0.0787  0.2921  0.1803
25820W        W41289   0.995   5.895  10.188  0.0684  0.1218 -0.5838
25821W        W41290   6.481   0.285   3.386 -0.0642 -0.0261 -0.1417
25822W        W41291  16.211   9.703   1.326  0.3085  0.2065  0.2780
25823W        W41292  17.573  10.057   1.717 -0.3484 -0.0335  0.0735
25824W        W41293  13.238  17.362  13.427  0.2522 -0.3390  0.3213
25825W        W41294   9.587   4.786   4.340  0.1596  0.0419  0.0160
25826W        W41295  14.195   2.415  11.766 -0.0572  0.0496 -0.0002
25827W        W41296   4.521   8.329  12.827  0.1072  0.0330 -0.3253
25828W        W41297   1.603   1.138  10.354 -0.0589  0.0461  0.1281
25829W        W41298   7.821   4.461  12.011 -0.0748  0.1316  0.2953
25830W        W41299  13.774  17.621   3.018  0.0549  0.2350 -0.0814
25831W        W41300   9.853  15.945   3.842 -0.0607  0.2297 -0.0413
25832W        W41301   0.974   3.598   1.876 -0.0858  0.0350 -0.2231
25833W        W41302  17.709  10.749  13.324  0.1481  0.1295  0.5244
25834W        W41303  17.631  12.932   4.115 -0.0471  0.0314  0.3129
25835W        W41304  14.505  12.377  14.244  0.2882 -0.3305 -0.0967
25836W        W41305  14.743   3.670   2.811 -0.0500  0.0006 -0.0830
25837W        W41306   7.913  13.803  11.860  0.1532 -0.5025 -0.1119
25838W        W41307  14.170  11.296  13.329  0.0197 -0.2563 -0.0969
25839W        W41308  10.423  11.335  11.551 -0.1892 -0.2169  0.0878
25840W        W41309   0.809  12.595  12.458 -0.1736  0.0138  0.1653
25841W        W41310  18.581   5.948   9.713  0.0283 -0.1383  0.1513
25842W        W41311   2.196   9.961   4.847 -0.0795  0.4560 -0.0161
25843W        W41312  15.949   5.092   0.694  0.0996 -0.1364  0.2470
25844W        W41313  10.553   3.058   0.262 -0.0874  0.0354  0.5403
25845W        W41314   5.485  12.958  10.610  0.2822 -0.0215  0.1266
25846W        W41315  17.530  10.628   2.088  0.1272 -0.0411  0.0590
25847W        W41316  13.504  16.864  11.632 -0.2262  0.2177  0.1079
25848W        W41317  17.448  12.377   1.004 -0.0598  0.2608 -0.0547
25849W        W41318  17.762  13.560   4.627 -0.1153  0.2599 -0.0486
25850W        W41319  14.108  16.185   0.426  0.1631 -0.1624 -0.0698
25851W        W41320   0.291  12.958   0.054  0.0431  0.2005 -0.0161
25852W        W41321   6.948   0.926  14.086 -0.0268 -0.3155  0.2121
25853W        W41322  10.902  15.606  15.280  0.1966 -0.0450 -0.0056
25854W        W41323   8.738   2.121  11.706 -0.3650  0.0183 -0.1277
25855W        W41324   4.585   6.331  13.243 -0.0474 -0.1371  0.2265
25856W        W41325   9.242   2.523   1.565  0.0202  0.1055 -0.2062
25857W        W41326  12.839   0.471  13.371 -0.2676  0.1583 -0.1338
25858W        W41327   7.639  16.693  13.891 -0.3598  0.3648 -0.1204
25859W        W41328   2.998  13.282  10.004  0.2904  0.1855  0.0269
25860W        W41329  18.594  13.506  10.599  0.1732 -0.0226 -0.1786
25861W        W41330   3.029   5.068   1.490 -0.0910 -0.1726  0.0262
25862W        W41331  16.103  12.184   3.938  0.1127 -0.0484  0.1835
25863W        W41332  14.447  14.930  12.866 -0.1376 -0.0653  0.0296
25864W        W41333  17.982  13.264   1.721 -0.1449 -0.1852  0.1731
25865W        W41334  17.635  17.910   3.000  0.2010  0.1374 -0.0031
25866W        W41335   0.106   8.742  15.777  0.0492 -0.1633 -0.2062
25867W        W41336  18.252   4.161   0.598 -0.0286  0.2553 -0.0302
25868W        W41337   6.987   5.078   0.669  0.1269 -0.2269  0.2037
25869W        W41338  17.239  17.187  13.714  0.1551 -0.1350 -0.0998
25870W        W41339   7.553  12.809  10.967  0.0614  0.1549  0.0605
25871W        W41340  14.834   3.179  14.882 -0.0011  0.0148  0.1110
25872W        W41341  10.011  16.690  14.862  0.1583  0.0758 -0.0717
25873W        W41342   4.493  18.175   2.487  0.2840 -0.1172 -0.0969
25874W        W41343  16.086  12.208   0.852 -0.0169 -0.0976 -0.2290
25875W        W41344  15.980   2.483   1.137 -0.0529  0.0284  0.0035
25876W        W41345  15.422   8.664   4.853 -0.2376 -0.0022 -0.3652
25877W        W41346  11.172   3.633   1.253  0.1061 -0.1401  0.1474
25878W        W41347   8.081  16.855   4.118  0.2482  0.1472  0.1650
25879W        W41348  12.167  11.785   4.926  0.2829  0.1141  0.2432
25880W        W41349  16.223  14.733   4.813 -0.0491  0.1760 -0.3158
25881W        W41350   9.294   7.634   3.039  0.0089 -0.2874 -0.0091
25882W        W41351  18.450   9.293  14.247 -0.2922  0.2637  0.2053
25883W        W41352   5.681  18.125   1.808  0.0941  0.5977 -0.0334
25884W        W41353  16.998   1.270  11.188  0.1142  0.0523 -0.1368
25885W        W41354   3.748   7.475  14.393  0.1404  0.3777 -0.0981
25886W        W41355  13.319   0.738  14.096  0.1309 -0.2379  0.1831
25887W        W41356   4.923  11.738   0.525  0.1194 -0.0271 -0.1576
25888W        W41357   4.018   5.922  10.992  0.0504 -0.2483  0.0218
25889W        W41358  15.259  13.021  11.569 -0.1040  0.0332 -0.0567
25890W        W41359   2.155  12.949   4.413 -0.2719 -0.0213  0.0277
25891W        W41360  14.606   5.591  12.956 -0.0171 -0.2245 -0.1509
25892W        W41361  17.176  17.788  12.860  0.2722 -0.0015 -0.0953
25893W        W41362   7.891  13.163  11.059 -0.2681 -0.0281  0.1759
25894W        W41363  16.751   0.924  11.601  0.0960 -0.1547  0.1183
25895W        W41364   1.559  13.936  13.287  0.0065  0.0799 -0.3092
25896W        W41365   7.776   3.920  11.977  0.1328  0.0511 -0.0832
25897W        W41366  11.897   3.102  14.683 -0.1621 -0.1349  0.2111
25898W        W41367  13.864   8.615   1.108  0.0154  0.1340 -0.0080
25899W        W41368   2.507   3.574  11.559 -0.3967 -0.1084 -0.0657
25900W        W41369   0.306   0.982   2.566  0.0742 -0.2681 -0.0611
25901W        W41370  13.967   4.546  13.452 -0.1017 -0.0505  0.2128
25902W        W41371  18.025  10.762   1.530  0.2973  0.1801 -0.0433
25903W        W41372  15.935   6.004  11.260 -0.0728  0.0003  0.0908
25904W        W41373   3.647  12.583   3.951  0.3297  0.1424 -0.2221
25905W        W41374   0.313   2.585  10.954 -0.0339  0.1566 -0.0459
25906W        W41375   5.482   7.369   2.406 -0.0803 -0.0005 -0.2349
25907W        W41376  11.036   7.543  11.975 -0.4551  0.0555 -0.3778
25908W        W41377   9.632   9.223   2.036  0.0336  0.4742  0.3260
25909W        W41378  14.009   3.957   0.387 -0.0072  0.0195 -0.0140
25910W        W41379   8.099   1.998   1.551 -0.0151 -0.0822 -0.0232
25911W        W41380  14.372   4.574   0.714 -0.0619  0.2855 -0.2577
25912W        W41381   9.866  10.641   0.112 -0.1118 -0.0241  0.3416
25913W        W41382  15.220  13.623  11.656  0.1114  0.0138 -0.1136
25914W        W41383  12.981   2.295  13.272  0.1844  0.0631  0.2247
25915W        W41384  18.186  17.393  11.122 -0.0000  0.4102  0.0034
25916W        W41385   2.273  14.880  13.672 -0.0430 -0.3211  0.0957
25917W        W41386   7.903   6.175  12.010 -0.2659  0.3375  0.0187
25918W        W41387   6.677   7.110   3.812 -0.0417  0.0804 -0.4159
25919W        W41388   6.616  11.435  12.354 -0.2804  0.0506 -0.0861
25920W        W41389  12.287  11.905  13.710  0.0621  0.0835  0.0225
25921W        W41390  14.896  12.452  11.361 -0.0756  0.0767  0.3735
25922W        W41391   6.839   1.741   0.932 -0.2041  0.0357  0.2380
25923W        W41392  16.447  10.123   3.103  0.0623 -0.1198 -0.3409
25924W        W41393  14.016  13.806  15.730 -0.0713  0.2392  0.1705
25925W        W41394   0.432  16.625  12.217  0.0433  0.1302 -0.1298
25926W        W41395   0.506  18.176  13.266 -0.1659  0.1142  0.1930
25927W        W41396  12.042  15.130   2.230 -0.1618  0.2454  0.2529
25928W        W41397   7.847   1.597   4.033 -0.0631  0.1972  0.0645
25929W        W41398   3.357   7.763  15.732 -0.1461 -0.0645 -0.0394
25930W        W41399   1.190  13.956   4.552  0.2509 -0.0138 -0.1960
25931W        W41400   6.159  17.715   2.278 -0.0037 -0.2710 -0.0404
25932W        W41401  10.731   7.977   2.075 -0.0631  0.1147  0.1385
25933W        W41402   3.042  10.572   3.782  0.2752  0.0607 -0.3092
25934W        W41403  18.047  17.864  12.862 -0.0217  0.1201 -0.3608
25935W        W41404  18.301   8.206   4.341 -0.0904 -0.3001 -0.1453
25936W        W41405   3.712   3.133  14.663 -0.1768 -0.4388 -0.0135
25937W        W41406   5.804   8.192  15.581  0.2154 -0.0194 -0.1402
25938W        W41407  10.470   4.793  15.553  0.0734 -0.1296  0.4183
25939W        W41408  13.132   5.522  10.974  0.0435  0.2088 -0.3834
25940W        W41409  15.268   1.691  12.916  0.2095 -0.2368 -0.0516
25941W        W41410  12.380   1.639   4.047  0.2059 -0.3705 -0.1537
25942W        W41411  11.959   0.143   3.016  0.0889 -0.1074 -0.1601
25943W        W41412  11.135   2.388   0.580 -0.2517  0.2033  0.1394
25944W        W41413  18.364   2.939   2.897 -0.1164 -0.1904  0.0741
25945W        W41414   2.217  10.415  15.137 -0.0179 -0.3030 -0.2278
25946W        W41415   3.576   7.941  12.272 -0.0561  0.2762 -0.1394
25947W        W41416  17.634  18.102  14.136  0.5689 -0.0836 -0.0583
25948W        W41417   9.511   7.454   1.074 -0.0017 -0.1171 -0.1447
25949W        W41418  12.386   5.694   1.252  0.2375 -0.0111  0.4431
25950W        W41419   4.119  10.292   4.295 -0.1922  0.1114  0.2831
25951W        W41420  14.510  10.548  12.577 -0.0665  0.2548 -0.0381
25952W        W41421   4.917   3.120  15.238  0.0003  0.1005  0.2657
25953W        W41422   2.015  16.889  11.107 -0.2960  0.2907  0.0214
25954W        W41423  16.388  12.088  11.993  0.1420 -0.1077  0.1743
25955W        W41424   8.746   9.525   1.062 -0.1450 -0.1910  0.2637
25956W        W41425  11.663   3.709   0.165  0.1574 -0.0436 -0.1987
25957W        W41426   8.075   0.837  13.528 -0.3703  0.1453  0.1699
25958W        W41427  15.425   2.234   3.315  0.1457 -0.0913 -0.0200
25959W        W41428  12.609  15.855   2.021  0.1958  0.1461  0.2548
25960W        W41429   9.304   9.297  15.157  0.1412 -0.1998 -0.2899
25961W        W41430   9.259   0.767  11.318  0.1528 -0.2244 -0.1013
25962W        W41431  17.826  14.505  15.611  0.1266 -0.0393 -0.0076
25963W        W41432  15.012  14.249   0.750  0.1356  0.1953  0.0709
25964W        W41433   3.247   7.238   2.470 -0.5657  0.0748  0.4344
25965W        W41434   7.866  15.980  15.227 -0.0708 -0.0203 -0.0588
25966W        W41435  14.341   6.117   1.758  0.0425  0.0939  0.0009
25967W        W41436  18.636  12.789  13.569 -0.2408 -0.1870  0.0204
25968W        W41437   9.678   8.789  11.428  0.1390  0.2145  0.2729
25969W        W41438   8.884  14.383  11.847 -0.3748 -0.1787  0.0068
25970W        W41439   4.965  11.165   4.819 -0.1938 -0.1587 -0.1338
25971W        W41440   5.299   0.604  15.454 -0.0698  0.2953  0.3086
25972W        W41441  11.462   2.057   0.255 -0.1422 -0.2326 -0.0282
25973W        W41442   4.542  15.304   0.121  0.1516 -0.0262  0.0301
25974W        W41443  12.084  17.451  11.676  0.1854  0.2688  0.1631
25975W        W41444   1.605   0.236  11.961 -0.0947 -0.1408 -0.0051
25976W        W41445   9.592   7.937  11.996  0.2336  0.0423 -0.1176
25977W        W41446  11.586   0.436  12.533 -0.1843 -0.1158  0.1430
25978W        W41447  10.770  15.935   5.283  0.1326  0.1689  0.0794
25979W        W41448   9.250   0.264   2.531  0.1178  0.0712 -0.0802
25980W        W41449  10.299  17.984  15.159  0.1999  0.2222 -0.0782
25981W        W41450   5.789  14.192   2.607  0.1185 -0.0201 -0.0633
25982W        W41451  15.768   7.209  13.685  0.1176 -0.0990  0.0606
25983W        W41452  12.947  13.432  11.094  0.0905 -0.0303  0.2684
25984W        W41453  12.384  13.485  13.258  0.0727 -0.0281  0.0395
25985W        W41454   3.316  18.698   2.984  0.1286  0.0508 -0.1857
25986W        W41455   1.315   5.091   4.076  0.4020  0.2616  0.0950
25987W        W41456  10.093  12.416   2.208  0.1119 -0.1789 -0.1780
25988W        W41457  15.259   2.099  13.222 -0.0114 -0.0215 -0.0495
25989W        W41458   2.392   4.027  10.406  0.3375  0.5404  0.4084
25990W        W41459  12.903   7.416  12.035 -0.1074  0.3621  0.0161
25991W        W41460  10.309  14.650   4.291  0.1685  0.2301  0.1278
25992W        W41461   9.828  11.585  13.405 -0.0658  0.1449  0.0907
25993W        W41462   5.562  17.120  13.200  0.0057 -0.1212 -0.0198
25994W        W41463  10.484  10.902  10.760 -0.0927 -0.0427 -0.1553
25995W        W41464   7.284   0.531   0.104 -0.1113  0.0566  0.0555
25996W        W41465  10.809  14.303   4.574 -0.2189 -0.1095 -0.0813
25997W        W41466  18.604   7.772  13.073 -0.3017  0.2323  0.0340
25998W        W41467   5.141   9.257  13.046  0.1712  0.5866  0.0439
25999W        W41468   2.090  13.945   0.310  0.3046 -0.0281  0.1723
26000W        W41469  10.126  17.335   3.181  0.1868  0.2847 -0.0940
26001W        W41470   7.109  15.788   0.549 -0.0293 -0.0311  0.1626
26002W        W41471   7.817   3.344   3.513  0.0263  0.0511  0.1734
26003W        W41472  16.339  17.886  11.007 -0.0826 -0.3892  0.1073
26004W        W41473   6.866   8.969  14.943  0.2175 -0.0608 -0.2422
26005W        W41474   1.570   4.061  11.610  0.0356 -0.1042  0.3910
26006W        W41475  16.794  15.199  13.774 -0.1531 -0.1046 -0.0780
26007W        W41476  15.065   8.534  14.318  0.0349  0.0655  0.2771
26008W        W41477  12.026  14.660  12.666  0.0818 -0.5662  0.0859
26009W        W41478  14.166   6.949   0.171  0.3203  0.0255 -0.0630
26010W        W41479  10.043   3.119  15.774 -0.2220  0.1297 -0.3351
26011W        W41480   6.921   5.911  11.030  0.1347  0.1928 -0.0423
26012W        W41481   7.863   0.635  15.516 -0.1951 -0.0034  0.0453
26013W        W41482   5.876   0.688  14.275  0.3523 -0.3176 -0.0134
26014W        W41483  14.962   5.000   3.874  0.1511  0.5380 -0.2149
26015W        W41484  10.332  18.271  13.801  0.6496  0.0275  0.0397
26016W        W41485   9.370   4.604   0.064  0.0611  0.0308  0.1562
26017W        W41486   1.754  13.786   1.294  0.2138  0.2227  0.2526
26018W        W41487   0.351  17.840   3.908  0.3863  0.1592  0.0053
26019W        W41488  11.301  10.407   1.769 -0.3281 -0.2666 -0.1361
26020W        W41489   3.783  15.771   3.297  0.0250  0.4685 -0.1431
26021W        W41490   5.243  15.601   4.410 -0.1223 -0.3410  0.1591
26022W        W41491   4.638   1.405   1.233  0.0796 -0.0164  0.1726
26023W        W41492   5.590  13.238   1.531  0.3787 -0.3363  0.1055
26024W        W41493   3.648   1.901   0.979  0.1459 -0.0463 -0.1478
26025W        W41494  17.726  13.021   4.592 -0.3996  0.0100  0.2590
26026W        W41495  14.992   1.540  13.951  0.0140  0.3334 -0.0186
26027W        W41496   4.019   9.205   3.110  0.0758  0.0022 -0.0822
26028W        W41497   0.814   5.955  12.999 -0.1165 -0.1782 -0.1070
26029W        W41498  12.775   0.074   1.684 -0.1258  0.3986  0.0684
26030W        W41499   8.966   9.712   3.206  0.1585  0.2576  0.3159
26031W        W41500  12.030   4.288  14.578 -0.0772 -0.5168 -0.2661
26032W        W41501   3.376  11.565   2.196  0.0251  0.0213  0.0187
26033W        W41502  15.598  11.900   3.785 -0.0380  0.3011  0.0043
26034W        W41503  15.281   2.253   3.797  0.1983  0.1474  0.1854
26035W        W41504  17.473  11.651   1.900 -0.3309 -0.0069  0.0847
26036W        W41505   1.467  14.926  13.201  0.2187  0.2336  0.1675
26037W        W41506   0.064  11.645   1.812  0.3906 -0.0720  0.2140
26038W        W41507   0.541   0.062  12.825  0.2488 -0.0401  0.1346
26039W        W41508  18.349   8.168   3.083 -0.0635  0.0810 -0.0367
26040W        W41509  12.807  16.891   0.393  0.0721 -0.2770 -0.0183
26041W        W41510   3.897   9.671  14.273 -0.2120  0.1038 -0.1185
26042W        W41511   4.287  10.223   1.000 -0.3999  0.0336  0.0360
26043W        W41512  14.837  11.894   3.232 -0.0811 -0.2212  0.2155
26044W        W41513   5.098   5.871   0.282  0.2198 -0.0324 -0.2787
26045W        W41514  18.160  16.982   4.461 -0.1900 -0.4235  0.2662
26046W        W41515  17.231   1.600  12.072 -0.2955  0.2559  0.1081
26047W        W41516   9.083   4.785  11.574  0.0882 -0.3591 -0.1815
26048W        W41517  15.001  14.998   0.180 -0.0030 -0.0745 -0.3227
26049W        W41518   3.699   6.150  14.836  0.0649 -0.2532 -0.0580
26050W        W41519   4.205   7.298  15.617  0.3564 -0.2696 -0.3763
26051W        W41520   1.079   1.308  14.812  0.1231  0.0055  0.2241
26052W        W41521   6.878  13.182   5.237  0.1011 -0.0222 -0.6336
26053W        W41522  13.698   5.133  14.035  0.4440 -0.0094 -0.2638
26054W        W41523   9.150   0.760   3.551  0.2755 -0.0806 -0.1547
26055W        W41524   0.459  16.779   3.149 -0.2644 -0.4432  0.0341
26056W        W41525   2.353   2.230   3.434 -0.0006  0.3816  0.3754
26057W        W41526  18.387   5.265  14.354  0.0982 -0.0451 -0.3285
26058W        W41527  13.412  13.022  13.580  0.0803 -0.2633  0.0111
26059W        W41528  12.857  16.945  14.993 -0.1025  0.2106 -0.4112
26060W        W41529  11.884  16.072  13.317 -0.1256  0.2368 -0.0552
26061W        W41530   0.717  18.303  11.427 -0.1773  0.1267  0.1583
26062W        W41531   1.180  17.425   6.022  0.0603 -0.1627 -0.0750
26063W        W41532   0.851   6.366   2.148 -0.2177  0.1813 -0.2735
26064W        W41533   2.911   5.641   2.590 -0.0218  0.0525  0.1251
26065W        W41534  14.878   5.215   5.251 -0.0619 -0.0525  0.0810
26066W        W41535  17.751   4.992  12.345  0.3759  0.1659  0.0145
26067W        W41536   7.524   4.439   3.062  0.0601 -0.0944 -0.0095
26068W        W41537   2.861  11.041  12.414 -0.2185 -0.0378 -0.1015
26069W        W41538   4.982   9.565   0.970 -0.1315  0.0210 -0.0749
26070W        W41539   4.320   7.148   3.132 -0.1177  0.0094 -0.3343
26071W        W41540  16.016   6.371  15.313  0.1720  0.1459  0.4031
26072W        W41541  13.761   7.070  10.731 -0.2968 -0.0617  0.1077
26073W        W41542   8.761   0.409   5.081  0.1723  0.0649  0.4285
26074W        W41543  15.170   9.659  13.503  0.3027 -0.0459 -0.2466
26075W        W41544   4.189  15.722   0.494  0.3058  0.1024  0.3353
26076W        W41545   6.310  14.411   1.573 -0.1806  0.3146 -0.2117
26077W        W41546  15.908  17.784   1.866  0.2081 -0.1960  0.1869
26078W        W41547   3.150  11.178   0.410 -0.2331  0.0593 -0.0452
26079W        W41548  15.361   6.832  14.253  0.0246  0.0735  0.0429
26080W        W41549   3.326   9.592   5.267 -0.2360  0.1387 -0.1727
26081W        W41550   7.208  17.865  13.281 -0.2964  0.0683 -0.2234
26082W        W41551  13.792   5.498  12.961 -0.0029  0.0058  0.0855
26083W        W41552  15.813   8.149   2.020  0.1481  0.4676 -0.0141
26084W        W41553   8.070   8.939   1.005  0.0667  0.0977 -0.4147
26085W        W41554  14.574   6.423  13.453  0.1191 -0.1479 -0.0593
26086W        W41555   0.958  15.864   0.857 -0.0041 -0.1009 -0.2357
26087W        W41556   5.499   9.453   4.281 -0.2339 -0.1562  0.1204
26088W        W41557   6.070   5.409   2.665  0.2886  0.0309  0.1696
26089W        W41558  12.254   8.900  12.760 -0.0799  0.3278  0.3041
26090W        W41559   5.111   6.961  10.197  0.0689  0.0816 -0.0024
26091W        W41560   2.900   3.052  15.487 -0.0634  0.0355 -0.2093
26092W        W41561  11.475  16.475   5.180 -0.1607  0.1504  0.1293
26093W        W41562  16.061   8.945  15.175  0.0924 -0.3124  0.0382
26094W        W41563  14.705   6.178  11.969  0.2417 -0.0506  0.3713
26095W        W41564   7.036   6.385   4.522 -0.3410 -0.1030  0.2881
26096W        W41565   0.117  11.011   3.841  0.0449 -0.0504  0.1648
26097W        W41566   6.151   5.374  14.218  0.0278  0.1944 -0.1727
26098W        W41567   3.568   2.788  11.665 -0.1314  0.0605 -0.0967
26099W        W41568   6.534  17.165   0.864 -0.4506  0.0118 -0.1805
26100W        W41569  11.549   2.890  14.332 -0.1117  0.0694 -0.2458
26101W        W41570  13.186   3.727   4.989  0.0253 -0.1220 -0.3174
26102W        W41571   3.508  15.007   4.261 -0.1409 -0.0121 -0.4181
26103W        W41572  10.457  15.809   5.651  0.0015  0.0631 -0.1789
26104W        W41573  18.405   6.509   3.654 -0.3245  0.0130 -0.0713
26105W        W41574   8.283   7.308   3.360 -0.0063  0.2081  0.0528
26106W        W41575   4.915   0.874  12.220  0.0792 -0.0404  0.0403
26107W        W41576  15.321   9.874  14.582  0.0056 -0.0890 -0.0545
26108W        W41577   5.060  17.284  12.459 -0.2330 -0.0660  0.5837
26109W        W41578   1.240   6.422  10.390 -0.0401  0.2463  0.2183
26110W        W41579   8.743   5.231  15.373  0.0723 -0.5607 -0.3656
26111W        W41580  11.867   5.284  15.410 -0.3546 -0.1916  0.3861
26112W        W41581   8.694   6.365   4.609  0.1921  0.1302 -0.0586
26113W        W41582  12.004  10.742   4.718  0.0171  0.0572 -0.1679
26114W        W41583   3.376   9.597   4.748  0.0243  0.2795 -0.2047
26115W        W41584  16.990   3.641  14.608  0.0237 -0.3670  0.1914
26116W        W41585  11.228   8.538  12.709  0.1103  0.2497 -0.1727
26117W        W41586  14.670   3.045   4.630 -0.0077 -0.0525  0.0073
26118W        W41587   7.523   8.266   5.656  0.0281 -0.3669 -0.0029
26119W        W41588  16.869   2.874   4.323  0.1470  0.0018  0.1610
26120W        W41589  11.744   8.919   5.288  0.1185  0.1273  0.3095
26121W        W41590  13.991   2.733   3.780 -0.0527  0.1894  0.0354
26122W        W41591   8.224  10.932  13.174  0.3194 -0.0717  0.1639
26123W        W41592   5.602   3.141  13.210 -0.0339  0.1810  0.3256
26124W        W41593  15.228  11.921  10.018 -0.0380  0.0827  0.2475
26125W        W41594   4.865  13.474   4.667 -0.4143 -0.1297  0.0929
26126W        W41595  13.712   0.111   4.878  0.5033  0.2320  0.3812
26127W        W41596   3.661   3.273   3.931  0.0132 -0.2506  0.2552
26128W        W41597  11.230  10.301   3.239 -0.2162  0.2810  0.1662
26129W        W41598  15.346  11.243   5.929  0.1937 -0.2160  0.0874
26130W        W41599   8.456   7.620   3.889  0.1563 -0.1607  0.2919
26131W        W41600  14.735  13.857   4.830 -0.1746 -0.0601 -0.1933
26132W        W41601  12.459  16.006   5.212 -0.3440  0.0272 -0.0700
26133W        W41602  17.622   0.933   3.819  0.0998  0.3608  0.1755
26134W        W41603   3.716   3.680  13.597 -0.2649  0.1244  0.3089
26135W        W41604  11.405  14.312  12.162  0.0363  0.0112  0.1690
26136W        W41605  12.798  14.653  14.775  0.0190  0.0849  0.0449
26137W        W41606  17.648   7.438   9.803 -0.4007  0.0213  0.0273
26138W        W41607  12.604  17.295   3.439 -0.1404 -0.1355 -0.2689
26139W        W41608   1.782   6.678  12.697  0.0120 -0.2078  0.2036
26140W        W41609  10.602  13.594   0.931 -0.2685  0.0725  0.2043
26141W        W41610  11.020  10.542   5.091 -0.0794 -0.1240  0.1061
26142W        W41611   5.398  14.026   1.210 -0.0217  0.1413 -0.0171
26143W        W41612  10.205   8.774  11.414 -0.0398  0.0217  0.0577
26144W        W41613  12.723   5.008   0.735  0.0774  0.0490  0.1145
26145W        W41614   7.814  15.403   2.550 -0.0480 -0.3508 -0.0371
26146W        W41615  16.377   0.145   4.694 -0.0206 -0.0921  0.0497
26147W        W41616   6.634  13.212   2.021  0.0616  0.2822  0.3132
26148W        W41617  17.349   0.538   4.160  0.0233 -0.0474  0.0824
26149W        W41618   2.681   7.056   0.413 -0.0044  0.1110 -0.1576
26150W        W41619  16.553  15.296  11.367  0.0676 -0.3275  0.1990
26151W        W41620   0.565  17.106   1.304  0.0052 -0.2142  0.0622
26152W        W41621   2.051  11.061   4.693 -0.2282  0.3361  0.1812
26153W        W41622   2.656   4.978  11.785 -0.1731 -0.0450 -0.2252
26154W        W41623  12.148  13.647   1.196  0.0048 -0.2839  0.0246
26155W        W41624   1.835   6.969  11.161 -0.2029  0.0948  0.1591
26156W        W41625   7.643   1.348   3.090 -0.2436  0.0931  0.4835
26157W        W41626  14.952   3.008  14.016  0.0350 -0.0947  0.1664
26158W        W41627   7.255   2.132   4.835  0.2871 -0.1076  0.1025
26159W        W41628   7.316   8.124   0.553 -0.1732 -0.0510 -0.0322
26160W        W41629  11.253   6.923  13.675 -0.0948  0.3072 -0.0016
26161W        W41630   7.409   2.367  14.754 -0.0088 -0.0427 -0.1673
26162W        W41631   8.215   8.141   1.189 -0.0143  0.0795  0.1066
26163W        W41632   2.544  15.963  10.172 -0.0971  0.1341 -0.1447
26164W        W41633  11.155   8.082   5.551 -0.0222  0.0664  0.0711
26165W        W41634   5.397  10.375   1.571 -0.2821  0.4454  0.3037
26166W        W41635   6.779  15.591  15.564 -0.3025  0.0174 -0.2769
26167W        W41636  12.352  14.259   4.732 -0.3227  0.2853 -0.2017
26168W        W41637   2.573  14.128  15.204  0.0423 -0.4896 -0.0698
26169W        W41638   3.546  13.919   4.604 -0.1095 -0.0245  0.0620
26170W        W41639  17.453  17.757   3.892  0.3049  0.3442 -0.0085
26171W        W41640   2.751   4.212  13.538  0.3488 -0.0375  0.1062
26172W        W41641   9.943  16.141   0.884  0.0034 -0.2309  0.0760
26173W        W41642  10.588   2.326  11.518  0.1833 -0.1855 -0.1696
26174W        W41643   6.228  14.285   2.367 -0.0945  0.0418 -0.3067
26175W        W41644  17.612  11.312  14.627  0.2074 -0.2114  0.1842
26176W        W41645  15.698  14.391  12.670  0.0102  0.2456  0.0390
26177W        W41646   1.948   4.823  13.496  0.0317 -0.0721  0.1199
26178W        W41647  17.715  16.906   4.675 -0.0268 -0.1886 -0.3876
26179W        W41648  11.888   3.935  12.313 -0.0412  0.0998 -0.2489
26180W        W41649   4.961   8.723  13.298 -0.1981  0.2118 -0.0181
26181W        W41650  11.164  16.536  13.538  0.0330  0.0179  0.0320
26182W        W41651  13.901  11.181   1.375 -0.3624 -0.2580  0.0477
26183W        W41652  16.732   0.405  14.768  0.1408  0.4327 -0.0689
26184W        W41653  13.882   2.911  14.131 -0.0700 -0.0717  0.1094
26185W        W41654   1.952  17.143  11.617 -0.4188  0.1255 -0.1087
26186W        W41655  14.845   3.121   1.132 -0.2093  0.1744  0.0338
26187W        W41656   6.623   0.189  12.059 -0.1062  0.6063 -0.1658
26188W        W41657  10.284  14.249  12.435 -0.1713  0.1180 -0.0404
26189W        W41658   7.097  16.067  11.340  0.1797  0.0996 -0.2223
26190W        W41659   6.061   6.059   9.819 -0.2998  0.0511  0.5881
26191W        W41660  18.395   5.397   2.931  0.0943 -0.1375  0.1183
26192W        W41661  16.001   1.193   0.576  0.0413  0.0627  0.1566
26193W        W41662  16.618   0.968  12.644 -0.3643 -0.1725  0.0347
26194W        W41663   4.853  15.098  12.271 -0.1795  0.0479 -0.1234
26195W        W41664  18.449   7.292  12.946  0.3268 -0.2539 -0.0787
26196W        W41665  16.983   7.253  13.839  0.0144  0.0302  0.0257
26197W        W41666   6.591   9.625  11.720  0.1172  0.0870  0.0882
26198W        W41667  18.593   0.975   3.984 -0.3835 -0.2351 -0.1429
26199W        W41668  18.216  16.693   1.294  0.2041  0.0110 -0.0991
26200W        W41669   7.256   7.255   4.345 -0.2358  0.0326  0.0793
26201W        W41670  15.371  16.383  12.681  0.0640 -0.1682 -0.0069
26202W        W41671  11.402  12.960  13.108  0.0337  0.2010 -0.3296
26203W        W41672   9.865  16.576   2.044 -0.3264 -0.3199  0.2594
26204W        W41673   8.076  17.303   1.478 -0.0377  0.1682  0.1235
26205W        W41674  14.482   2.285   0.062 -0.3313 -0.5062  0.5099
26206W        W41675  10.017   3.731  12.152 -0.2511  0.2017 -0.2192
26207W        W41676  17.978   2.656  14.435  0.0169 -0.0926 -0.1969
26208W        W41677   6.906   1.281   0.016 -0.1397  0.2989  0.1454
26209W        W41678   6.843  11.127  14.305 -0.0332  0.2290  0.1281
26210W        W41679   6.935   7.114  13.700  0.1936  0.0511 -0.0534
26211W        W41680   0.779   8.978   3.781  0.2566 -0.0151 -0.1471
26212W        W41681   8.203   6.452  13.568  0.1918 -0.0811 -0.2690
26213W        W41682  15.804  15.628  12.929  0.0910  0.0198 -0.1146
26214W        W41683  16.756  16.217  11.850  0.3996 -0.0349  0.0746
26215W        W41684  11.142   1.789   4.866 -0.2791 -0.1028 -0.0530
26216W        W41685   7.130   9.193  15.273 -0.2216  0.0310  0.1364
26217W        W41686  10.514   9.296   1.909 -0.2154 -0.0806  0.1251
26218W        W41687   5.197   0.974   4.251  0.0403 -0.0208  0.1598
26219W        W41688   3.212   0.005   5.309  0.1078  0.1030  0.1610
26220W        W41689  16.786   2.403   4.055 -0.1995 -0.4551  0.0162
26221W        W41690   4.470  14.967  15.316  0.0798  0.1802  0.1782
26222W        W41691   3.100   1.138  13.684  0.1176  0.1039  0.1862
26223W        W41692   4.773  16.655   3.583  0.2118 -0.2159 -0.2301
26224W        W41693  17.470   8.493  13.483  0.3918 -0.1862 -0.1126
26225W        W41694  13.978  17.298   3.813 -0.0370  0.0392 -0.3219
26226W        W41695   0.658   0.306   4.560  0.0364  0.1116 -0.0751
26227W        W41696  16.755   5.315   0.738  0.1708  0.0572  0.2060
26228W        W41697  17.049  17.018  14.620  0.1782 -0.0122  0.0098
26229W        W41698   2.067  14.842   1.397 -0.1873 -0.0342  0.5448
26230W        W41699   8.116   0.647   0.183 -0.2922 -0.2606  0.0263
26231W        W41700  16.856   2.832  13.573 -0.0563  0.0243  0.0485
26232W        W41701   7.083   8.215   4.244 -0.4553  0.2585 -0.2202
26233W        W41702  14.275  18.599   1.031  0.1551  0.0117  0.2803
26234W        W41703   6.985  13.398   3.919  0.0681  0.1599  0.1544
26235W        W41704   3.363  17.474  14.616  0.2761 -0.3139  0.0714
26236W        W41705  12.548  11.945  10.767  0.0551 -0.1139 -0.2450
26237W        W41706   5.581   7.670   3.426 -0.0270 -0.1011 -0.2607
26238W        W41707   4.074   3.601   4.125  0.2617 -0.0939 -0.0093
26239W        W41708  10.747   5.211   3.109 -0.1794 -0.0990  0.1194
26240W        W41709  13.226   0.445   4.152 -0.0349  0.4121  0.0261
26241W        W41710   9.762   8.648  14.886  0.1511 -0.1147 -0.1545
26242W        W41711   5.841  14.149  10.181 -0.1057  0.2828  0.0207
26243W        W41712   7.989  16.143  13.388  0.2260  0.0207 -0.1441
26244W        W41713  11.585   7.669   0.643 -0.0475  0.0633 -0.2619
26245W        W41714   2.438  11.802  13.964 -0.3036  0.4397  0.1733
26246W        W41715   4.924  17.682   4.887 -0.0079 -0.2923  0.0624
26247W        W41716   6.974   4.478  13.633  0.2167  0.1096 -0.0914
26248W        W41717  12.572   7.043  14.175  0.2793  0.5258  0.1537
26249W        W41718   5.894  14.986  12.104 -0.1499  0.0554  0.0359
26250W        W41719  12.378  15.273   1.643 -0.1376  0.0900 -0.0707
26251W        W41720  11.622   9.462   4.418 -0.1340  0.2819  0.1203
26252W        W41721  14.015   0.434  14.720 -0.1781  0.1770  0.2645
26253W        W41722  14.666  15.346   4.240  0.1345 -0.0004  0.0440
26254W        W41723   6.571   0.473   4.209 -0.1308  0.0769 -0.0510
26255W        W41724  17.217  17.397   5.567 -0.2530 -0.3849  0.0611
26256W        W41725  17.924   6.661  10.346  0.0113  0.0041 -0.0083
26257W        W41726  14.929   7.356  12.614  0.0572  0.4563 -0.0445
26258W        W41727   7.392   4.954   0.363 -0.2275  0.2239 -0.5200
26259W        W41728   7.119  12.610  14.857  0.0079  0.0752  0.3503
26260W        W41729  13.093  12.002   0.559  0.2279  0.2281 -0.0253
26261W        W41730  13.086  18.266   3.282  0.3693  0.0655  0.2483
26262W        W41731  17.362   4.364  11.277  0.4863 -0.3745  0.0492
26263W        W41732   3.316   5.759   0.574 -0.2308 -0.0061 -0.2816
26264W        W41733   5.959   7.280  13.514 -0.1630 -0.2078 -0.3937
26265W        W41734   5.150   2.297  13.636 -0.0989  0.5372  0.0250
26266W        W41735   3.248  10.615   1.519  0.1538  0.0228  0.0393
26267W        W41736   0.602   9.961   1.605 -0.0795 -0.0053 -0.1500
26268W        W41737  12.466   3.240  14.519 -0.0573 -0.0542  0.0189
26269W        W41738  11.631  10.561   3.419  0.0416 -0.2291 -0.0105
26270W        W41739   9.322  10.472   2.560  0.1496 -0.0215 -0.1229
26271W        W41740   0.861   0.649   4.039  0.2812 -0.1646  0.1596
26272W        W41741   6.657   0.633  11.365 -0.1873 -0.1952  0.1476
26273W        W41742  16.867  17.185  13.427  0.0536 -0.2416  0.1159
26274W        W41743   4.242   7.905  15.470 -0.0683  0.0575  0.1584
26275W        W41744   3.805   9.355  13.193 -0.1993  0.3183 -0.1918
26276W        W41745   9.869  15.386   0.614 -0.0311  0.3839  0.1115
26277W        W41746   6.692  18.527   1.855  0.2390 -0.0456  0.2365
26278W        W41747   9.857   3.561  11.450 -0.0216 -0.0397  0.0021
26279W        W41748   9.630   5.925   2.309 -0.0909  0.0329  0.1993
26280W        W41749  15.922   4.844  15.049  0.0659 -0.1249 -0.0276
26281W        W41750  12.834   2.417  10.489  0.3076  0.1391 -0.3122
26282W        W41751  17.131   6.171  13.556  0.0363 -0.0661 -0.0206
26283W        W41752  10.025   3.216   4.696  0.2424  0.0503 -0.2918
26284W        W41753   9.871  11.529  11.176  0.5069  0.2171  0.1004
26285W        W41754   5.423  15.618  11.267  0.3589  0.1108 -0.0716
26286W        W41755   4.846   9.044  11.047  0.0893  0.0480  0.2698
26287W        W41756  17.268   2.621   2.356  0.0728 -0.0535 -0.0027
26288W        W41757   9.851  11.185  12.190 -0.1031 -0.2932  0.1434
26289W        W41758  11.982  16.715   5.448 -0.0167 -0.1702 -0.0046
26290W        W41759   8.669   5.392   5.861 -0.1239 -0.0558  0.2294
26291W        W41760   7.439  17.811  11.825 -0.1188 -0.1906 -0.1869
26292W        W41761   6.210  13.236  10.488 -0.2212  0.2703  0.1674
26293W        W41762   4.179  12.159   2.000  0.0531 -0.0955 -0.1301
26294W        W41763  11.964  11.878  10.545 -0.1792 -0.0164  0.1361
26295W        W41764   7.007   9.664  13.970  0.0365 -0.1242 -0.0322
26296W        W41765  11.622   4.879   3.199 -0.5287 -0.0282 -0.3302
26297W        W41766  15.107   3.967  12.839  0.1438 -0.0428 -0.2061
26298W        W41767  11.937  14.247   5.495  0.1060 -0.0747 -0.0236
26299W        W41768   6.560  13.523   0.742 -0.0719 -0.1614 -0.0852
26300W        W41769  14.700  16.502  12.081  0.0268 -0.1010  0.3168
26301W        W41770  18.477  16.788   1.692 -0.1643 -0.2777  0.0165
26302W        W41771  17.854   4.919   2.328  0.1315 -0.0788  0.1299
26303W        W41772   3.163  16.750   2.015  0.0946  0.2183 -0.0805
26304W        W41773   2.886  15.252   0.025  0.2126  0.1678  0.1302
26305W        W41774  11.667   4.083   1.910  0.0081  0.0913  0.0929
26306W        W41775   3.971  12.438  13.355  0.0876 -0.1888 -0.0841
26307W        W41776   0.793  13.675   2.474 -0.2762 -0.0848  0.1921
26308W        W41777  18.297   0.515  13.600 -0.2049  0.3276  0.1459
26309W        W41778  16.517   4.153   4.633 -0.1722 -0.2456 -0.2000
26310W        W41779   7.989   8.158  14.074 -0.4492  0.0195  0.0908
26311W        W41780  13.203   9.666  14.433  0.0861 -0.0329  0.1735
26312W        W41781  14.747  15.644  13.060 -0.4466 -0.0398  0.1690
26313W        W41782   8.393   1.927   5.644 -0.0426 -0.1160  0.0788
26314W        W41783   7.523  13.104   3.834  0.0120  0.0903 -0.0560
26315W        W41784  18.234   0.361   1.451 -0.2452  0.2480  0.1321
26316W        W41785   8.194   1.497  12.931  0.3079  0.1344  0.2054
26317W        W41786  17.690  16.821   3.049 -0.1202  0.2658 -0.0848
26318W        W41787   7.653   7.363  15.304  0.0626 -0.2318 -0.1856
26319W        W41788   4.293  11.217  14.724 -0.1607 -0.0336  0.0278
26320W        W41789   0.900   4.593  14.783  0.4170  0.1098 -0.1799
26321W        W41790   6.649   0.923   3.926  0.1753 -0.1860  0.2729
26322W        W41791  18.670   0.228   1.236 -0.0807 -0.2663  0.1734
26323W        W41792  12.649   6.836   5.433 -0.1908 -0.0320  0.3410
26324W        W41793  10.010  11.920   2.399  0.0355 -0.2069 -0.1496
26325W        W41794   2.541   6.569   1.483 -0.0995 -0.1766 -0.1759
26326W        W41795   4.798  18.255  13.848 -0.1996  0.0884 -0.0594
26327W        W41796  14.673   7.395  11.247 -0.0436 -0.1476  0.3316
26328W        W41797  15.438  15.884  10.916 -0.1338  0.2094 -0.1338
26329W        W41798  16.294   9.413   3.723 -0.0564  0.1772 -0.2389
26330W        W41799  17.581  13.336   3.630  0.0829  0.2566 -0.0258
26331W        W41800  14.982  12.826   4.585  0.1366  0.1037 -0.0297
26332W        W41801  17.452  17.140   0.893 -0.1278  0.0240 -0.0159
26333W        W41802  17.435   5.987  12.891 -0.3038  0.0082  0.1257
26334W        W41803   8.811   9.953  10.100 -0.1117  0.0843  0.0455
26335W        W41804  11.469  18.677   5.175 -0.1039 -0.2768 -0.2753
26336W        W41805   5.056   3.474  10.929 -0.0212  0.0932  0.3749
26337W        W41806  15.762   2.024   4.972  0.0155  0.3631 -0.1006
26338W        W41807  10.379  13.397  13.171  0.0976 -0.0229 -0.0327
26339W        W41808   5.573  10.279  12.480 -0.0675  0.2293 -0.2207
26340W        W41809   6.605   4.710   0.531  0.2994  0.0098  0.2100
26341W        W41810   8.421   4.287  14.018  0.0251  0.5527 -0.3287
26342W        W41811  12.770  13.522  13.589 -0.0794  0.1898 -0.0361
26343W        W41812   3.647  15.343  15.002 -0.1005 -0.0935  0.0840
26344W        W41813   4.102   0.158   1.564 -0.0742  0.0576 -0.0252
26345W        W41814  12.730   6.226   3.044  0.2547  0.0436  0.0288
26346W        W41815   2.377   1.628   3.270 -0.2751  0.0224 -0.2416
26347W        W41816  10.945   7.367  12.846 -0.1558 -0.2769  0.2326
26348W        W41817   4.996   5.832  12.232  0.3731  0.0183 -0.2848
26349W        W41818   4.460  11.333  12.768  0.0122  0.1524  0.1630
26350W        W41819  10.110   9.670  11.463  0.1645  0.3449 -0.0339
26351W        W41820   1.590  12.551  15.129  0.0976 -0.3029  0.1652
26352W        W41821  17.481  12.089  14.941 -0.1955  0.1110  0.0217
26353W        W41822  14.390   9.735   5.646  0.0376  0.2566 -0.0654
26354W        W41823  18.328   2.631  12.029 -0.1559  0.1015  0.1411
26355W        W41824   3.164  12.429   2.603  0.0362 -0.0279  0.0232
26356W        W41825   3.429   3.309   1.816  0.2015 -0.1049 -0.1159
26357W        W41826   8.871   2.659   4.215 -0.0072 -0.0476  0.0381
26358W        W41827   1.190  18.193  11.706 -0.0288 -0.1211  0.1282
26359W        W41828  10.893  10.067  13.749  0.1329  0.2119  0.0325
26360W        W41829   3.318   0.986  13.217  0.0974  0.0063  0.0047
26361W        W41830  10.689   0.366  12.114  0.0577 -0.2391  0.1991
26362W        W41831  10.524  16.131   1.846 -0.0641  0.1037 -0.3706
26363W        W41832  17.975  11.889  12.416  0.0123  0.5743  0.0412
26364W        W41833  18.456   8.920   1.844  0.1754  0.0782 -0.0597
26365W        W41834   4.194  10.326  10.391  0.1500 -0.1682  0.1757
26366W        W41835  16.716  14.694   4.683 -0.3194 -0.0991  0.1318
26367W        W41836   3.819  11.907  13.601 -0.1095  0.1365 -0.0465
26368W        W41837   3.260   9.012  14.897  0.1991 -0.0003 -0.0920
26369W        W41838  17.304  10.136  12.457 -0.0685  0.3456 -0.1951
26370W        W41839   8.689   2.486  15.175  0.1930 -0.1330  0.3754
26371W        W41840   3.232   3.110   3.655 -0.0562  0.1475  0.3800
26372W        W41841  17.296  13.939  13.343 -0.0088  0.1053  0.1851
26373W        W41842   6.916  18.033   1.156  0.1304 -0.4412 -0.0307
26374W        W41843  11.731  12.977  14.462 -0.0826 -0.1665 -0.1556
26375W        W41844   9.571  17.623   4.686  0.1306  0.1258  0.3509
26376W        W41845   7.993  16.590   0.186  0.2081  0.3596  0.3844
26377W        W41846  13.386   9.079  13.692  0.2487  0.0155 -0.1215
26378W        W41847   1.970   2.123   2.505  0.0757  0.1343 -0.1108
26379W        W41848  16.873   4.815   1.197  0.2024  0.1469 -0.2431
26380W        W41849  17.374   4.670  14.038  0.0581  0.1817 -0.0767
26381W        W41850  14.321   4.735  10.736  0.2615 -0.0498 -0.2114
26382W        W41851  16.098  15.212  11.210  0.3155  0.1002 -0.2223
26383W        W41852  18.268  11.031   2.348  0.0884 -0.2242  0.1756
26384W        W41853   8.308   9.807   1.060  0.0846 -0.1068 -0.2719
26385W        W41854   8.287   6.585  14.466  0.1396  0.0184 -0.1996
26386W        W41855  16.036   7.026   2.412  0.0581  0.0049  0.2137
26387W        W41856  17.605   6.450   3.024 -0.0732 -0.3381 -0.0247
26388W        W41857   1.147  15.034  12.386 -0.0207  0.3051  0.0023
26389W        W41858   3.266   7.712   1.314  0.0102 -0.0343 -0.0109
26390W        W41859   6.160  14.258  10.585 -0.1907 -0.0372 -0.0323
26391W        W41860  12.280  10.336  11.226 -0.1044 -0.1909  0.1498
26392W        W41861   6.569  12.498   2.659 -0.0550 -0.1526  0.2452
26393W        W41862   4.911  16.681   1.940 -0.1677  0.1666  0.1156
26394W        W41863  12.568   9.175  11.825  0.0270  0.0892 -0.1381
26395W        W41864  17.780  16.977   1.324 -0.1096  0.2037 -0.3395
26396W        W41865   2.885   1.636  14.781  0.0450 -0.2146 -0.1649
26397W        W41866   7.650   0.663  13.178  0.1299  0.2034  0.0727
26398W        W41867  12.725  12.108  15.774 -0.2238  0.0237 -0.0532
26399W        W41868   8.773  15.234   0.357  0.0433  0.2260  0.1409
26400W        W41869  18.472  13.203   1.407  0.1902 -0.0708 -0.1242
26401W        W41870   6.582  12.549   6.118 -0.0756  0.4526  0.3215
26402W        W41871   6.722   5.559   4.184 -0.1601  0.1158  0.2647
26403W        W41872   0.312  12.069   3.653  0.2051  0.1018  0.1956
26404W        W41873  18.324  17.264  15.668 -0.0059  0.1609  0.2611
26405W        W41874  16.937   7.046   0.321  0.1385 -0.3716  0.2012
26406W        W41875   4.920  15.337   0.687 -0.1518 -0.2450  0.2960
26407W        W41876   2.557   6.850   1.065 -0.1787 -0.1855 -0.0570
26408W        W41877   3.235   2.384   3.961 -0.2130  0.2513  0.3228
26409W        W41878  13.789  12.438  14.675 -0.2546  0.0804  0.0812
26410W        W41879  12.161   3.478  15.171  0.0582  0.3390 -0.1383
26411W        W41880  17.721   3.835   1.985  0.0272 -0.1698 -0.0382
26412W        W41881   9.452   5.045   4.713 -0.0518 -0.0479 -0.0452
26413W        W41882   4.394  18.331   3.814  0.0626 -0.3464  0.1046
26414W        W41883   9.048   7.980   3.366 -0.1367  0.3290  0.0363
26415W        W41884  13.052   8.012   0.295  0.0990 -0.0297  0.2183
26416W        W41885   9.507   2.055  14.235 -0.2801  0.0287  0.2017
26417W        W41886   2.322  12.887  13.429  0.0703 -0.1814 -0.1173
26418W        W41887  10.472  14.404   0.515  0.1555  0.2809  0.0278
26419W        W41888   7.583   5.320  14.010 -0.0440 -0.2049  0.1603
26420W        W41889  13.543  12.938  14.814 -0.2560 -0.3275 -0.0880
26421W        W41890   2.877   2.097  15.497  0.3894  0.1190 -0.0936
26422W        W41891  14.042   3.693   2.983  0.0869 -0.3317  0.2601
26423W        W41892  13.822   3.615  14.692  0.1412 -0.2563 -0.0802
26424W        W41893  11.460  13.515  13.406  0.2762 -0.0629  0.1571
26425W        W41894  10.334   0.855   3.138 -0.0563 -0.0103  0.1747
26426W        W41895  13.520  17.128   1.110 -0.1093 -0.1959  0.1584
26427W        W41896  18.696   5.827   5.501  0.1611  0.0478 -0.1042
26428W        W41897   9.607   3.534  11.940 -0.0494 -0.0884 -0.1465
26429W        W41898  16.845  14.610   0.845 -0.1742  0.0482  0.3392
26430W        W41899   1.232  17.370  13.900  0.0372 -0.0966 -0.0313
26431W        W41900  18.152  10.691   0.302 -0.3092  0.1302  0.1306
26432W        W41901   9.999  15.017   4.481  0.1364  0.2823 -0.0579
26433W        W41902  14.085  17.678   0.466  0.0141 -0.3306 -0.0729
26434W        W41903   6.202   5.554  15.162 -0.3190 -0.1464 -0.1728
26435W        W41904   3.463   5.277  12.888  0.0028 -0.1051 -0.2904
26436W        W41905   3.470   5.691  14.884  0.0134 -0.1083  0.2870
26437W        W41906  12.318  13.451   1.951 -0.1002  0.1609 -0.5527
26438W        W41907   4.470  14.503  15.107  0.0039  0.0838 -0.2343
26439W        W41908  16.048  14.185   2.217  0.0125  0.1856  0.1293
26440W        W41909   3.166  12.357  12.463 -0.0463 -0.0675 -0.1926
26441W        W41910   6.199   9.608  12.541 -0.0361  0.0939  0.1941
26442W        W41911  10.179  14.886  12.938  0.1289 -0.1155 -0.2222
26443W        W41912   0.266  13.705  11.146 -0.1354 -0.1255  0.1210
26444W        W41913   8.935  10.091   6.200 -0.2368 -0.0406 -0.0741
26445W        W41914  12.603  13.104  10.782  0.3489  0.5504 -0.3502
26446W        W41915   6.457  13.643   2.011  0.1370 -0.0876  0.0155
26447W        W41916  13.079  16.082  12.688 -0.2259 -0.0451  0.2616
26448W        W41917   3.502  16.698  15.424  0.1974  0.0473  0.0479
26449W        W41918   6.276   2.233   3.817 -0.0083  0.0027 -0.0761
26450W        W41919   4.583  16.573   2.784 -0.0932 -0.0430 -0.0129
26451W        W41920   7.525   7.886   5.945  0.0422  0.0884 -0.1117
26452W        W41921   0.966   8.548   2.738  0.0991 -0.2530  0.1543
26453W        W41922   6.338   0.225   0.987 -0.3689 -0.1498  0.0008
26454W        W41923   9.103   0.017  11.981  0.3437 -0.0608  0.2118
26455W        W41924   5.352   7.203  13.296  0.3390 -0.1737 -0.0863
26456W        W41925   6.441   2.687  13.309 -0.0886  0.0214  0.1216
26457W        W41926  14.071   1.390   3.798  0.1762  0.1057  0.1454
26458W        W41927   0.940  17.289  12.798 -0.1283  0.1090 -0.1714
26459W        W41928  10.208  10.117   3.869 -0.4192 -0.0899 -0.2329
26460W        W41929   8.912  14.325  14.926  0.2287 -0.0505  0.2532
26461W        W41930  17.152   4.907   0.825  0.3314 -0.1564  0.3390
26462W        W41931   4.933  16.960   2.805  0.1954  0.2374  0.1226
26463W        W41932   1.958  11.108   0.491  0.2493  0.1504  0.1136
26464W        W41933   5.762   8.033  13.294 -0.1709  0.2039 -0.0598
26465W        W41934   0.535  16.671   3.803  0.2777 -0.3055 -0.2894
26466W        W41935   7.202   3.819  13.592 -0.0040 -0.1724 -0.0727
26467W        W41936  14.083  18.677   0.411  0.2917 -0.2553 -0.1448
26468W        W41937   7.404   3.886   3.064  0.3495  0.2136 -0.2390
26469W        W41938  13.367   1.879  12.161 -0.0619 -0.1765  0.1910
26470W        W41939  10.832   3.515   1.617 -0.0187  0.0896 -0.0882
26471W        W41940  14.319   9.291   4.547  0.3012 -0.2431 -0.1123
26472W        W41941  15.598   5.202  12.013  0.1840 -0.3588  0.2128
26473W        W41942  10.918  11.779  10.554  0.2907  0.0820 -0.0336
26474W        W41943  11.724  13.053   5.199  0.0100 -0.3663 -0.1899
26475W        W41944   1.684  17.324  14.277  0.0543  0.0823 -0.0535
26476W        W41945   2.988  10.107   0.625 -0.1811  0.0288 -0.0620
26477W        W41946   2.814   6.557  13.877  0.0987  0.0466  0.0153
26478W        W41947   8.970  11.292   4.017 -0.2391 -0.0029 -0.0297
26479W        W41948  11.434   4.555  14.461  0.0351  0.2671  0.1044
26480W        W41949   8.989   2.951  15.763  0.1599  0.1845 -0.0227
26481W        W41950   5.380  10.895  13.861  0.2124  0.4700  0.0854
26482W        W41951  14.766  11.615   1.266 -0.3005 -0.2047  0.0338
26483W        W41952   3.451  17.611   9.929  0.1013 -0.0350  0.0006
26484W        W41953   3.411   7.369   1.975  0.0216  0.1567  0.0866
26485W        W41954  10.390  13.398  15.454  0.3007 -0.3534  0.1243
26486W        W41955   7.542  15.589  14.488  0.0636 -0.1914 -0.1905
26487W        W41956   8.530  13.727  12.914 -0.0385  0.1057 -0.0985
26488W        W41957  11.310   7.797   0.180 -0.0584 -0.2382 -0.0477
26489W        W41958  11.005  18.635  11.942  0.2012 -0.0959 -0.1648
26490W        W41959  13.878  15.105  12.793  0.2522  0.1602 -0.1291
26491W        W41960  13.318  12.464  14.690  0.2577  0.2235  0.0442
26492W        W41961  10.896  12.691   1.792 -0.0901  0.0360  0.2869
26493W        W41962   9.360   5.074  12.433 -0.2423  0.1270 -0.0813
26494W        W41963  16.943   9.339   0.409 -0.0320  0.0818  0.0667
26495W        W41964  10.658  14.182   2.501  0.4382  0.2809 -0.0091
26496W        W41965  10.807   3.567  15.755  0.0541 -0.0614  0.2174
26497W        W41966   8.821  10.806   5.278 -0.1643 -0.1276  0.4174
26498W        W41967   8.004   2.542   1.617 -0.1756 -0.1141 -0.0250
26499W        W41968  12.693   8.811   0.559  0.0815  0.0807 -0.0275
26500W        W41969   4.313   5.640   5.102  0.2171  0.2453 -0.0072
26501W        W41970   4.272  10.873  12.909 -0.3794 -0.0926  0.3372
26502W        W41971   4.765  10.173  11.889  0.4886 -0.3165  0.0551
26503W        W41972   6.220  15.370  11.198 -0.2345 -0.0634  0.0207
26504W        W41973   8.879  11.689   3.222 -0.1391 -0.0735  0.0744
26505W        W41974  16.372  16.175  11.474 -0.0699 -0.1694  0.1146
26506W        W41975  17.113   6.236   5.767 -0.1992 -0.0623 -0.2619
26507W        W41976   5.333   8.122   0.800 -0.2188  0.0532 -0.4059
26508W        W41977   0.067   6.153   4.473  0.1523 -0.0374  0.3168
26509W        W41978  17.849  10.994  15.281 -0.4687  0.1123  0.1354
26510W        W41979  18.584   7.418   0.101 -0.1856 -0.1448  0.5307
26511W        W41980   5.634  12.851   4.903  0.0509  0.0841 -0.2844
26512W        W41981  11.255  11.849  11.825 -0.2153  0.0616 -0.2199
26513W        W41982   6.970  11.246   4.400 -0.2513 -0.1655 -0.3609
26514W        W41983   1.212  10.041  12.328 -0.2635 -0.2672 -0.4365
26515W        W41984   9.959  14.437  12.828 -0.3505 -0.2678 -0.4187
26516W        W41985  14.201   1.142  14.410  0.1168 -0.0542 -0.1517
26517W        W41986  14.874   9.325   4.615  0.0915  0.0093  0.0910
26518W        W41987  16.734   8.169   5.094  0.0523 -0.1042  0.1963
26519W        W41988  17.452   2.709  15.242 -0.1300 -0.0244  0.0669
26520W        W41989  16.683  10.979  14.711  0.0444  0.0057 -0.2672
26521W        W41990   2.954  11.176  15.771 -0.2561 -0.0504  0.0550
26522W        W41991   0.419  16.044  12.288  0.0642 -0.5007  0.1910
26523W        W41992  16.727   6.494   5.359  0.2802 -0.1349  0.0106
26524W        W41993   4.052   4.345   2.174  0.2152 -0.3079  0.0221
26525W        W41994  12.476   4.010  14.755 -0.2208  0.1093 -0.0806
26526W        W41995   4.955   0.964  14.103  0.0275  0.0732 -0.2311
26527W        W41996  10.283  14.595   0.956 -0.0863 -0.3187 -0.0473
26528W        W41997  11.414  12.099   5.265 -0.3510  0.3711  0.0149
26529W        W41998  10.556   8.061   4.273  0.2552 -0.1504  0.0076
26530W        W41999  11.788   3.770  15.471 -0.0092  0.1743 -0.1710
26531W        W42000  18.003   7.915  11.372 -0.1674 -0.0227  0.0987
26532W        W42001   9.618   5.603   3.235  0.4570 -0.1445 -0.0324
26533W        W42002  10.410   9.034  10.305 -0.3413 -0.1468  0.0741
26534W        W42003  18.182  14.123   0.074  0.1632  0.2610  0.0405
26535W        W42004   5.624   8.949  14.374 -0.1460  0.1262  0.0981
26536W        W42005   5.845   0.187   1.086 -0.1012  0.0968 -0.0661
26537W        W42006   8.502  18.448   2.261 -0.1804  0.3094 -0.0040
26538W        W42007   4.640  10.828   2.133 -0.3247 -0.0992 -0.0500
26539W        W42008   4.089  18.120  15.745  0.2615  0.1407  0.1639
26540W        W42009  11.675   5.263  12.342 -0.2717 -0.3669 -0.0840
26541W        W42010  16.968  13.904  12.544 -0.4295  0.0249 -0.1233
26542W        W42011   0.945  13.968   1.062  0.0056 -0.1702 -0.1668
26543W        W42012   3.368   5.064  12.457  0.1336 -0.0034 -0.2843
26544W        W42013   7.035  16.767   0.447 -0.1726  0.0080 -0.1699
26545W        W42014  11.595  16.160   1.934 -0.0596  0.0167 -0.2497
26546W        W42015   9.448  16.282   1.993  0.0951  0.0569  0.0173
26547W        W42016   2.891  10.245  13.446  0.1413 -0.0733  0.1500
26548W        W42017  16.847  13.202  13.308 -0.1104  0.2647  0.2316
26549W        W42018  11.922  15.080   0.873  0.2441 -0.0152 -0.3353
26550W        W42019   0.486  12.207  11.255  0.3443 -0.1514 -0.0185
26551W        W42020  16.150  14.919   1.970 -0.0793 -0.0889 -0.0691
26552W        W42021   7.480  10.554  13.911 -0.0660  0.1453 -0.0603
26553W        W42022  11.534  15.805   3.552 -0.2269 -0.1117  0.1359
26554W        W42023  18.670   2.224   1.614 -0.0077  0.3799  0.1085
26555W        W42024   4.366  15.288   3.897  0.2352  0.1549 -0.1048
26556W        W42025  10.950   9.476  15.494 -0.2451  0.1893  0.1407
26557W        W42026   5.334  14.514  14.803  0.2517 -0.0228 -0.2283
26558W        W42027  15.230  17.838  14.620  0.0380 -0.0921  0.2834
26559W        W42028   9.332  12.593   5.499  0.1553  0.0601  0.3301
26560W        W42029  12.729  10.488  12.492 -0.2102  0.2487 -0.4709
26561W        W42030  13.815   9.905   0.922 -0.1477 -0.4273 -0.2553
26562W        W42031  13.587  17.734  12.476  0.1175 -0.0863  0.1808
26563W        W42032   7.571  10.648   4.983  0.0320 -0.1745 -0.0685
26564W        W42033   8.030  18.027   5.866 -0.2864  0.0551  0.3485
26565W        W42034   8.764  13.107  12.167 -0.2037  0.1268  0.0704
26566W        W42035   7.867   8.156   0.479 -0.0174  0.0596  0.1459
26567W        W42036   9.575   2.373  15.475  0.2441  0.0853 -0.3917
26568W        W42037   3.683   7.421   0.450 -0.3654 -0.2101 -0.0530
26569W        W42038   8.142  14.704   3.140  0.0828  0.0103 -0.3573
26570W        W42039   2.343  16.520  14.322  0.1301  0.0079 -0.0499
26571W        W42040  12.202   7.913  10.386  0.0148  0.1394 -0.2851
26572W        W42041   4.387   4.624   4.233 -0.2604  0.1314 -0.3742
26573W        W42042   0.783  16.114  11.466 -0.0680 -0.2012 -0.1716
26574W        W42043   8.004   5.656  14.157  0.0889  0.0846  0.0527
26575W        W42044  18.056   0.930  12.243  0.1268  0.0716  0.0096
26576W        W42045  16.812   1.885  12.138  0.1945 -0.0538 -0.1502
26577W        W42046   2.312  17.442  14.204  0.1672 -0.1195 -0.2655
26578W        W42047  15.711  14.287  15.180 -0.1495 -0.3136 -0.2615
26579W        W42048   9.037   6.631  11.055 -0.1661 -0.2427  0.1155
26580W        W42049   3.727   9.176  14.986 -0.1762  0.0845  0.2957
26581W        W42050   4.256   9.373   0.133 -0.2585 -0.0811 -0.0343
26582W        W42051  10.049   7.583  10.738  0.3495 -0.1914  0.2008
26583W        W42052  13.155  10.218  11.563 -0.4751 -0.2174  0.0169
26584W        W42053   5.549   2.868  10.544  0.3098  0.2621  0.1113
26585W        W42054  15.933  14.904  13.419 -0.1590  0.1131  0.0414
26586W        W42055   7.679   0.011  13.598 -0.0575  0.2014  0.2189
26587W        W42056   9.320   6.738  15.633  0.3331 -0.1235 -0.3457
26588W        W42057  14.700   0.899   0.653  0.2601 -0.1267  0.0704
26589W        W42058   7.316   8.251   2.345 -0.2191 -0.1861 -0.2709
26590W        W42059  10.799   8.436   0.631 -0.0819 -0.0100  0.0205
26591W        W42060   7.368   6.082  11.238 -0.0484  0.0285  0.5526
26592W        W42061  12.689  15.206   3.024 -0.1911 -0.0384 -0.0452
26593W        W42062   1.640  15.922  13.288 -0.0290 -0.1305 -0.1118
26594W        W42063  13.108  12.074  14.279 -0.1252 -0.0353 -0.0524
26595W        W42064   0.717  11.182   2.690  0.0588 -0.0011  0.1223
26596W        W42065  14.150   8.084  12.887  0.2123 -0.1645  0.1408
26597W        W42066  16.750   2.409  14.927 -0.1590 -0.2249 -0.1112
26598W        W42067  14.010  15.000  11.938 -0.0188 -0.1714 -0.3271
26599W        W42068  12.362   8.838  13.220  0.1248  0.2361 -0.0344
26600W        W42069  14.918   1.929   3.500  0.0133 -0.0692 -0.3838
26601W        W42070   0.788  18.464  13.576 -0.2889  0.0330 -0.0837
26602W        W42071   5.272   1.967   1.042 -0.1489  0.0394  0.0839
26603W        W42072   4.991  14.245  13.086 -0.2197 -0.0854 -0.2410
26604W        W42073  10.234   8.194   4.658 -0.4506  0.1467  0.0955
26605W        W42074   7.088   8.341   6.061 -0.3648  0.0957 -0.0268
26606W        W42075   7.377  15.218  12.651 -0.2864  0.0185 -0.1651
26607W        W42076   2.549   0.940   2.577  0.0060 -0.1394 -0.0238
26608W        W42077   4.740   3.701  15.267 -0.1793  0.1899 -0.1527
26609W        W42078  17.550  14.993   2.311  0.1528 -0.1278  0.1136
26610W        W42079  18.500   9.597   0.007 -0.1423 -0.4445 -0.0335
26611W        W42080   4.659   9.812  13.431 -0.2023 -0.0436  0.0103
26612W        W42081   7.628  13.907   1.532  0.1842 -0.0864 -0.2181
26613W        W42082   5.058   2.796  14.174  0.4741  0.0621 -0.0022
26614W        W42083  14.694   4.093  12.513 -0.1805  0.2035  0.0039
26615W        W42084  12.872  10.067  10.385  0.0954  0.0233  0.0001
26616W        W42085  14.715   2.329   3.907 -0.4824 -0.3496  0.0888
26617W        W42086   0.869   3.056  10.911  0.0412  0.2008  0.0697
26618W        W42087  15.262   0.980   1.912 -0.0262  0.1234  0.2782
26619W        W42088   9.439   8.579   3.228  0.2145  0.0845  0.0894
26620W        W42089   5.927  11.570   3.934 -0.0249 -0.0510  0.1779
26621W        W42090   2.442   5.419  11.672  0.1746  0.2163 -0.1085
26622W        W42091  16.652   2.535   4.578  0.2540  0.1334  0.2648
26623W        W42092   7.376   9.804   1.526  0.1246 -0.3603 -0.1187
26624W        W42093  18.075   2.890   4.610 -0.2649 -0.0568 -0.0574
26625W        W42094   2.456   1.419  15.476  0.4539  0.1181 -0.2072
26626W        W42095  18.158   5.951  12.650  0.0064 -0.2926 -0.2112
26627W        W42096  15.296  16.778   2.570  0.2423  0.0775 -0.1672
26628W        W42097   8.751  17.100  12.398  0.1091 -0.2334  0.2663
26629W        W42098   0.367   6.979  15.194 -0.1441 -0.1263  0.1013
26630W        W42099   5.113   7.004   3.259 -0.0890 -0.2289  0.1614
26631W        W42100  12.897  10.559   0.513 -0.0418  0.1823 -0.1090
26632W        W42101   3.515  14.451  12.675 -0.0774  0.0443 -0.0641
26633W        W42102   7.325  10.263   2.460 -0.3160 -0.3095 -0.0119
26634W        W42103   7.091  14.770   6.147  0.0304  0.3001  0.0929
26635W        W42104   6.081  14.328  14.272  0.0997  0.0461 -0.4602
26636W        W42105   1.580   9.486   5.815 -0.0049  0.0723  0.0817
26637W        W42106   1.198  12.252   3.989 -0.0941 -0.1346  0.0469
26638W        W42107   1.516   2.204  14.321  0.1639  0.2440 -0.3032
26639W        W42108   6.745  14.594  12.310  0.2069  0.0107  0.0001
26640W        W42109   6.805  15.995   4.775 -0.2033  0.2545 -0.1782
26641W        W42110   9.251   0.379   3.212  0.0706  0.1523  0.2326
26642W        W42111  18.104  11.635  12.952 -0.1691 -0.2464  0.3916
26643W        W42112  13.072  12.143   4.039 -0.1684 -0.0921  0.6297
26644W        W42113  10.088  12.583   0.331 -0.2016 -0.1553 -0.1045
26645W        W42114   1.468   3.996   2.890 -0.1652 -0.0649  0.1085
26646W        W42115  11.882   5.889   2.578  0.0089  0.1347  0.0057
26647W        W42116   8.527  13.254  15.781  0.1803 -0.0599  0.4353
26648W        W42117   8.592   2.778   3.766 -0.5421 -0.1376 -0.0986
26649W        W42118  15.859  14.643  11.633  0.1940 -0.0464  0.1004
26650W        W42119   1.479   1.176  13.707  0.3524 -0.1296  0.2036
26651W        W42120   2.487   0.193   0.068 -0.0057 -0.0384 -0.2911
26652W        W42121   5.840   0.436   3.081  0.3655  0.0002 -0.1777
26653W        W42122  11.415  12.760   4.380  0.0895 -0.0230 -0.2038
26654W        W42123   1.662  13.216   2.128 -0.1487 -0.0295  0.0636
26655W        W42124  11.458  15.158   0.545 -0.3607  0.3108  0.0756
26656W        W42125  16.550  16.314   2.599  0.1071  0.2030  0.0116
26657W        W42126  15.577   6.136   5.174 -0.0700  0.1644  0.0816
26658W        W42127   0.305  14.143  10.235  0.1012 -0.0522  0.0047
26659W        W42128   4.219  12.408  11.041 -0.3060 -0.1559 -0.1372
26660W        W42129  16.456   6.679  13.413 -0.0917  0.0382  0.0445
26661W        W42130   8.600  17.977   5.829  0.1296 -0.0171 -0.0706
26662W        W42131   8.899   9.849  14.982  0.0653  0.0172  0.0918
26663W        W42132  15.352   3.818  15.492 -0.0447 -0.1625 -0.3550
26664W        W42133   7.076  13.096  14.933  0.3367  0.2875  0.3354
26665W        W42134   6.235  14.855  11.182  0.2469 -0.0742 -0.0020
26666W        W42135  12.609  16.076   3.067  0.2209  0.1063  0.2457
26667W        W42136   6.346  14.112   2.855 -0.0984 -0.3852  0.0061
26668W        W42137  17.635   8.361  14.557  0.1583 -0.1279  0.2059
26669W        W42138   8.763   6.317  10.222 -0.0446  0.1817  0.0472
26670W        W42139  16.966  17.944   3.786 -0.4138 -0.1401 -0.2645
26671W        W42140   0.120  11.860  15.615  0.1657  0.1491  0.1620
26672W        W42141   7.042   3.029  12.096 -0.1015 -0.1100 -0.1272
26673W        W42142   1.818   2.968  13.616 -0.1891  0.0907  0.3199
26674W        W42143  11.542   1.956  15.013 -0.0615  0.0373  0.1417
26675W        W42144  16.519  10.564   4.341  0.1349 -0.2273 -0.1924
26676W        W42145  10.157  10.335  14.667  0.1164 -0.2182 -0.0524
26677W        W42146  17.529  16.252   2.788  0.1326 -0.0465 -0.1378
26678W        W42147  10.989  12.272   3.304  0.1601  0.3973  0.2215
26679W        W42148  10.295  15.154   3.558  0.1496  0.1677 -0.1111
26680W        W42149   2.679  14.863   0.732 -0.1410  0.3021 -0.1444
26681W        W42150   3.312   6.660   3.329  0.2046  0.3072  0.0325
26682W        W42151   6.892   1.262   1.989  0.0959  0.0526  0.1673
26683W        W42152   4.587  13.373   5.840  0.1591 -0.0442  0.0727
26684W        W42153   9.975  15.863  11.878 -0.2598  0.0570 -0.0417
26685W        W42154  10.812   8.929  10.677  0.3528 -0.2504  0.1048
26686W        W42155   2.033  13.116  11.869 -0.3454  0.1362  0.0378
26687W        W42156  14.575   8.431  14.614  0.2194  0.0117 -0.0102
26688W        W42157  18.303   0.789   3.061  0.0759 -0.0180  0.1248
26689W        W42158   2.636  14.905   1.749 -0.0998 -0.5256 -0.0619
26690W        W42159  15.244   8.216   5.677  0.0256  0.0178 -0.0638
26691W        W42160  10.049   5.600  15.611 -0.0611 -0.1612  0.2725
26692W        W42161   2.683   7.135  14.534 -0.0151 -0.3393 -0.1185
26693W        W42162   9.523  11.838  13.065 -0.0556  0.1695 -0.5217
26694W        W42163  16.400  16.987  13.385 -0.0618 -0.0066 -0.1194
26695W        W42164  10.383  12.636   3.449  0.1855 -0.2520 -0.2310
26696W        W42165  11.010   1.337  12.303 -0.1358  0.1594  0.2897
26697W        W42166   2.181  16.707   3.948 -0.1456  0.0365 -0.0023
26698W        W42167   1.328   6.786   0.167  0.1067  0.1831  0.0742
26699W        W42168   0.278  16.748   1.505 -0.1272  0.1510 -0.2443
26700W        W42169   4.060   2.624  10.084  0.0044 -0.1346  0.3102
26701W        W42170  16.255   8.707   0.957 -0.0878 -0.1935 -0.0029
26702W        W42171   3.217   3.341   4.610 -0.1124  0.0696  0.0490
26703W        W42172   6.333  14.123   5.386 -0.1600  0.0176 -0.0480
26704W        W42173  14.411  10.074   3.978  0.0050 -0.1502  0.3362
26705W        W42174  10.346  11.316  14.575  0.0455 -0.0594  0.2483
26706W        W42175   2.565  11.316  14.139 -0.2694  0.1250 -0.2572
26707W        W42176   4.920   4.376   5.551  0.2399 -0.0240 -0.0777
26708W        W42177  13.220  16.740  13.410 -0.1300 -0.0381 -0.2081
26709W        W42178   3.326   2.657  12.430 -0.2344  0.1824  0.0508
26710W        W42179   2.504  11.892  13.429 -0.3020 -0.0654 -0.1506
26711W        W42180  16.515   1.818  13.322  0.0989  0.2161  0.1827
26712W        W42181  11.799  12.747   4.801 -0.1747  0.4777  0.0890
26713W        W42182  12.695  12.797  12.845  0.2458 -0.0695 -0.0081
26714W        W42183   5.571  18.374   1.057 -0.0704 -0.1233  0.1212
26715W        W42184   9.958   7.637   0.785 -0.0152  0.1978 -0.1481
26716W        W42185   1.961   8.291   1.883 -0.0612 -0.0029  0.1597
26717W        W42186  16.340   7.294  10.392  0.0620  0.1622 -0.1334
26718W        W42187  11.895   3.132   1.937 -0.2038  0.2116 -0.0807
26719W        W42188   9.999  16.344   4.591 -0.0285  0.1525 -0.2817
26720W        W42189   9.066  15.442   1.293  0.0219  0.2794 -0.0062
26721W        W42190   9.392   6.906   0.388 -0.0168  0.2118  0.0137
26722W        W42191  13.536   0.182   0.388 -0.1487 -0.3013  0.1832
26723W        W42192   1.989   1.424   0.143 -0.0474  0.3913 -0.0539
26724W        W42193   0.914   3.661   4.025 -0.0699  0.1571 -0.2577
26725W        W42194  12.709   0.639  12.195  0.1421  0.2204  0.0983
26726W        W42195  10.170   3.771   4.648  0.1607 -0.4143 -0.1597
26727W        W42196  10.960   6.246   0.079  0.1309 -0.2133 -0.0825
26728W        W42197   8.878   6.826  14.013  0.1547 -0.1622  0.0818
26729W        W42198  11.136   2.697   5.268  0.3194  0.0991  0.0287
26730W        W42199   8.426   9.415  13.900 -0.1809  0.3153  0.0463
26731W        W42200  12.518   9.269  13.925 -0.0857 -0.1807 -0.1844
26732W        W42201   6.560   7.389  10.592  0.2656 -0.2729 -0.2899
26733W        W42202   7.546   9.715   0.921  0.2004  0.1828 -0.0065
26734W        W42203   3.803  15.908   2.838 -0.2324  0.1854  0.1254
26735W        W42204  12.049  10.425  13.260  0.0144 -0.2869 -0.0787
26736W        W42205   3.961   6.917  15.192  0.1942 -0.1526  0.0526
26737W        W42206  16.658  17.231   2.957  0.3271  0.2375 -0.3659
26738W        W42207  10.908   2.465  12.864  0.0891 -0.1121  0.3907
26739W        W42208  14.750   9.940  11.833 -0.2075 -0.2114  0.0152
26740W        W42209   3.091  15.105  12.503 -0.0868  0.2679  0.0270
26741W        W42210  11.457  13.013  13.590  0.2859  0.0615  0.1394
26742W        W42211  13.465  13.423  14.999  0.0102  0.2787 -0.2350
26743W        W42212  17.064  10.587  15.647  0.1047  0.0539 -0.0035
26744W        W42213   6.968   4.754   0.139 -0.2768  0.3231  0.3084
26745W        W42214  17.153  17.350  11.417 -0.0354 -0.0864  0.0510
26746W        W42215   0.007  11.596  11.761 -0.0288 -0.1862 -0.1055
26747W        W42216   6.137  11.682   2.983 -0.1969  0.0492  0.3757
26748W        W42217   4.814  10.247   2.255  0.0398  0.1230 -0.1625
26749W        W42218  17.099   3.622   2.216  0.0851 -0.4564 -0.0452
26750W        W42219   2.521  14.961   2.239 -0.0995 -0.1987  0.2235
26751W        W42220   1.266  17.021  15.638  0.0941 -0.1865  0.1542
26752W        W42221   6.228   7.950  15.523  0.0967  0.0541 -0.0162
26753W        W42222   7.048  13.503   0.275 -0.3205  0.1209  0.2090
26754W        W42223  11.003  16.941  13.760  0.2030 -0.1063 -0.0295
26755W        W42224  11.436   0.051   2.283  0.0884 -0.2389 -0.0018
26756W        W42225   8.744  15.148   1.594 -0.0710 -0.1161 -0.0338
26757W        W42226   8.365  13.222  11.544  0.0382 -0.0588 -0.0494
26758W        W42227   4.746  13.074   4.285 -0.1024  0.1964 -0.2037
26759W        W42228   1.547   0.688  15.576 -0.1675 -0.0653 -0.2553
26760W        W42229   9.658   6.168  13.627  0.0988  0.3348  0.2327
26761W        W42230  18.245   6.808  13.006  0.3484  0.0588  0.0699
26762W        W42231   7.388   4.035   3.522 -0.1527  0.0256  0.0999
26763W        W42232  17.178  13.179   2.683 -0.0985 -0.0999  0.1735
26764W        W42233   9.762  17.147  14.676 -0.0119 -0.0109 -0.3049
26765W        W42234  11.900   0.086  12.515  0.0057  0.1064 -0.0683
26766W        W42235  13.895   0.165   2.505  0.2050  0.2728 -0.0199
26767W        W42236   3.235  17.507   2.540 -0.1222  0.0543  0.0768
26768W        W42237  18.204   5.482   1.510  0.0265  0.0958 -0.0631
26769W        W42238  14.439  11.803   3.653  0.1094 -0.2453  0.4160
26770W        W42239   1.866  13.426   5.132 -0.1667  0.0070 -0.1587
26771W        W42240  10.308  10.723   3.318  0.0011  0.1186  0.2157
26772W        W42241   0.372   4.917   4.572  0.3296 -0.1667 -0.0069
26773W        W42242  15.612   7.562  15.669  0.3181 -0.2024  0.1290
26774W        W42243   5.747  10.286   3.914  0.0279 -0.2260  0.0784
26775W        W42244  15.301   1.372   2.817  0.1292 -0.2167  0.6025
26776W        W42245   3.301  17.822   3.423 -0.4322  0.0878 -0.3974
26777W        W42246   9.583   6.567  12.320 -0.0044 -0.4286  0.1271
26778W        W42247  15.834  16.720   5.340  0.0401  0.0605  0.1282
26779W        W42248   1.079  16.641   5.330 -0.0085  0.0029 -0.1274
26780W        W42249   7.478   9.338   2.583 -0.0917 -0.1102 -0.1253
26781W        W42250   0.608   9.372  11.043 -0.0491 -0.2486 -0.2197
26782W        W42251   0.388   2.505  13.083  0.0086  0.3301  0.0890
26783W        W42252  12.113   4.031   1.678 -0.1839 -0.0775 -0.3274
26784W        W42253   0.109   1.152  13.568 -0.1062 -0.1945 -0.1905
26785W        W42254  11.514  13.836  13.010 -0.0250  0.0745  0.1522
26786W        W42255  18.364   0.050  11.767  0.1069  0.1451 -0.0127
26787W        W42256  16.811   7.217  14.612  0.0765 -0.2801 -0.1470
26788W        W42257  13.007   8.117   4.913 -0.0822 -0.2488 -0.2015
26789W        W42258   7.630   9.759   3.669  0.1273  0.0497  0.0482
26790W        W42259  10.930   6.717   4.034 -0.1026 -0.3920  0.3765
26791W        W42260   3.787  13.822  11.834 -0.0238  0.1127  0.3202
26792W        W42261   3.933   8.264  13.487 -0.1264  0.2757  0.0117
26793W        W42262  18.393  15.680   4.114 -0.0382 -0.0545 -0.1500
26794W        W42263   9.733   9.858   3.965  0.0260  0.3069  0.1606
26795W        W42264  15.480   8.309  11.916 -0.2070 -0.4447  0.2258
26796W        W42265   7.809  11.489   4.179  0.3110 -0.1550 -0.1503
26797W        W42266   1.648   4.471   0.954 -0.0450  0.1738 -0.4226
26798W        W42267  12.281   6.532  15.192 -0.0901  0.1698 -0.3335
26799W        W42268  14.796   6.695  11.882 -0.0991  0.0369 -0.1580
26800W        W42269   5.840   8.560  14.130  0.4275 -0.0449  0.3285
26801W        W42270  15.434  14.808  12.787  0.1619 -0.1364  0.1312
26802W        W42271   4.357   3.912   3.482 -0.1322  0.0944  0.3166
26803W        W42272   5.095  18.567  14.126  0.0552  0.0826 -0.0296
26804W        W42273  17.483   4.696  14.859  0.1063  0.1393 -0.1155
26805W        W42274   1.608   5.355   5.034 -0.1331 -0.0671  0.4362
26806W        W42275  15.409   8.576  10.395 -0.2957 -0.1458 -0.0499
26807W        W42276   0.258  14.445   4.549  0.2018 -0.0193  0.0720
26808W        W42277   6.607  16.268  14.681  0.0445 -0.6761  0.3415
26809W        W42278   5.825   9.453   2.678 -0.0582 -0.0721 -0.0073
26810W        W42279   3.632   8.230  11.796 -0.1021 -0.1832  0.2551
26811W        W42280   9.164   6.524   1.170 -0.3333  0.0326 -0.0781
26812W        W42281   0.447  11.585  13.992  0.1604 -0.0599  0.0716
26813W        W42282  17.862   8.402   9.848 -0.1026  0.4574 -0.2181
26814W        W42283   1.674  16.497   4.874  0.0647  0.1101  0.2247
26815W        W42284   7.224   5.451   4.224  0.2073 -0.2436  0.0836
26816W        W42285  11.720  16.609  15.367 -0.2848 -0.1565  0.0724
26817W        W42286  14.698   4.759  13.712 -0.2538 -0.0934 -0.2051
26818W        W42287   6.405  12.263   4.295  0.0027  0.2171 -0.0186
26819W        W42288  17.420   1.333   3.615 -0.0884  0.1188  0.0062
26820W        W42289  10.595   7.102   2.648 -0.3145 -0.0676  0.0410
26821W        W42290  18.053   4.400  10.566  0.1384  0.0111  0.1952
26822W        W42291   2.015   4.942   0.767  0.1490 -0.5325 -0.0288
26823W        W42292   5.967   7.136   0.105  0.2599 -0.1370  0.1156
26824W        W42293  10.268   1.487  12.728  0.0379 -0.1486 -0.1031
26825W        W42294  13.303  15.112  14.137  0.0307 -0.2501  0.0741
26826W        W42295   8.633   4.008   5.565  0.4573 -0.1050  0.1765
26827W        W42296   4.335  12.420  15.209  0.2256 -0.2342  0.5004
26828W        W42297  12.286   4.465  11.734 -0.0939  0.1287 -0.0653
26829W        W42298  13.933   6.846  12.655  0.2518 -0.2898 -0.0663
26830W        W42299  14.153   8.247   2.896 -0.1151 -0.0271 -0.2673
26831W        W42300   5.224  10.261  11.876  0.1564  0.0046  0.0874
26832W        W42301   0.705   6.007  15.731 -0.0217 -0.2207 -0.1965
26833W        W42302   6.620  15.140  13.051 -0.0660 -0.0247  0.2663
26834W        W42303   3.787  13.205  15.689 -0.0588 -0.1674  0.0527
26835W        W42304  14.932   9.111   0.630 -0.0447 -0.0195  0.0326
26836W        W42305   0.534  10.545  15.428 -0.1984  0.5271  0.3115
26837W        W42306  15.396  18.308   4.227 -0.1703  0.2917  0.2051
26838W        W42307   1.944  10.651  13.188 -0.2061  0.0909 -0.0424
26839W        W42308   8.800   4.737  14.777  0.1224 -0.2608 -0.0136
26840W        W42309   5.822   7.687   2.792  0.0242 -0.0084  0.1855
26841W        W42310  10.833   1.457   2.973  0.0283 -0.3800 -0.2139
26842W        W42311   9.112  15.692  12.099 -0.1788 -0.0928 -0.2435
26843W        W42312   3.991  14.495  12.485 -0.0893 -0.0769 -0.0366
26844W        W42313  12.109  17.274   2.105  0.1156  0.0146 -0.1660
26845W        W42314  14.853  16.796  14.656 -0.1959  0.0573  0.1613
26846W        W42315  12.256   4.058  11.344  0.0725 -0.0651  0.0195
26847W        W42316  16.955   9.667  10.524  0.2756 -0.1165 -0.1465
26848W        W42317  13.672  12.712   1.035 -0.3295  0.2805 -0.0099
26849W        W42318   8.959  17.428   1.456 -0.1575 -0.2295 -0.2371
26850W        W42319   0.135  10.531  13.420  0.0135  0.1122  0.1001
26851W        W42320   2.638   7.568   1.576 -0.0512 -0.0578 -0.2428
26852W        W42321   8.532  13.649  14.969 -0.0437 -0.1786 -0.1995
26853W        W42322  12.093  15.813  11.995  0.1499  0.1297  0.2003
26854W        W42323   0.621   0.633  14.587  0.1871  0.0047  0.1453
26855W        W42324   5.141   9.216   3.993 -0.2197 -0.0393 -0.1088
26856W        W42325   6.760   3.376   5.033 -0.2575  0.2165 -0.2479
26857W        W42326  14.804   1.163  11.664 -0.1700  0.1905  0.0268
26858W        W42327  12.393  15.130   5.260  0.1471 -0.2238 -0.1706
26859W        W42328  16.121  11.314   2.084  0.0516  0.0254 -0.1197
26860W        W42329   1.066  16.499   4.032  0.0056  0.0796 -0.0516
26861W        W42330   4.776   5.040   4.321  0.0374  0.3484  0.1558
26862W        W42331   4.569   8.903  12.997 -0.1534 -0.1053  0.0182
26863W        W42332   9.228   5.796   5.236 -0.2359  0.3492  0.3455
26864W        W42333  18.240  12.899  12.870  0.0115 -0.1761  0.2063
26865W        W42334   9.567  18.545   2.253  0.0327  0.2775  0.1548
26866W        W42335  17.822  11.071   1.222  0.4259  0.0036 -0.0169
26867W        W42336  14.195   5.286  12.608  0.0796 -0.0599  0.4499
26868W        W42337   2.808   8.309   0.324 -0.0488  0.0225 -0.5448
26869W        W42338   4.860   0.634   9.301  0.1063 -0.1004 -0.0311
26870W        W42339   3.385  14.040  15.605  0.0284 -0.0215  0.1721
26871W        W42340   7.101   0.354   4.094  0.2054  0.0886 -0.0940
26872W        W42341  16.955  18.135   9.312  0.0258 -0.2351 -0.0145
26873W        W42342   5.863   2.311   4.241  0.1177 -0.2584  0.1577
26874W        W42343   2.959   5.125  15.762 -0.2495 -0.2204  0.0496
26875W        W42344  12.308   6.447  14.709  0.0773 -0.3620 -0.1362
26876W        W42345   8.484  16.581   1.840 -0.0864 -0.2185  0.0632
26877W        W42346  12.598   2.010   0.412  0.1961  0.1872 -0.4718
26878W        W42347   6.464  12.332   1.785 -0.0270  0.1120 -0.1113
26879W        W42348   3.748   4.577   5.924  0.2765 -0.1264 -0.0224
26880W        W42349   1.093  10.811   1.667  0.2476  0.0983 -0.0852
26881W        W42350   6.527   0.237   0.169 -0.0137 -0.3409  0.4853
26882W        W42351   5.280  18.004   0.857  0.0160 -0.2252 -0.4873
26883W        W42352  14.249  10.524  10.296 -0.0539 -0.1442  0.1178
26884W        W42353  17.656   1.816  13.584 -0.0282  0.1657 -0.0079
26885W        W42354   7.138  10.178  14.946 -0.1299  0.2885 -0.2378
26886W        W42355   2.107  18.533  10.218 -0.2079  0.4035  0.1689
26887W        W42356   7.958  17.828   0.127 -0.0706  0.0374 -0.4412
26888W        W42357   7.778  11.015  14.874  0.2709  0.2263 -0.1790
26889W        W42358   4.942  10.584  13.092 -0.2751 -0.1760  0.0858
26890W        W42359   5.319   6.452  11.058 -0.0109 -0.0450  0.0676
26891W        W42360   4.723  17.853   4.429 -0.1973  0.2091  0.2117
26892W        W42361  12.879   1.497   5.135 -0.0819  0.2242  0.1882
26893W        W42362   1.409   4.826   0.660 -0.5212  0.0319  0.3992
26894W        W42363   1.664  12.213  14.605  0.1021  0.0971 -0.0823
26895W        W42364  18.228   0.447  12.002  0.2400  0.0645  0.0982
26896W        W42365   1.769   7.757  13.172  0.0455 -0.1035 -0.3058
26897W        W42366   0.201   7.817   5.325 -0.0149  0.4955 -0.0310
26898W        W42367   6.094   5.924  11.565  0.0668 -0.0097 -0.0656
26899W        W42368   2.225  11.613   0.494 -0.1930 -0.0957 -0.2031
26900W        W42369  10.474   8.847  14.220 -0.0442 -0.0403  0.1948
26901W        W42370  11.066   8.104   3.591  0.0516 -0.1743  0.0129
26902W        W42371  16.828   8.608   9.993 -0.0308 -0.0725 -0.1690
26903W        W42372  14.167   5.894   1.384  0.0731  0.0669  0.1444
26904W        W42373  13.533   8.062  14.599  0.1137 -0.3426  0.1399
26905W        W42374   7.869  17.326  11.433 -0.2156 -0.2595 -0.0668
26906W        W42375   6.593  11.346  13.341 -0.3462  0.1796 -0.0797
26907W        W42376   8.548  12.181   4.131  0.0242 -0.2805 -0.3040
26908W        W42377  14.831  17.967   1.754  0.1773 -0.3236  0.2674
26909W        W42378   7.281   4.348   0.350 -0.0354  0.3736  0.0584
26910W        W42379   8.609   3.001  10.492 -0.1890  0.0791 -0.2014
26911W        W42380  14.901  12.369   2.794 -0.0773 -0.1064  0.0776
26912W        W42381  16.239   4.564  12.107 -0.0169 -0.0551 -0.0816
26913W        W42382   7.061  16.865   0.959  0.1150 -0.2592 -0.3214
26914W        W42383   5.285  18.408   1.944  0.2102  0.2028  0.1441
26915W        W42384   9.985  18.325   0.811  0.0076 -0.1550  0.1734
26916W        W42385  15.269   6.522   0.593 -0.0187 -0.3076 -0.7894
26917W        W42386  12.841   4.333   1.932  0.2485  0.2542  0.0756
26918W        W42387  14.107  18.155   4.392  0.0814 -0.1135 -0.1928
26919W        W42388  14.026  17.552  15.747 -0.0646  0.1301  0.4321
26920W        W42389  10.666   8.336  14.305 -0.1359  0.0557  0.2339
26921W        W42390   1.242  13.156  11.260 -0.2036  0.2024  0.0063
26922W        W42391  18.172   0.522  15.305 -0.3447  0.0525  0.0746
26923W        W42392  13.206   7.110   4.674 -0.1421  0.1127 -0.2010
26924W        W42393   6.187   1.222   1.039 -0.3257  0.1188  0.3891
26925W        W42394   9.143   9.448  14.700 -0.0990 -0.0729  0.1285
26926W        W42395   8.929  14.218   4.123 -0.0340  0.1632 -0.2176
26927W        W42396  12.894   7.253   5.182 -0.0751  0.2272  0.0100
26928W        W42397   4.195  11.378   2.365 -0.3426 -0.0558 -0.0706
26929W        W42398   8.735  17.583  11.885 -0.0345  0.1281  0.2599
26930W        W42399   0.274  11.257   3.446  0.1972 -0.3461 -0.1466
26931W        W42400  12.264   0.229   0.297 -0.1211 -0.0054 -0.1991
26932W        W42401  16.581  10.049   1.194 -0.0324  0.3209 -0.0818
26933W        W42402  13.460  17.542   0.776  0.0300 -0.0923 -0.2813
26934W        W42403  16.509  17.762   3.800  0.0085 -0.1013 -0.2161
26935W        W42404  10.730   5.565   2.629 -0.0163 -0.1835 -0.1046
26936W        W42405  11.623  17.500  11.399 -0.5807 -0.0354  0.0468
26937W        W42406   3.469  13.375   3.298 -0.0615  0.1212 -0.0248
26938W        W42407  17.510   3.362  10.549  0.1156 -0.3416 -0.0446
26939W        W42408   6.763   5.338   9.899  0.0642  0.2262  0.0819
26940W        W42409   7.979   4.273   2.373  0.2368 -0.2483 -0.3437
26941W        W42410   0.661  12.702  15.583  0.0075  0.0156 -0.1235
26942W        W42411   0.064  16.540  13.602  0.0906 -0.0712 -0.1588
26943W        W42412  13.754   6.265   5.162 -0.0743  0.1662  0.0727
26944W        W42413  16.478  11.004   3.659 -0.5096  0.3021 -0.1582
26945W        W42414  16.803  12.139   0.396 -0.2095 -0.0993 -0.1276
26946W        W42415   2.192   9.748  12.407  0.0209 -0.1564 -0.5031
26947W        W42416  12.330  14.722  14.522 -0.1477 -0.0018 -0.2253
26948W        W42417  15.290   3.736   4.893  0.3185 -0.0583  0.0303
26949W        W42418  17.799   6.444  14.509 -0.2051  0.1435 -0.1382
26950W        W42419  16.759  16.280  14.694  0.0437  0.0293 -0.0911
26951W        W42420  12.729  13.317   2.239 -0.1231 -0.1352 -0.0790
26952W        W42421   4.904   5.195   5.938 -0.2947 -0.2265 -0.1899
26953W        W42422   0.134  18.298   4.620  0.0938  0.1206  0.3012
26954W        W42423  17.352   8.896  15.093  0.1329  0.2300  0.1840
26955W        W42424   9.715   8.417  12.362 -0.1945  0.0645  0.0860
26956W        W42425   5.447  17.934  14.412 -0.0688 -0.1829  0.1187
26957W        W42426  18.199  12.281   3.585  0.0381 -0.0291  0.0850
26958W        W42427   4.475   0.337  11.555  0.1042  0.1564 -0.0090
26959W        W42428  17.184  11.367   5.740 -0.2389  0.1392 -0.2099
26960W        W42429  13.528  10.492  13.846 -0.3386 -0.1252 -0.0169
26961W        W42430   4.488  13.314  13.447  0.4148  0.2422  0.2180
26962W        W42431   3.038   8.944  12.866 -0.1177  0.0131  0.0649
26963W        W42432   6.589   6.623  12.403  0.3207 -0.4653  0.0312
26964W        W42433  13.962   1.816   1.805 -0.0384 -0.2534  0.0013
26965W        W42434   4.924  12.067  11.364  0.0514  0.2284  0.0051
26966W        W42435   5.892  12.468   2.488 -0.1842 -0.1857  0.4421
26967W        W42436  10.443   9.806  13.797 -0.1483  0.2324  0.0349
26968W        W42437  15.131  12.964   6.315 -0.1074  0.0041  0.2770
26969W        W42438   3.877   3.995   5.790 -0.3722 -0.3143  0.1876
26970W        W42439  13.532   2.207   1.647 -0.2058 -0.0165 -0.0412
26971W        W42440  12.642  11.926  14.029  0.2241 -0.1173 -0.1599
26972W        W42441   1.517   2.968  14.127  0.0765  0.2215 -0.0785
26973W        W42442  12.480  10.024  11.531 -0.4698  0.1630  0.0536
26974W        W42443  15.002  12.404  14.218 -0.1499  0.0400  0.2460
26975W        W42444  15.839   3.017  12.116 -0.1915  0.4849 -0.0416
26976W        W42445  13.024   5.445  14.058 -0.0471  0.0059  0.3163
26977W        W42446   5.885  10.813   1.745 -0.0777 -0.0692 -0.1012
26978W        W42447  12.321   9.456   2.962 -0.0458 -0.1999  0.1392
26979W        W42448  16.790   8.058   2.154  0.2192 -0.2486 -0.0547
26980W        W42449  15.320   6.234   0.169  0.1680  0.4172  0.1844
26981W        W42450   3.159   6.164   4.306  0.2130  0.0848 -0.0544
26982W        W42451  10.927  11.695   5.281  0.2668  0.0405 -0.0797
26983W        W42452   5.414   7.792  12.033  0.3274 -0.0452  0.1451
26984W        W42453   6.134   4.425  15.496  0.1652 -0.0495  0.1251
26985W        W42454  14.734   9.059   2.884  0.0231 -0.0330 -0.3837
26986W        W42455   5.508  15.646   0.074 -0.2214  0.0327 -0.2128
26987W        W42456  17.518   7.818   1.175  0.1537  0.0583 -0.2099
26988W        W42457  11.591  13.309   1.308 -0.2245 -0.1459  0.1921
26989W        W42458  12.707   6.116   3.544  0.0198  0.4241 -0.2685
26990W        W42459  11.291   5.179  10.057 -0.2295  0.1614  0.0255
26991W        W42460  10.499   2.945  11.638 -0.0122 -0.1660  0.0356
26992W        W42461  16.652   9.502  14.276  0.1533  0.1615 -0.0218
26993W        W42462   7.464   0.810   1.152  0.1218 -0.0782 -0.1604
26994W        W42463   7.223   7.270  12.186 -0.1550 -0.1028  0.1464
26995W        W42464  17.983  17.577   4.185 -0.0873 -0.1652  0.1408
26996W        W42465  11.433   8.713  12.255 -0.3579  0.1108 -0.4277
26997W        W42466   7.115   6.723  12.359  0.0568 -0.1431  0.3086
26998W        W42467  12.133  14.254  13.427 -0.2588 -0.0376  0.2390
26999W        W42468  16.336   8.271   0.487  0.2532  0.0623 -0.2174
27000W        W42469   4.086  10.450   2.473  0.1673  0.0844 -0.0106
27001W        W42470   3.826  14.457   0.649  0.1076  0.0166 -0.0003
27002W        W42471   1.649   7.820   5.626 -0.2380  0.0764  0.1712
27003W        W42472  17.332  13.061  13.170 -0.1544 -0.0269 -0.1070
27004W        W42473   9.215   7.424   0.624  0.1360  0.0482 -0.1156
27005W        W42474  13.883   9.681   2.784 -0.1092 -0.1211  0.1457
27006W        W42475  11.291   1.242  10.477  0.1186 -0.1517 -0.1658
27007W        W42476   2.776   9.803  12.165  0.0762 -0.1440  0.0669
27008W        W42477  18.071   6.355  11.005 -0.0833 -0.2918  0.4121
27009W        W42478   4.442   6.420   0.768 -0.1788  0.2295 -0.0841
27010W        W42479  11.126   5.580  10.894  0.1200  0.1985 -0.0783
27011W        W42480   9.112   9.128   3.860  0.0437 -0.3250 -0.0087
27012W        W42481  10.464  18.457   4.206 -0.1664  0.2520  0.1822
27013W        W42482  10.969  11.364  11.483 -0.0260 -0.5337 -0.0132
27014W        W42483   0.527  18.565  10.129  0.1497  0.1545 -0.3274
27015W        W42484   5.211   3.481   2.759 -0.2127 -0.0792 -0.0251
27016W        W42485   1.809   6.583   0.227  0.0874  0.0467 -0.1041
27017W        W42486   2.311  12.135   3.206  0.1415 -0.3366 -0.2255
27018W        W42487   7.970   8.135  10.873 -0.1911 -0.2280  0.1658
27019W        W42488  15.130   8.095   3.202 -0.1291  0.1296  0.1651
27020W        W42489  10.155  15.373   1.444 -0.3286 -0.1413  0.2275
27021W        W42490  17.939  16.056   1.372 -0.1617 -0.0977 -0.2915
27022W        W42491   2.967  12.983   2.051 -0.0537 -0.0229  0.1014
27023W        W42492  15.142   6.088  12.219 -0.0717  0.0810  0.0178
27024W        W42493  16.978  11.910  14.559 -0.0996  0.0507  0.0626
27025W        W42494  13.534   1.530   5.074  0.3275  0.1363  0.5498
27026W        W42495  10.591  16.158  11.812  0.0617  0.1471  0.1596
27027W        W42496   0.480   0.584   1.752  0.1282  0.4712 -0.2806
27028W        W42497  14.040  13.775  12.406 -0.0763  0.3723 -0.0058
27029W        W42498   2.263   0.498  13.381 -0.1463 -0.4073 -0.0909
27030W        W42499   1.511  13.590  12.883 -0.1336 -0.0289 -0.0888
27031W        W42500   8.515   7.918   1.655  0.0671  0.1492  0.1534
27032W        W42501  17.454  12.750   1.857  0.0569 -0.1508  0.1297
27033W        W42502   1.603  13.950  11.688  0.2665  0.1231  0.1848
27034W        W42503   4.812   3.757   2.491 -0.2602 -0.0467 -0.1191
27035W        W42504  18.434  18.038   4.623 -0.0303 -0.1515 -0.3486
27036W        W42505   5.214   9.098   5.446 -0.3589 -0.0954 -0.3277
27037W        W42506   6.658   4.012   2.919 -0.1985  0.4283 -0.2424
27038W        W42507  10.157   6.670  15.698 -0.1343 -0.0199 -0.0137
27039W        W42508   7.761   7.550   5.066 -0.1511  0.0967 -0.0911
27040W        W42509   6.181   0.669   4.780 -0.2467 -0.0591 -0.1116
27041W        W42510  18.077  17.734   3.345 -0.0422 -0.1031 -0.0212
27042W        W42511   9.385   5.234  13.529 -0.2300  0.2084  0.0645
27043W        W42512  16.456  12.488   3.058  0.1079 -0.2193  0.0109
27044W        W42513   1.972   8.752  14.327  0.3939 -0.2312  0.1718
27045W        W42514  18.341   5.865   4.098  0.1290  0.1654 -0.1251
27046W        W42515  12.032  16.101   6.296  0.2006  0.4783 -0.1735
27047W        W42516  13.380   4.829   4.049 -0.0465  0.1446  0.4435
27048W        W42517   0.013   6.779   1.498  0.0231  0.3343 -0.1587
27049W        W42518  17.682  17.806   0.807 -0.0703 -0.3372  0.0872
27050W        W42519  10.572  10.333  12.659 -0.1789 -0.0790  0.0066
27051W        W42520   7.532   0.513   2.514 -0.1686 -0.3128 -0.2667
27052W        W42521  15.557  18.036   1.131 -0.0384  0.0037 -0.3391
27053W        W42522  10.411   4.295  15.733  0.0479  0.1141 -0.0375
27054W        W42523  14.358  12.408   1.767 -0.2595 -0.0676 -0.2140
27055W        W42524  13.980   9.065  10.187 -0.0758  0.1884  0.0304
27056W        W42525  17.109   9.881   3.090 -0.0120 -0.1528 -0.0580
27057W        W42526   2.916   1.428   0.861  0.2668 -0.0616  0.2381
27058W        W42527   3.235  16.841  14.169  0.0702 -0.0875 -0.1750
27059W        W42528   5.177   2.514  10.664 -0.0431 -0.0720  0.0791
27060W        W42529   4.061  17.555   2.023 -0.0816 -0.0490  0.0146
27061W        W42530  14.738   8.914   5.368 -0.0910  0.2887  0.0015
27062W        W42531   5.399   1.988  10.616 -0.2057 -0.1912  0.2211
27063W        W42532   3.662  18.494   2.655 -0.1869  0.2394  0.2411
27064W        W42533   2.523  14.042   3.877 -0.2920 -0.0745  0.0137
27065W        W42534  12.705   6.249   4.213 -0.0161  0.1314  0.1845
27066W        W42535   1.998   6.145   3.146  0.1239  0.3194  0.1965
27067W        W42536   5.148  18.134  12.506  0.2056 -0.2119 -0.1759
27068W        W42537   0.660  15.542   1.863  0.0530  0.0635  0.3435
27069W        W42538   4.887   6.517  12.722 -0.1387  0.1304  0.1295
27070W        W42539  16.046   9.507  13.908 -0.4030  0.0081  0.0429
27071W        W42540   8.074   0.246  13.472  0.1641  0.1222 -0.1160
27072W        W42541   5.519   4.773  12.639  0.1371  0.1876  0.0997
27073W        W42542   2.997   7.040  13.855 -0.0551 -0.0479  0.1967
27074W        W42543   6.017   9.692  13.072 -0.0610 -0.1834 -0.0646
27075W        W42544   3.260  16.541   4.940  0.0729  0.0784 -0.1704
27076W        W42545   0.085   6.904   1.929 -0.1471  0.1520 -0.1915
27077W        W42546   4.509   1.327   4.766 -0.0551 -0.3036  0.0124
27078W        W42547   8.305   7.069  11.997  0.0764 -0.0716 -0.1043
27079W        W42548   5.220   0.819  12.873  0.0577 -0.0808  0.0464
27080W        W42549  17.539  11.124   3.008 -0.2077  0.0126 -0.1508
27081W        W42550  12.744   6.835   4.249  0.4364 -0.2688 -0.3950
27082W        W42551   4.289  13.376  11.243  0.1892 -0.1662  0.0615
27083W        W42552   8.881  10.259  12.046  0.0641  0.0309 -0.1369
27084W        W42553   7.219  11.523   3.380  0.1191  0.2167 -0.0314
27085W        W42554   2.198   7.422   1.805 -0.3852 -0.1199 -0.1785
27086W        W42555  12.735  16.077  14.875 -0.1023 -0.3144  0.0333
27087W        W42556  10.568   0.721  11.677 -0.2146 -0.0282 -0.1076
27088W        W42557   0.393   1.967   1.755  0.2751 -0.2186 -0.0803
27089W        W42558   7.843   5.093  11.157 -0.0885  0.2339  0.1478
27090W        W42559  18.314   1.064  13.423 -0.1143  0.0365  0.2957
27091W        W42560  14.388  16.035   3.395 -0.2088  0.4038  0.1260
27092W        W42561   4.818   4.780   1.436  0.1723  0.0965  0.0497
27093W        W42562   1.229   9.668   2.236  0.3588 -0.1386 -0.2821
27094W        W42563   9.493   4.856   0.804  0.0229  0.0415 -0.1333
27095W        W42564   8.068  16.327   1.767  0.1606 -0.3021  0.0744
27096W        W42565  15.133   8.243  12.881 -0.0766  0.4377  0.0021
27097W        W42566   3.745   6.514   3.119 -0.0147  0.0604  0.0125
27098W        W42567  18.290   0.731   5.430 -0.1051 -0.0813 -0.3041
27099W        W42568  11.070  17.526  14.935  0.0261  0.0591  0.3063
27100W        W42569  12.360   6.340   5.018 -0.1818  0.1661  0.0041
27101W        W42570  12.192   6.114   4.109 -0.1315 -0.3315  0.1388
27102W        W42571  13.308  13.552   2.908 -0.0599 -0.0555 -0.2109
27103W        W42572   7.538   6.946  15.138  0.1348  0.2163 -0.1500
27104W        W42573  13.549  17.952   4.395  0.0077 -0.0358  0.0184
27105W        W42574  16.899  18.257  15.075  0.0488 -0.0542 -0.1625
27106W        W42575   9.709   0.711   3.238  0.4071 -0.2258 -0.1875
27107W        W42576  13.758  10.117  14.705  0.0145  0.2382 -0.2480
27108W        W42577  17.725   3.769  14.262 -0.0081  0.1213  0.0562
27109W        W42578   0.810   6.242   5.498 -0.2303  0.2157 -0.2449
27110W        W42579  12.885  11.333   3.098 -0.0663  0.3098 -0.3776
27111W        W42580   9.621  15.160   5.490 -0.1788  0.1344  0.3484
27112W        W42581   7.716   6.323   0.768  0.0822  0.1851 -0.1611
27113W        W42582  15.300  10.259   4.615 -0.3535  0.0257 -0.1474
27114W        W42583  15.273  17.020  12.499 -0.0111  0.1143 -0.2501
27115W        W42584  18.438   3.239  13.661 -0.0218 -0.1602 -0.2510
27116W        W42585   7.293   4.690   3.986 -0.0535  0.2684  0.0576
27117W        W42586   0.446   1.595   1.442 -0.1917  0.0347 -0.0915
27118W        W42587   8.821   5.483   5.404  0.2041  0.1704  0.2530
27119W        W42588  11.697   7.275  14.149  0.2122  0.1015 -0.1004
27120W        W42589   4.529   2.612   3.157 -0.1173  0.1712 -0.2861
27121W        W42590  15.229  12.723   4.971  0.2126  0.3952 -0.0851
27122W        W42591  14.310  16.926  14.486 -0.2965  0.1260 -0.0591
27123W        W42592   1.866  10.606   1.572  0.0205 -0.1639 -0.0732
27124W        W42593   7.949   1.204   3.466 -0.1657  0.4853  0.3707
27125W        W42594   9.114  13.912  15.385 -0.1782 -0.2650 -0.0924
27126W        W42595   8.085  16.881   3.226  0.2162  0.2927 -0.3512
27127W        W42596   2.313   9.207   3.937  0.4390  0.2607  0.2076
27128W        W42597   5.135  12.653  13.310  0.0622 -0.5985  0.4021
27129W        W42598   3.883   5.215   5.007 -0.3267  0.1769  0.0951
27130W        W42599  13.460   3.246   1.259  0.0122  0.0384 -0.2322
27131W        W42600  13.202   9.467   3.493 -0.1673 -0.2779  0.2143
27132W        W42601   2.087   4.871  15.581  0.0774  0.3907 -0.2222
27133W        W42602  12.090  11.757  14.731 -0.0281  0.0163 -0.1044
27134W        W42603   3.234   8.130   2.252 -0.4761  0.0507  0.0266
27135W        W42604  15.409  12.635   4.194  0.0676 -0.1542  0.5006
27136W        W42605   3.222  14.807   2.870  0.1123  0.0110  0.2098
27137W        W42606   6.956  13.821  12.762 -0.1919  0.2532  0.0634
27138W        W42607  12.418  10.805  10.501  0.1627  0.1413 -0.2209
27139W        W42608   5.392  16.930   1.886  0.2074 -0.0747  0.0854
27140W        W42609  15.900  16.800   1.661 -0.1296 -0.0979 -0.2374
27141W        W42610  15.197   9.645  10.711 -0.1771  0.1327  0.2977
27142W        W42611   9.506   2.878  12.565 -0.1327 -0.1169 -0.3934
27143W        W42612   9.498  11.115  13.985  0.0500  0.1260 -0.0949
27144W        W42613  13.640   3.364   3.229  0.0382 -0.2379  0.2967
27145W        W42614  15.275  15.133   5.433 -0.2270 -0.0779 -0.0580
27146W        W42615  17.962   2.838   0.210  0.1393 -0.1002  0.3353
27147W        W42616  14.354   5.295  11.959 -0.0065  0.2641 -0.2127
27148W        W42617   2.044   6.980   5.616  0.1038 -0.2080  0.0589
27149W        W42618  13.327  15.259   2.171 -0.1010 -0.3234  0.2943
27150W        W42619   8.013   2.377   5.124  0.0790  0.2795 -0.0161
27151W        W42620  10.345  15.009  10.734  0.2683  0.0975 -0.1787
27152W        W42621   9.471   8.340  12.819 -0.1994  0.3089 -0.0044
27153W        W42622   0.850   2.656   2.508 -0.0190 -0.2350  0.2787
27154W        W42623   9.643   0.910   3.754 -0.1983  0.1673 -0.3491
27155W        W42624   6.324   8.348  12.639 -0.1136 -0.0805 -0.2007
27156W        W42625   4.044   1.121   0.137 -0.2872  0.0078  0.1389
27157W        W42626   1.303  11.252  11.656  0.0757  0.0374  0.0626
27158W        W42627   1.500  16.475   2.008  0.1239  0.0296  0.1706
27159W        W42628  16.345   1.017  13.081  0.1206 -0.0272  0.0224
27160W        W42629   7.974   4.475  13.902 -0.0727  0.0908  0.1303
27161W        W42630   4.884   3.496  10.445  0.0018  0.0144  0.0355
27162W        W42631   1.482   3.403   5.352  0.2939  0.1795  0.1693
27163W        W42632  15.895  16.834  15.611  0.1710  0.0330  0.1437
27164W        W42633   8.324  13.171   3.675  0.1178  0.1248  0.3098
27165W        W42634   8.663  12.393  10.902  0.1216  0.2013 -0.0483
27166W        W42635   6.979  10.661   1.636 -0.0491 -0.0729 -0.2314
27167W        W42636  12.399  11.243   2.854  0.4707 -0.0604 -0.2946
27168W        W42637   4.334  15.345   0.840  0.2945  0.2560 -0.0937
27169W        W42638  16.563  10.168  14.098  0.1396  0.0544 -0.0333
27170W        W42639  11.147  10.338  15.533  0.0718  0.1019 -0.0609
27171W        W42640  15.698   5.547  11.458 -0.1000  0.3497 -0.3017
27172W        W42641   5.105   4.381   3.405 -0.2447  0.1916 -0.0411
27173W        W42642  11.871   8.971  13.106 -0.2259 -0.2628  0.1706
27174W        W42643  10.256   0.311   1.218  0.4746 -0.2950  0.0303
27175W        W42644  15.373  12.559   1.113  0.1997  0.1187  0.1241
27176W        W42645   7.953  14.453  11.189  0.2234  0.0956  0.0982
27177W        W42646  14.907   4.559  15.124 -0.2979  0.2362 -0.1976
27178W        W42647  10.101   5.759  11.385  0.1711 -0.3094  0.4556
27179W        W42648  16.025   8.093  13.883 -0.2096  0.3773  0.0913
27180W        W42649   0.935   3.567  12.809 -0.1615  0.0520 -0.0720
27181W        W42650   6.299   2.674   1.956 -0.3727 -0.4305 -0.0281
27182W        W42651  10.211  11.127   4.745 -0.0442 -0.1819 -0.1912
27183W        W42652   8.148  14.583  14.860 -0.2675 -0.1445 -0.3122
27184W        W42653   5.763  17.400   0.174  0.0502 -0.3858 -0.2258
27185W        W42654  11.249   5.676  12.304  0.1016 -0.1863 -0.2379
27186W        W42655  12.446   4.748   3.039  0.1899  0.0231 -0.2640
27187W        W42656   8.053   7.252  12.780  0.2118 -0.0957 -0.2161
27188W        W42657  13.476   0.017   6.190  0.0050 -0.2302 -0.3063
27189W        W42658   5.451   0.268   2.732 -0.0533 -0.0334  0.0558
27190W        W42659  11.576  11.558   4.533  0.0454  0.0087 -0.4259
27191W        W42660   2.812   2.023  13.789 -0.1561 -0.3248 -0.0322
27192W        W42661  15.560  14.781  15.141  0.0916  0.1366 -0.0629
27193W        W42662  12.706   0.790   5.888  0.0267  0.3973  0.0454
27194W        W42663  16.957  10.479   4.602 -0.3996  0.4231  0.1088
27195W        W42664   8.351   0.248  12.639  0.1526  0.2109  0.0313
27196W        W42665  12.906  16.747  15.580  0.0888  0.4189  0.3631
27197W        W42666  10.987  15.575   4.300  0.1544  0.0346  0.3159
27198W        W42667   0.040  13.234   4.588  0.1473  0.1241  0.2233
27199W        W42668   1.010   2.457   0.801  0.3827 -0.0525  0.0818
27200W        W42669  14.857   5.946   1.765  0.2727  0.3070  0.2624
27201W        W42670   8.800   9.925  11.114 -0.2266 -0.1424 -0.0135
27202W        W42671  11.438   1.605  10.805  0.0804  0.1346  0.1617
27203W        W42672  12.684   9.905   5.422 -0.0502  0.2682  0.1088
27204W        W42673   0.723  12.636  11.074  0.0163  0.1941  0.0844
27205W        W42674   0.805  16.122  11.981 -0.1307 -0.0428 -0.0941
27206W        W42675   0.778   2.668   1.961  0.0704 -0.1626 -0.3162
27207W        W42676   5.170  13.375   4.259  0.3521  0.1143  0.1250
27208W        W42677  18.339  17.928   4.104  0.0793  0.1487  0.3205
27209W        W42678   5.685   2.312  15.021 -0.1854 -0.2844  0.1527
27210W        W42679   4.240   4.625  13.958 -0.3841 -0.1646 -0.1663
27211W        W42680  13.095   2.323   2.866  0.0941  0.0340  0.0433
27212W        W42681   8.360  16.684  11.118  0.1444 -0.0455 -0.1517
27213W        W42682  13.841   4.898  10.695  0.1571 -0.2583  0.0671
27214W        W42683  16.381   5.865  12.876  0.0949 -0.1557 -0.0841
27215W        W42684   5.236  10.097   0.325 -0.1746  0.3615  0.0927
27216W        W42685  12.332   0.555   0.754 -0.0763 -0.0776  0.2293
27217W        W42686   1.975   3.970   4.266  0.0527  0.1160  0.3705
27218W        W42687  13.255  10.133  13.033  0.0464 -0.0433 -0.1831
27219W        W42688   7.583  12.020  10.771 -0.0535 -0.1685  0.3332
27220W        W42689  17.309  16.289  14.516 -0.1830 -0.0852 -0.2939
27221W        W42690   8.596   6.219   0.674  0.0650 -0.1859  0.3232
27222W        W42691  16.559  15.566  15.541 -0.0295  0.2757 -0.2219
27223W        W42692  17.084   1.719   3.415  0.0045 -0.1608  0.0835
27224W        W42693   1.681   2.497  13.945 -0.1135  0.2110  0.2621
27225W        W42694  17.459   2.926  12.889 -0.1291  0.2369 -0.1419
27226W        W42695  18.115   0.906   0.560 -0.1032  0.3226 -0.0191
27227W        W42696   1.133  17.850  15.282  0.0364 -0.3344 -0.0580
27228W        W42697   7.122   0.877  11.694 -0.3406 -0.5678  0.0467
27229W        W42698  14.355   4.974   5.184 -0.1777  0.3080 -0.2790
27230W        W42699   3.785   5.634   2.926  0.0824  0.2717  0.2433
27231W        W42700  18.624  17.507  13.140  0.1874 -0.1107  0.0102
27232W        W42701   0.352   4.412  11.132 -0.0788 -0.0723 -0.3629
27233W        W42702   3.930  13.427  13.692 -0.0440 -0.1560  0.2271
27234W        W42703   0.661   9.675   4.368 -0.0729 -0.3313  0.0374
27235W        W42704   9.688   0.187   4.328 -0.0628 -0.0879  0.0402
27236W        W42705  17.106   6.596   3.146  0.2385  0.1277  0.0576
27237W        W42706   8.960   4.692  13.518 -0.0106 -0.1018  0.1389
27238W        W42707  10.717  10.993  14.708  0.0632 -0.0167  0.0292
27239W        W42708   7.813  12.433   3.225  0.0128 -0.1286 -0.1059
27240W        W42709  13.786   5.907  13.488  0.1823  0.0469  0.2803
27241W        W42710  16.746  10.609  13.956 -0.3283  0.1961 -0.1599
27242W        W42711  16.528   9.203   2.483  0.1379  0.0312  0.0833
27243W        W42712   9.446   6.596  13.397  0.3227 -0.2706  0.0502
27244W        W42713   5.576  11.497   3.123  0.3077 -0.0149  0.1599
27245W        W42714  11.467  14.170  10.700 -0.0006 -0.1750  0.2291
27246W        W42715  13.800   6.866   0.515 -0.3584  0.1031 -0.0197
27247W        W42716  11.779   4.742  13.241  0.1860 -0.0243  0.0933
27248W        W42717  14.214   6.949  14.088 -0.0525  0.1430  0.1178
27249W        W42718  17.471   2.836   1.885  0.0531 -0.1494  0.1145
27250W        W42719   3.356   8.241   2.776 -0.0241  0.0531 -0.0961
27251W        W42720   2.441   5.905  12.809  0.1935 -0.0494 -0.0587
27252W        W42721  16.968   4.059  15.393  0.1860  0.0767  0.2246
27253W        W42722   3.870   1.543  13.277  0.0307 -0.0677 -0.0748
27254W        W42723   4.783  11.504  15.348  0.3504 -0.1683  0.0611
27255W        W42724  11.204  16.317   1.357 -0.2925  0.3087 -0.0208
27256W        W42725  12.249   4.588  13.712 -0.0293  0.1252  0.0725
27257W        W42726  12.875   3.282   2.708 -0.0535 -0.0125 -0.1231
27258W        W42727   1.181   6.293   9.906  0.1107  0.0349 -0.0019
27259W        W42728   6.094  17.219  15.579 -0.2072 -0.1253  0.0026
27260W        W42729  16.440  10.011  11.234  0.3734 -0.1774 -0.1262
27261W        W42730   9.158  12.420   1.459  0.1028 -0.1673  0.1488
27262W        W42731  11.434  15.608   0.365  0.0309  0.0901  0.0147
27263W        W42732   8.542  14.759  15.138 -0.1630 -0.3342  0.3248
27264W        W42733  17.431  13.855   6.061  0.0931  0.2355  0.1573
27265W        W42734  15.444   5.237  11.028  0.2221 -0.3065  0.0500
27266W        W42735  12.565   0.584   5.289  0.0123  0.1561 -0.3964
27267W        W42736   8.533  17.079   2.334 -0.1732  0.1918  0.0747
27268W        W42737  12.177  14.212  11.433 -0.0974  0.2418  0.0124
27269W        W42738  16.968   1.072   0.921  0.0305 -0.5091 -0.0506
27270W        W42739   3.209  10.710  13.846  0.0778  0.1181  0.0595
27271W        W42740  11.935   8.475   0.773  0.0125 -0.1209  0.1363
27272W        W42741  11.334   3.136   5.201  0.1570 -0.1397 -0.0320
27273W        W42742   5.173   0.523  13.906 -0.0797  0.0981 -0.3516
27274W        W42743   5.786   3.151  14.671 -0.2810  0.0537  0.5082
27275W        W42744   5.682   9.297  15.683  0.2072  0.1688 -0.0413
27276W        W42745  16.580   4.625   2.001 -0.0672 -0.0550  0.0947
27277W        W42746   1.139   9.705   0.639 -0.1228 -0.2076  0.0888
27278W        W42747  13.339  11.311  13.691 -0.2361  0.2324  0.0971
27279W        W42748  15.755   1.346   0.170 -0.1416  0.0699 -0.0296
27280W        W42749  17.684  13.751   5.100  0.3199  0.2195  0.1153
27281W        W42750   5.457   8.960  13.393 -0.0390 -0.1616  0.0916
27282W        W42751   0.917   1.546  10.714  0.1550  0.0862  0.1644
27283W        W42752   5.275   1.053  15.158 -0.3781 -0.0211  0.0169
27284W        W42753  17.058   5.714  13.848  0.1855 -0.2452 -0.2033
27285W        W42754  15.396   5.001  10.562  0.1525 -0.2444 -0.1869
27286W        W42755  10.840   8.489   3.191  0.0548  0.1043 -0.0034
27287W        W42756   4.190  17.153   3.398 -0.1500  0.1719  0.0143
27288W        W42757  15.290  11.413   5.452  0.1099 -0.0847 -0.0079
27289W        W42758  17.916   0.302  14.478  0.1261  0.0881 -0.0813
27290W        W42759  16.501  10.656  12.694 -0.3756 -0.2630  0.0081
27291W        W42760  14.831  16.575   0.022  0.0624 -0.0227 -0.0532
27292W        W42761   6.094  17.733  10.478  0.2938  0.0753 -0.1767
27293W        W42762  10.721   7.282  12.326 -0.0591 -0.1234 -0.2111
27294W        W42763  11.388  12.724  11.044  0.2447 -0.1757 -0.2179
27295W        W42764  10.293   0.701  14.496 -0.0839 -0.3766  0.0105
27296W        W42765   4.453  12.703   2.632  0.1040  0.1681 -0.2393
27297W        W42766   1.326  14.346   5.539 -0.1847  0.1786  0.2467
27298W        W42767   0.436  16.337   1.218 -0.1301 -0.0102  0.0892
27299W        W42768   2.463   7.488   2.239  0.1068 -0.2126  0.3187
27300W        W42769   1.845   7.288   1.021  0.0435  0.0812 -0.0518
27301W        W42770   7.856   3.653   2.467  0.2900  0.0325  0.2795
27302W        W42771  12.284  12.114  12.414  0.0594 -0.0309  0.1603
27303W        W42772  12.930   8.890   3.073  0.3916 -0.0280 -0.1245
27304W        W42773   4.945  16.275  10.812 -0.0386  0.2482 -0.0250
27305W        W42774  10.834   2.815   2.363 -0.1307 -0.0046  0.0913
27306W        W42775   7.675  10.890   2.915  0.2639  0.1646 -0.3925
27307W        W42776   4.975  17.959  10.908  0.0634 -0.0114 -0.0671
27308W        W42777   9.787   7.330   4.867  0.0693  0.0878 -0.0043
27309W        W42778   5.486  12.048   5.366 -0.2149  0.1934  0.2249
27310W        W42779  13.550   8.331   4.034  0.0316 -0.1062  0.0120
27311W        W42780   1.799  18.141   3.985  0.0563 -0.0424  0.1282
27312W        W42781   5.946  11.498   3.460 -0.3083  0.0558  0.0356
27313W        W42782   6.300  18.279  10.589  0.0354  0.2726 -0.3335
27314W        W42783   9.299   4.857  13.964 -0.2064  0.0824 -0.1458
27315W        W42784   1.464  18.564   3.217  0.0628  0.1644 -0.2358
27316W        W42785   6.531  11.894   2.497  0.0373  0.2179  0.1928
27317W        W42786  17.508   3.027   4.600 -0.2143 -0.0387 -0.2123
27318W        W42787   3.761  14.584   4.051 -0.0107 -0.2404 -0.5435
27319W        W42788   8.441   0.868  11.176  0.3554  0.0682  0.2139
27320W        W42789   2.004   0.983  10.650 -0.3046  0.2240  0.1515
27321W        W42790   3.929  14.320  11.140 -0.1849 -0.2314 -0.1285
27322W        W42791   7.894   8.835  13.318 -0.1033  0.1471  0.2604
27323W        W42792   6.097  10.044   3.016  0.0782 -0.1465 -0.1326
27324W        W42793   2.968   3.972  10.924  0.1113  0.0741  0.6573
27325W        W42794  11.352   2.582  12.621 -0.0127  0.0356  0.3480
27326W        W42795   4.948  17.837  13.571  0.1770 -0.0928  0.0534
27327W        W42796  15.332   6.993  12.433 -0.0251  0.2371  0.1802
27328W        W42797   5.618  16.948   0.872 -0.2197 -0.1494  0.4572
27329W        W42798  13.118   8.739   9.982 -0.1613 -0.1261  0.0062
27330W        W42799  13.364   8.016   3.108 -0.0387 -0.0412  0.0870
27331W        W42800   1.541  12.779   4.912 -0.0585  0.2435 -0.2927
27332W        W42801   4.059  17.198   3.869 -0.2384  0.1708  0.2115
27333W        W42802   9.007   8.994   2.770 -0.1761  0.0188 -0.1561
27334W        W42803  10.070   7.094  13.923  0.2987  0.1750  0.4088
27335W        W42804   9.085   4.014   0.720  0.0482  0.1188  0.2222
27336W        W42805   4.410  13.191  10.701 -0.2034 -0.2318  0.1052
27337W        W42806  12.670   9.408  13.422 -0.2189 -0.2695  0.0187
27338W        W42807   2.119   5.393  14.797  0.0124 -0.1260 -0.2119
27339W        W42808   5.609  12.490   0.063  0.0207 -0.0072  0.3017
27340W        W42809   2.413  18.370   3.401 -0.1599  0.2349 -0.1151
27341W        W42810  14.822  15.262  12.545  0.2368 -0.1072  0.2803
27342W        W42811  11.857   8.935  11.268  0.0934 -0.1726  0.0311
27343W        W42812   9.911   3.766   1.277  0.1234  0.4961  0.3523
27344W        W42813  11.716  14.317   4.095  0.0409  0.2470  0.0736
27345W        W42814  15.722   4.174  14.001 -0.1373 -0.1365  0.0906
27346W        W42815   5.800  15.953   5.046  0.0023  0.1137 -0.2076
27347W        W42816  16.453   4.504  11.068 -0.0328  0.1077 -0.1159
27348W        W42817  15.594  16.066  15.175  0.1434  0.3655 -0.1834
27349W        W42818   0.323   9.747  11.181  0.0186  0.2072 -0.1003
27350W        W42819  15.569  12.603   1.618  0.2011  0.0405 -0.0500
27351W        W42820   0.748   8.787  14.523  0.4278  0.1272  0.0430
27352W        W42821   4.330  10.604   3.382 -0.2877  0.0720 -0.0662
27353W        W42822   3.861  13.924   0.763 -0.0610 -0.0538 -0.0539
27354W        W42823   9.998   3.987  15.695 -0.3269 -0.0426  0.1440
27355W        W42824   2.897   7.320   2.003  0.3903 -0.3552 -0.2714
27356W        W42825   0.866   5.185  10.676 -0.2809 -0.0317 -0.0412
27357W        W42826  11.635   3.863  13.790  0.0801 -0.0728  0.0361
27358W        W42827  14.308  15.461   4.566 -0.0252 -0.1627 -0.2716
27359W        W42828   5.294   9.269  10.864  0.2997 -0.3679  0.0145
27360W        W42829   9.147  15.615   3.116  0.3925 -0.3634 -0.0092
27361W        W42830  14.744   0.915   9.736 -0.0810  0.1647 -0.0198
27362W        W42831   0.238   6.704   3.784 -0.0832  0.3419  0.0445
27363W        W42832  16.431  18.397   0.724  0.2643  0.3394 -0.1285
27364W        W42833  18.177  14.027  13.923  0.0982 -0.0268  0.1627
27365W        W42834   3.323  11.563  15.754 -0.2057  0.1813 -0.1283
27366W        W42835  11.029  17.681   1.448  0.1476 -0.2310 -0.0787
27367W        W42836  11.334   2.456   2.018 -0.0530 -0.3710 -0.1090
27368W        W42837   6.355   8.503  14.844 -0.4440 -0.0118 -0.2870
27369W        W42838  14.519  11.711  14.497  0.1090  0.3329  0.1052
27370W        W42839  15.343   0.043  11.119  0.1208  0.1536  0.0857
27371W        W42840  13.012   9.102   1.941  0.0004  0.3614  0.1036
27372W        W42841   5.363   0.401   1.565 -0.0926  0.1725  0.1209
27373W        W42842   9.237  14.868   5.209 -0.1799  0.0349 -0.0232
27374W        W42843  17.061   6.009  12.532  0.0829  0.1639 -0.0267
27375W        W42844  14.317   3.802  14.356  0.0777  0.1103  0.1311
27376W        W42845  15.827  13.540  13.787 -0.3937 -0.3162 -0.2051
27377W        W42846  10.120   2.721   4.951  0.0455 -0.3263 -0.0889
27378W        W42847   7.635  17.593  15.528 -0.1259  0.3872 -0.0755
27379W        W42848   2.767   8.333   4.050  0.1768  0.1489 -0.0161
27380W        W42849   7.427   5.921  11.748 -0.0707  0.0384  0.0613
27381W        W42850   9.235   1.658   0.976  0.0584  0.3043  0.2346
27382W        W42851   2.294   7.632  13.300  0.0124  0.1089  0.0358
27383W        W42852  12.516   3.835  12.494  0.0596 -0.0536  0.3115
27384W        W42853   5.352   7.702   4.497 -0.1833  0.1891  0.2995
27385W        W42854   2.948   6.050  13.723 -0.0613  0.0943  0.1344
27386W        W42855   1.142  14.835   3.532 -0.0108  0.3456  0.0799
27387W        W42856  15.809  11.897   2.674 -0.2296 -0.0403  0.1313
27388W        W42857  12.104   7.665   5.035 -0.0299 -0.1856 -0.0296
27389W        W42858  14.082  12.836  10.962  0.0780 -0.2241  0.1225
27390W        W42859  17.883   5.056  11.137 -0.2864  0.2406 -0.2484
27391W        W42860  11.890  11.779   1.665 -0.0300 -0.1752 -0.0007
27392W        W42861   5.798  13.732   0.366  0.1854 -0.1239  0.2267
27393W        W42862   2.088  16.988  14.570  0.0152  0.1206  0.0381
27394W        W42863   6.401   7.002   4.210 -0.1555  0.0252 -0.2082
27395W        W42864   7.900  18.651   4.580 -0.3093  0.1951 -0.1185
27396W        W42865   7.066   2.685  10.969 -0.1947  0.1187  0.0799
27397W        W42866   5.539  13.262   2.962 -0.0503 -0.1241 -0.0978
27398W        W42867   7.429   0.333  10.790 -0.2037  0.0778  0.1488
27399W        W42868   0.539   3.879   3.747 -0.1948  0.2550  0.4369
27400W        W42869   3.448  14.494  14.547 -0.1337 -0.0219 -0.2450
27401W        W42870  11.454  14.264   0.102 -0.1095 -0.2100  0.1542
27402W        W42871   6.552   1.787   4.004  0.3902 -0.0275  0.0544
27403W        W42872  13.477   3.955  11.807  0.3344 -0.1422 -0.0669
27404W        W42873   2.116  18.429   2.646  0.3345 -0.3732  0.4381
27405W        W42874   1.838   6.024  12.154  0.2877 -0.2605  0.1356
27406W        W42875   8.947  14.736  10.818  0.1739 -0.1812 -0.1791
27407W        W42876   9.779  14.174   4.854  0.2598  0.2315 -0.2255
27408W        W42877   4.301  16.609   4.457  0.2271 -0.1625 -0.1833
27409W        W42878   7.746  16.066  12.102  0.2475  0.2286 -0.2403
27410W        W42879  17.315   3.421   3.681 -0.3743 -0.0576  0.1775
27411W        W42880   1.589  17.780  11.777  0.0908 -0.3050  0.0336
27412W        W42881  10.904  12.796   4.516  0.1642  0.1181  0.1529
27413W        W42882   8.816   5.827   3.999  0.3987  0.0980 -0.0141
27414W        W42883   9.757  16.524   1.548 -0.1855 -0.0329  0.0516
27415W        W42884  13.967   1.867   3.322 -0.0066 -0.0855  0.1499
27416W        W42885   2.638   6.699   3.674  0.1887 -0.2532  0.2581
27417W        W42886  16.720   7.224  11.700  0.1342  0.1248  0.0437
27418W        W42887   0.826  16.016   1.397 -0.1489 -0.1421  0.1452
27419W        W42888  14.918  18.031  13.795  0.4708  0.3891  0.0995
27420W        W42889   7.688  13.708   5.312 -0.0597 -0.2820  0.0312
27421W        W42890   3.656   2.962   4.483  0.0321 -0.1307 -0.0139
27422W        W42891  11.943  11.987  14.314  0.1472 -0.2051  0.0800
27423W        W42892   0.365   5.147   9.996 -0.1471 -0.0243 -0.0220
27424W        W42893  12.477   4.280  12.724  0.4757  0.0999  0.3170
27425W        W42894   6.871   8.059   0.273  0.0602  0.0666  0.3563
27426W        W42895  12.184  12.231  14.876 -0.1842 -0.1016  0.0690
27427W        W42896  16.063   2.700  12.837  0.1257  0.1415  0.0048
27428W        W42897  14.734   0.448  10.451  0.0228 -0.3565  0.1211
27429W        W42898   7.474  10.279  12.029  0.1290 -0.2513 -0.1495
27430W        W42899   8.289   3.569   0.937 -0.0766  0.1826  0.1727
27431W        W42900   8.807  14.278   4.653  0.1177  0.2984  0.0175
27432W        W42901   2.542   4.098   1.046 -0.2572  0.2028  0.0663
27433W        W42902   4.485   7.461   1.890 -0.3001 -0.0733  0.0040
27434W        W42903  15.189   8.998  14.846  0.3272  0.0287  0.0247
27435W        W42904   1.149  10.738  10.812 -0.2038  0.0570 -0.1366
27436W        W42905   6.851   7.098  15.430  0.1185  0.4884  0.1123
27437W        W42906  15.951   1.846  14.568 -0.3184  0.3947 -0.1003
27438W        W42907   5.536  17.954  15.553  0.2944 -0.0619  0.0567
27439W        W42908  11.248   0.461   4.947 -0.1060  0.0983 -0.0424
27440W        W42909  13.545   5.711   5.067 -0.1131 -0.0743 -0.0388
27441W        W42910   9.262   9.322   3.036 -0.0236 -0.0415  0.2924
27442W        W42911  17.379  14.357  14.831 -0.2694 -0.0367 -0.3918
27443W        W42912   4.805   5.955  15.559 -0.3559  0.1455 -0.1210
27444W        W42913   7.454   4.372   1.712 -0.0607 -0.0958  0.0262
27445W        W42914   8.142  15.569   4.816 -0.1831  0.4593 -0.0758
27446W        W42915   4.621  16.947  11.728 -0.1059  0.0353 -0.0056
27447W        W42916   6.894  10.253  12.227  0.1734  0.1988  0.1534
27448W        W42917   9.403  15.947   2.611 -0.0829 -0.0535  0.2150
27449W        W42918  12.385  12.477   3.145  0.2119  0.0576 -0.1237
27450W        W42919  10.074   0.469   3.080 -0.0908  0.0797  0.3667
27451W        W42920   8.306   0.284  15.213 -0.0313 -0.2538  0.0554
27452W        W42921   4.448  12.583  12.553  0.2128 -0.0629 -0.0767
27453W        W42922   1.240   3.048  10.481 -0.0926  0.1800  0.3434
27454W        W42923   1.458  12.174   4.364  0.0870 -0.1867  0.0052
27455W        W42924   8.943   1.065  14.016 -0.2228 -0.2054  0.2253
27456W        W42925  15.693  12.230  11.411 -0.0078  0.0049 -0.3285
27457W        W42926   0.832  13.177  10.838  0.0106  0.0892 -0.4313
27458W        W42927   3.448   7.552  11.057  0.0244  0.1264 -0.0637
27459W        W42928  12.818  14.006  11.428  0.0785  0.0195 -0.2305
27460W        W42929  16.486   1.900   1.727 -0.0621 -0.0306 -0.0045
27461W        W42930  17.035   1.090   1.859  0.1950  0.0173  0.1033
27462W        W42931   6.788  11.696   0.159  0.3826  0.0821  0.0832
27463W        W42932  15.652   0.983  11.243 -0.1714  0.1417  0.5295
27464W        W42933  14.352  12.149   5.519 -0.0294  0.0724  0.0227
27465W        W42934   8.275   2.444   3.713 -0.1396  0.2290  0.1066
27466W        W42935   3.156  12.381   5.259 -0.2567 -0.0346  0.1140
27467W        W42936   0.257  16.089   2.055 -0.0785 -0.0235 -0.0281
27468W        W42937  17.230   8.420  15.295 -0.3374 -0.0774  0.0834
27469W        W42938   7.271   6.175  13.966  0.0818 -0.4472 -0.0190
27470W        W42939  14.273   2.505  14.157 -0.1078 -0.0372  0.0699
27471W        W42940  12.742   0.172  11.995 -0.0959 -0.0907 -0.1003
27472W        W42941   1.648  12.492  13.526 -0.0074 -0.0020  0.0429
27473W        W42942  16.573   5.828  14.593  0.1655 -0.0648  0.2145
27474W        W42943   4.361   3.067   3.383 -0.2303 -0.0080 -0.2145
27475W        W42944  18.094  11.249  13.822  0.3246 -0.4264  0.4296
27476W        W42945   8.931   6.970  12.554  0.1045  0.0107 -0.1056
27477W        W42946   5.821  10.284   2.498 -0.2362  0.1606 -0.0481
27478W        W42947   5.772  15.257  10.349  0.0964  0.3032  0.1204
27479W        W42948   8.375   0.813   2.236 -0.0197 -0.4822  0.0400
27480W        W42949   0.854   0.241  10.014  0.1068 -0.0967  0.0383
27481W        W42950   4.327   3.284   5.717 -0.1188  0.2227  0.3178
27482W        W42951   0.777  16.094   3.150 -0.1062 -0.1217  0.0372
27483W        W42952  13.195   9.618   0.270 -0.1049 -0.0597  0.0385
27484W        W42953   2.075   6.844   0.912  0.1059 -0.2767  0.1368
27485W        W42954  17.895   8.666  13.760 -0.1570  0.0146 -0.1946
27486W        W42955  14.725  13.663  12.188 -0.2657 -0.0413 -0.0006
27487W        W42956   1.338   9.770  10.765 -0.0644 -0.3356  0.0900
27488W        W42957   6.905  17.055  15.397 -0.1224 -0.0244  0.0267
27489W        W42958   3.870   2.504  11.373 -0.0388  0.0465  0.1486
27490W        W42959  14.521   5.196   5.657 -0.2460 -0.1272  0.1637
27491W        W42960  17.965  11.507   1.375 -0.0117 -0.0852  0.1590
27492W        W42961   0.482   0.538  11.112  0.0081 -0.1297  0.1234
27493W        W42962  17.346   8.758   1.649  0.0923  0.0005  0.1601
27494W        W42963   3.950  14.799   4.539 -0.3342  0.0816  0.0089
27495W        W42964   8.121   5.605   3.993  0.2763  0.0712 -0.0061
27496W        W42965   9.334   0.963   5.666 -0.1982  0.0535 -0.3691
27497W        W42966   6.031  17.858   1.537 -0.0274  0.0600  0.1067
27498W        W42967  14.246  14.551  14.030  0.0667 -0.0056 -0.0519
27499W        W42968   4.879   5.155   3.205  0.2497  0.1249  0.1877
27500W        W42969  14.842  13.638   5.248  0.2220 -0.3077 -0.1365
27501W        W42970   1.210  17.392   4.164 -0.0383 -0.0530  0.3980
27502W        W42971  15.857   8.554  15.449 -0.2499 -0.1722 -0.0097
27503W        W42972  14.477   0.648  13.186 -0.1687  0.0678 -0.1440
27504W        W42973  16.483   8.907  12.836 -0.3083  0.0307 -0.1116
27505W        W42974  16.458  14.282   9.683 -0.0664  0.3180 -0.0834
27506W        W42975   2.443  16.125  12.252 -0.2850 -0.0956 -0.1919
27507W        W42976   9.673   7.817  12.861  0.0299  0.2112 -0.0949
27508W        W42977   4.956   7.709   0.838 -0.1929 -0.0026  0.4718
27509W        W42978   6.978   8.150  13.509  0.0876  0.0535 -0.0024
27510W        W42979   2.836  11.581  14.461  0.0872 -0.0840 -0.0897
27511W        W42980   8.401   9.048  13.484 -0.2577 -0.0274  0.1835
27512W        W42981  16.984  17.908  11.131  0.0868  0.3694 -0.4107
27513W        W42982   4.246   3.198  13.979 -0.0961 -0.0443 -0.0444
27514W        W42983   1.839  17.669   3.881 -0.0458 -0.0616  0.1585
27515W        W42984   6.989  14.509   3.559 -0.4075  0.0825  0.1455
27516W        W42985   1.242   7.395  13.112  0.1574  0.2665  0.3400
27517W        W42986  10.584   2.644   2.718 -0.0244  0.1123 -0.0754
27518W        W42987   9.669   5.983   2.877  0.5554 -0.1553 -0.0230
27519W        W42988   4.146   5.760  13.370 -0.1363 -0.0823  0.1371
27520W        W42989   8.350  18.280  11.067 -0.2551  0.0366 -0.3052
27521W        W42990   9.155  16.238  14.748  0.0808  0.0606  0.3403
27522W        W42991   0.561  13.374   2.889  0.2040 -0.1583  0.3397
27523W        W42992   5.971  17.346  12.982 -0.0360 -0.0611  0.0770
27524W        W42993  16.964   1.913  10.345  0.1820  0.3903 -0.4591
27525W        W42994  15.602  11.533   4.146 -0.1913  0.0118  0.0413
27526W        W42995   7.250   2.826   2.338  0.1301  0.0273 -0.1044
27527W        W42996   7.474  12.980   4.911  0.2623 -0.1826 -0.3152
27528W        W42997   3.998  18.340  15.314  0.3557  0.2816 -0.0014
27529W        W42998   1.717   7.739  13.669 -0.2920  0.2074 -0.0547
27530W        W42999   2.052   5.945  14.741  0.1514  0.0058  0.1839
27531W        W43000   3.270   0.043  12.961  0.4101  0.1954 -0.1438
27532W        W43001   1.035   8.724  12.811 -0.1325  0.0260  0.1628
27533W        W43002   9.799   5.416  10.610 -0.0751  0.0532 -0.1869
27534W        W43003   9.372   0.437  15.393 -0.0938  0.4097 -0.1713
27535W        W43004   0.166   4.200  10.742  0.3287 -0.2196  0.0179
27536W        W43005   4.412   1.715   3.882  0.0277  0.3521  0.1242
27537W        W43006  11.223   5.178   3.030  0.3324  0.4090  0.2751
27538W        W43007  14.361   2.676   5.931 -0.3572  0.1073  0.0012
27539W        W43008  17.561  10.896  11.844 -0.0178 -0.1237  0.1103
27540W        W43009   7.583   8.770   4.445  0.5020 -0.2814  0.2293
27541W        W43010   1.190  11.279   2.931 -0.0224 -0.3602  0.0209
27542W        W43011   5.880  16.767   1.939  0.0094  0.0805  0.2680
27543W        W43012   7.898   4.072   4.867 -0.1213  0.2733 -0.0848
27544W        W43013   8.064  15.819  13.892  0.0654  0.1079  0.0924
27545W        W43014   8.159  14.964  11.227 -0.0930  0.0461  0.0954
27546W        W43015   4.508   3.592   0.981 -0.0049 -0.0611  0.1658
27547W        W43016   0.409  17.181  12.980 -0.0608 -0.1026  0.0073
27548W        W43017  11.301   3.439  11.923  0.0922  0.0471 -0.4131
27549W        W43018  14.744  12.833  14.175 -0.2667 -0.2924 -0.1539
27550W        W43019   0.398  17.823  14.672 -0.3291 -0.0762  0.0088
27551W        W43020   5.485  11.173   4.038 -0.2856 -0.1396  0.3440
27552W        W43021  10.477  14.600   5.162 -0.0618 -0.1007  0.1631
27553W        W43022  17.920  16.160   3.089  0.0677  0.2513  0.3162
27554W        W43023   7.269   0.772  14.939  0.1998  0.1724  0.0543
27555W        W43024   9.740   8.935  13.083  0.0497  0.1535 -0.1545
27556W        W43025   1.809  13.629  10.684 -0.1669  0.0050  0.2269
27557W        W43026   5.472  12.866  14.917 -0.0421 -0.1225  0.1568
27558W        W43027   7.933  13.604  15.049 -0.0810 -0.2639  0.0020
27559W        W43028   6.503  16.044   2.540  0.0714 -0.0230 -0.2966
27560W        W43029   7.574  13.301   2.964  0.0065  0.1677  0.1422
27561W        W43030  16.279  11.057  12.672 -0.1987  0.2723  0.4204
27562W        W43031   8.152   2.631   2.147  0.2305  0.2171 -0.0574
27563W        W43032  13.605   5.017   0.570  0.1825 -0.5068 -0.0983
27564W        W43033  15.784  14.096  10.392  0.2208  0.1448  0.2302
27565W        W43034  17.102  15.100   5.084  0.3398  0.2093 -0.2154
27566W        W43035   5.532  14.114   1.699  0.0087 -0.0221  0.1204
27567W        W43036  18.252  13.518  13.899  0.4255  0.0819  0.2873
27568W        W43037   9.924   4.172   3.025 -0.0017 -0.1516 -0.3652
27569W        W43038  10.929   7.330   4.685  0.0380  0.1344  0.0452
27570W        W43039   1.899   1.595  10.431 -0.0459  0.0075  0.0607
27571W        W43040  12.588  10.581  14.360 -0.1922 -0.4190 -0.1604
27572W        W43041  15.730   5.168   3.115 -0.0590  0.3637 -0.1934
27573W        W43042   5.537   8.322  15.139  0.1670 -0.0121  0.0611
27574W        W43043   2.805  11.117   5.236  0.1775 -0.1893  0.0497
27575W        W43044  18.206  16.484   0.212 -0.1222  0.4012 -0.1732
27576W        W43045   3.021  11.084  14.252 -0.0250  0.0050 -0.4253
27577W        W43046   5.739  10.738   3.800 -0.2486 -0.1378  0.0352
27578W        W43047   4.684  12.666  13.895 -0.2152  0.2495  0.0173
27579W        W43048  15.027  15.997   4.971 -0.2151 -0.0008  0.1647
27580W        W43049   0.124  14.320   1.225  0.0410 -0.1113 -0.0645
27581W        W43050  18.472   1.066  15.341 -0.0334  0.2481 -0.2265
27582W        W43051   0.966  18.667   5.650  0.0752  0.4241  0.1797
27583W        W43052   2.294   6.896  10.577 -0.0613  0.0870 -0.1782
27584W        W43053   2.167   0.418   4.135  0.3293  0.1600 -0.3185
27585W        W43054   9.896   7.644  13.299  0.2796 -0.3327  0.3485
27586W        W43055  17.694   7.186  15.591 -0.0688 -0.1164 -0.0216
27587W        W43056   9.448   4.275   0.503 -0.0555 -0.0551 -0.0637
27588W        W43057   5.437  10.849   4.563 -0.3226 -0.0686  0.1785
27589W        W43058   7.898   0.272   0.604 -0.2444 -0.1198 -0.0176
27590W        W43059  16.255  17.439  12.171  0.0033  0.3114 -0.3212
27591W        W43060  11.849   3.034  12.711  0.1131  0.0611 -0.5107
27592W        W43061   8.698   0.269  13.336  0.0040  0.0161 -0.1986
27593W        W43062   1.002  18.338  15.085 -0.1021  0.1353 -0.4368
27594W        W43063  11.704   4.659   1.890  0.0411 -0.2090 -0.0918
27595W        W43064   3.125   0.232  15.208  0.2398  0.1228  0.0537
27596W        W43065  13.994  14.315  10.034  0.0458 -0.1241  0.2566
27597W        W43066   8.444  17.844   4.013  0.1721 -0.0043  0.3248
27598W        W43067  13.644  13.523  13.404 -0.2024  0.3464  0.0621
27599W        W43068   5.349  17.061   0.414  0.4038 -0.1226  0.4469
27600W        W43069  13.923   6.717  11.213  0.1917 -0.1093  0.2364
27601W        W43070  17.644   2.967  14.763  0.2909 -0.0156 -0.0254
27602W        W43071   1.358  11.264  12.665  0.0424 -0.2749 -0.0123
27603W        W43072   3.936  15.095  11.548  0.1700 -0.0132 -0.0581
27604W        W43073  17.622   7.710   5.094 -0.1473  0.0789  0.0634
27605W        W43074   3.328   5.548   2.923  0.0053  0.0887  0.2199
27606W        W43075  13.365   5.138  15.501 -0.2422 -0.0818  0.1430
27607W        W43076  18.253   2.385   1.299 -0.1179 -0.1644 -0.1462
27608W        W43077  15.683   6.993  12.040  0.2624  0.0651  0.2153
27609W        W43078  17.831   6.996   0.857  0.1835 -0.1631  0.1848
27610W        W43079  15.498   4.068  12.479 -0.0395  0.3046 -0.0727
27611W        W43080   8.948   4.084   0.249  0.2457 -0.1997  0.0342
27612W        W43081  10.787   3.392  12.977 -0.1077 -0.1105  0.1865
27613W        W43082   2.826  16.661  13.978  0.1590 -0.0307 -0.0605
27614W        W43083  12.387   9.918  14.970  0.0963 -0.1820  0.0244
27615W        W43084  11.827   8.721   2.298 -0.1505 -0.0790 -0.2292
27616W        W43085   5.171   0.964   9.635 -0.1428 -0.0227 -0.0862
27617W        W43086  15.158  16.955   3.994  0.3133 -0.1150 -0.3810
27618W        W43087  17.557   1.123   2.725 -0.3312  0.0914 -0.2710
27619W        W43088   4.032  10.995  15.673  0.1897 -0.0064  0.0221
27620W        W43089   5.720   4.465  10.073 -0.0274  0.0772  0.2798
27621W        W43090  10.817  11.441   1.452  0.1675  0.1308 -0.0026
27622W        W43091   3.187  10.923   5.593  0.4071 -0.0108 -0.1403
27623W        W43092   9.080   2.984   3.794 -0.2807 -0.1513  0.0872
27624W        W43093   7.005  11.540  11.532  0.1739 -0.3558  0.0750
27625W        W43094  11.769  10.182   3.742  0.0867 -0.0062 -0.0225
27626W        W43095   1.010   7.517  14.734 -0.2834  0.0241  0.3580
27627W        W43096   3.645   1.748  13.813 -0.0089  0.0312  0.3931
27628W        W43097   2.080   0.361   4.633 -0.0339 -0.1506  0.0022
27629W        W43098   2.415   9.457  14.205 -0.2627  0.3818 -0.0092
27630W        W43099   5.000   2.728  13.714 -0.0996 -0.1096  0.3380
27631W        W43100  13.401   4.317   1.924  0.0050  0.1273  0.0915
27632W        W43101  13.906  10.610  11.377  0.0303 -0.0483  0.0103
27633W        W43102   3.492  15.836   2.350 -0.0862  0.1504  0.2422
27634W        W43103   4.247  14.237   0.929  0.2770 -0.2226  0.1877
27635W        W43104  10.915   7.240  13.387 -0.1804 -0.1007 -0.0634
27636W        W43105  15.994  10.488  15.307 -0.0198 -0.1849 -0.1493
27637W        W43106  11.646   9.782  13.042 -0.2996 -0.1762 -0.0905
27638W        W43107   8.913   6.537  13.635 -0.0183 -0.5815  0.2790
27639W        W43108  17.899  17.481   0.210  0.1156 -0.1950  0.0460
27640W        W43109  12.263   8.816   0.355 -0.1096  0.0208 -0.0779
27641W        W43110   8.430   8.539   1.027  0.0577 -0.3016  0.2680
27642W        W43111   9.287  17.462  14.664  0.2258 -0.2837 -0.0982
27643W        W43112  15.328  13.898   0.415 -0.1797 -0.2664 -0.0948
27644W        W43113  14.693  15.737  12.560  0.2762  0.2260 -0.1913
27645W        W43114  16.790   1.218   0.442 -0.0155 -0.1256  0.2416
27646W        W43115  15.180  14.353  15.094 -0.0060 -0.1154  0.1745
27647W        W43116   7.583  14.951   2.005 -0.5832 -0.0356 -0.1956
27648W        W43117   9.086   4.977  12.044 -0.2634  0.4463  0.0550
27649W        W43118  10.109   9.534  11.949 -0.1665 -0.0281 -0.1680
27650W        W43119   4.723  17.701   0.995 -0.0436  0.0811 -0.1154
27651W        W43120  11.450   4.768  14.927  0.1943 -0.3368 -0.4213
27652W        W43121  13.223  12.912   3.565 -0.0360  0.0432  0.0126
27653W        W43122   8.058   4.774  13.282 -0.1843  0.0925 -0.0006
27654W        W43123   6.372  13.366  13.885  0.0244 -0.1317  0.3856
27655W        W43124  15.708   0.025   3.366  0.3130 -0.1711  0.0468
27656W        W43125  14.985   9.809   4.863  0.1218  0.1062 -0.1275
27657W        W43126   2.043   4.185  11.623  0.3477  0.2526  0.1404
27658W        W43127   7.896   1.708  13.906 -0.4801 -0.1305 -0.1793
27659W        W43128   1.204   1.324   9.909 -0.0002  0.0771 -0.0051
27660W        W43129   8.028   0.104  13.953 -0.1611  0.1838 -0.1633
27661W        W43130  18.323   1.498  12.121  0.0092  0.0741 -0.5113
27662W        W43131   3.728  18.428   4.625 -0.0057 -0.0061  0.1831
27663W        W43132   6.385   8.682   3.796 -0.0424 -0.0334 -0.1884
27664W        W43133   9.261   1.613  14.763  0.1346 -0.1174 -0.2037
27665W        W43134  12.319  16.921   3.836  0.0447 -0.0791  0.0223
27666W        W43135   1.257   7.034  13.663 -0.2103  0.0375 -0.0492
27667W        W43136  18.446  16.879   2.413  0.0672 -0.1049 -0.0123
27668W        W43137   7.472   3.444   3.837  0.1092  0.4284  0.0153
27669W        W43138  13.762  16.208   1.608  0.1350 -0.1451  0.1798
27670W        W43139  15.279  14.697  11.353  0.1134  0.2724 -0.0517
27671W        W43140  15.737  12.072   4.724  0.0553  0.2578 -0.0000
27672W        W43141  10.933  12.032  13.652  0.2775  0.0044 -0.0728
27673W        W43142   0.208   2.480   0.293 -0.1504 -0.2231  0.1907
27674W        W43143   7.986   2.702   0.091 -0.1126  0.1943  0.0052
27675W        W43144   3.654  17.312  12.864 -0.0702 -0.2407 -0.2212
27676W        W43145   5.084   6.222   2.689  0.1007 -0.0885  0.0077
27677W        W43146   7.911   6.752  14.841 -0.0931  0.2599  0.2185
27678W        W43147   3.619  18.672  10.418  0.0004 -0.0721 -0.0070
27679W        W43148  15.965   9.296  11.040 -0.1165  0.0593  0.2960
27680W        W43149  16.128  14.577  13.823 -0.0657  0.0277  0.2292
27681W        W43150   0.647   8.560  15.727  0.0106 -0.0075 -0.0999
27682W        W43151   8.429  12.022   1.425 -0.1300  0.3958  0.0162
27683W        W43152   6.394   9.961   4.394  0.2133  0.1751 -0.2129
27684W        W43153   3.124  12.351   4.076  0.1356 -0.1280  0.1383
27685W        W43154   6.286  17.195   5.400  0.0128  0.0411  0.1464
27686W        W43155  15.844   2.307  14.546 -0.0348 -0.1338 -0.0695
27687W        W43156  14.925   7.544   5.337  0.0899 -0.0924 -0.1400
27688W        W43157  15.582   9.622  12.178 -0.0269 -0.0999  0.2570
27689W        W43158  18.349   1.302  14.236 -0.1286 -0.2605 -0.2568
27690W        W43159  16.375   3.761   4.921  0.1664 -0.1614  0.0715
27691W        W43160  15.608  12.117   1.039 -0.0504  0.1448  0.2434
27692W        W43161  12.798  15.279   4.904  0.0986 -0.0016  0.3471
27693W        W43162  14.601  11.246  14.659 -0.1628 -0.0678 -0.4867
27694W        W43163  12.823   7.275   4.399 -0.0159  0.1930 -0.3130
27695W        W43164  17.291   1.681   4.146 -0.0652  0.1462  0.0278
27696W        W43165   1.400   5.744   0.090 -0.0670  0.0131  0.1571
27697W        W43166   6.979  11.069  13.241 -0.0126  0.1399  0.0294
27698W        W43167   0.584   8.818  13.719 -0.0175 -0.0338 -0.0368
27699W        W43168   8.521   6.788  11.625 -0.1361 -0.1332 -0.1899
27700W        W43169  12.809   5.675  11.356 -0.0810 -0.1268  0.3938
27701W        W43170  12.776  18.457  15.548 -0.0790  0.4464 -0.1018
27702W        W43171  10.077   7.198   2.165 -0.2772 -0.1288  0.0231
27703W        W43172   5.748   1.343  13.635  0.0991  0.0866 -0.0071
27704W        W43173  18.495   2.101   5.664 -0.0949 -0.1372  0.1835
27705W        W43174  12.039   8.324  10.539 -0.0862  0.0291 -0.3122
27706W        W43175   0.786   3.174   0.514  0.2118 -0.0290  0.0984
27707W        W43176   7.604   8.450   1.991  0.0082  0.2003  0.0476
27708W        W43177   7.278   1.708   1.244 -0.0411 -0.0931 -0.0920
27709W        W43178  12.808   6.759  13.567  0.0216  0.3920  0.0450
27710W        W43179  16.390  14.026  11.920  0.0574  0.0509 -0.3498
27711W        W43180  15.355  15.174   2.971  0.2529  0.2109 -0.4222
27712W        W43181   5.987   7.444  15.477  0.0365  0.0080 -0.0342
27713W        W43182   1.683   1.445   5.386 -0.3467  0.0362  0.1379
27714W        W43183   5.805  14.109  12.343 -0.0153 -0.3314  0.1086
27715W        W43184   0.195   4.703  10.176  0.1388 -0.1271  0.4056
27716W        W43185  14.731  10.490   0.385  0.0709  0.0246 -0.1757
27717W        W43186  15.511  10.217  14.273  0.4539  0.1101 -0.1851
27718W        W43187  11.822   3.846   0.632 -0.0922 -0.1229 -0.0213
27719W        W43188   8.052  10.591   4.747 -0.0304  0.0963  0.2730
27720W        W43189  17.942   3.612  15.599 -0.0461 -0.2201 -0.1803
27721W        W43190   8.741  18.605  15.112  0.1369  0.3468  0.3968
27722W        W43191   2.434  13.736  11.491  0.0589  0.2105  0.5096
27723W        W43192   8.806  14.190  11.449  0.1408  0.0356  0.1560
27724W        W43193   8.744   0.490  12.291  0.0619  0.1522  0.0836
27725W        W43194   4.161  10.684   0.670  0.1309  0.0688  0.2282
27726W        W43195  12.051   3.361   9.696  0.4096 -0.1105  0.2130
27727W        W43196  13.058   6.786   1.720 -0.0605  0.1215 -0.1798
27728W        W43197   4.566  15.375   3.131 -0.1484  0.0368  0.1896
27729W        W43198   5.620   1.500  12.033 -0.3231  0.0150  0.0700
27730W        W43199  10.136   4.458   3.518 -0.1223  0.1276  0.0729
27731W        W43200   3.353  12.935   1.667  0.2803  0.2777 -0.1029
27732W        W43201   7.052  14.847   2.125  0.0173 -0.1371 -0.0572
27733W        W43202  18.658   9.382   1.769 -0.0557  0.1708 -0.2821
27734W        W43203   9.969   7.388  12.839  0.1603  0.1111 -0.0223
27735W        W43204   9.304  11.105  12.307 -0.0907  0.2223 -0.2884
27736W        W43205   7.873  18.446  14.464  0.1655  0.0919  0.3464
27737W        W43206   0.648  12.074   1.030 -0.0940 -0.1895  0.0692
27738W        W43207  11.673  14.845  12.976  0.2372 -0.3520  0.0382
27739W        W43208  13.817   7.543   3.854 -0.2032  0.0002  0.1086
27740W        W43209   4.695  17.511  14.429  0.0153 -0.2120  0.2670
27741W        W43210   4.880   2.866  12.750 -0.2424  0.3399  0.5028
27742W        W43211  12.472  11.545  11.655  0.1571  0.1597  0.3187
27743W        W43212  17.697   0.102   2.583 -0.3032  0.1507  0.3236
27744W        W43213   0.619  16.004   2.473  0.3110 -0.1960 -0.0545
27745W        W43214  15.500   6.576   5.438  0.0735  0.1276  0.0985
27746W        W43215   3.633  18.421   3.183 -0.3612 -0.0923  0.0383
27747W        W43216   0.803  15.086   4.249  0.0384 -0.3348 -0.0117
27748W        W43217   4.489  14.445   2.602 -0.2890 -0.0529  0.3229
27749W        W43218  10.240   3.217   5.868 -0.0119  0.1044  0.0313
27750W        W43219  16.092   3.333   4.645 -0.2525 -0.3748 -0.0648
27751W        W43220   0.258  16.253   2.947  0.1931 -0.1237  0.0631
27752W        W43221  13.384   0.083   3.859 -0.0927 -0.2748 -0.1879
27753W        W43222  10.746   0.888  12.098  0.4562 -0.2436 -0.0548
27754W        W43223  13.471  12.247  11.395  0.2088 -0.1915 -0.3015
27755W        W43224  11.987   2.249   0.952 -0.3118  0.0038 -0.0625
27756W        W43225   0.989   8.057   9.712 -0.0405  0.1978 -0.0470
27757W        W43226   7.162   4.318   1.160  0.1386  0.1860  0.3249
27758W        W43227  18.236  11.360   4.056  0.1379 -0.1921  0.0054
27759W        W43228   2.846   0.319  12.188  0.0881  0.2504 -0.0425
27760W        W43229  14.903  13.203   1.905  0.1962  0.1462  0.0634
27761W        W43230   3.220   0.480   0.922  0.0284  0.0683  0.1275
27762W        W43231  11.014   6.813  13.107 -0.0704  0.2069 -0.0879
27763W        W43232  10.038  13.919   4.266 -0.0607  0.0999 -0.1343
27764W        W43233   5.882   9.722   0.729  0.1959  0.6591 -0.1225
27765W        W43234  17.845  10.357  11.817  0.0994 -0.3795 -0.0061
27766W        W43235  18.481  16.770  12.057 -0.2801  0.3479  0.3253
27767W        W43236   8.004   9.769   3.393  0.0820  0.2784  0.1040
27768W        W43237   3.572   0.980  10.636 -0.1262  0.1132 -0.3597
27769W        W43238  17.834   7.156   2.903  0.1281 -0.2730 -0.0707
27770W        W43239   6.144  13.266   4.020 -0.0989 -0.0223  0.0393
27771W        W43240  17.349   1.673  15.295 -0.1474  0.1090  0.2016
27772W        W43241  13.017   8.441   4.428 -0.2788  0.1881 -0.2271
27773W        W43242   0.747  18.023   4.135 -0.0191 -0.0539 -0.2572
27774W        W43243  16.655   5.569   2.232 -0.0408 -0.1240 -0.2434
27775W        W43244  10.249  14.582   1.808 -0.1347  0.2298  0.2389
27776W        W43245  15.327   1.736   5.024 -0.1082 -0.2340 -0.3529
27777W        W43246   1.677   7.759  15.396 -0.3470 -0.0642  0.0490
27778W        W43247   4.625   2.624  13.385 -0.0245 -0.1424 -0.2901
27779W        W43248   6.801   7.678  14.480 -0.4408 -0.1216 -0.0623
27780W        W43249  13.089   8.512   1.534 -0.0556  0.0602 -0.0428
27781W        W43250  14.206  16.215  10.608  0.2680 -0.2010  0.1443
27782W        W43251   2.161   2.744   2.418 -0.0969  0.2041 -0.0229
27783W        W43252   3.028   7.405   4.216  0.1610 -0.1041  0.2396
27784W        W43253  12.258   8.063  11.407  0.1456 -0.4518 -0.0456
27785W        W43254   4.999   7.193  14.333 -0.0693  0.1370 -0.2139
27786W        W43255  10.923   3.039   3.567 -0.0422  0.0119 -0.2331
27787W        W43256   9.590   7.995  13.596 -0.1666  0.3003 -0.2848
27788W        W43257   0.145   6.461  10.637  0.3340  0.0867 -0.0623
27789W        W43258   5.294   1.869  11.832  0.2676 -0.1252  0.1678
27790W        W43259   2.330   5.469   5.755 -0.0352 -0.1049 -0.1250
27791W        W43260   6.235   3.514   3.536 -0.1692  0.0272  0.0460
27792W        W43261  10.966  14.853  13.477  0.0486 -0.0275 -0.0621
27793W        W43262  12.541  13.556   1.517  0.1745 -0.1440 -0.0210
27794W        W43263  15.477  12.195  12.115 -0.0222  0.2385  0.0603
27795W        W43264   1.365   4.780  10.665 -0.2096 -0.0155 -0.3289
27796W        W43265   0.887  13.137  15.272 -0.3184  0.0463  0.2202
27797W        W43266   2.346  14.694   2.890  0.0214 -0.2834  0.2671
27798W        W43267   4.690  11.543   1.965 -0.1032  0.0817  0.5331
27799W        W43268   4.701   3.483  11.553 -0.0793  0.2609 -0.2736
27800W        W43269  12.498  14.676   4.402 -0.1052  0.1447  0.2438
27801W        W43270  12.340   8.428   1.626 -0.2861 -0.0849 -0.0952
27802W        W43271   6.950   6.214   2.850  0.0241 -0.2079  0.0159
27803W        W43272   9.669  13.491   1.477  0.1646  0.1456  0.2747
27804W        W43273   4.211  10.157  12.508  0.0950 -0.0434 -0.1116
27805W        W43274  17.521   8.737   2.153 -0.0340 -0.2446 -0.1662
27806W        W43275  18.603   4.748  15.560 -0.2170  0.0010  0.1126
27807W        W43276   8.131   3.940  12.882 -0.0876  0.2511 -0.0299
27808W        W43277   4.085  14.041   5.182  0.0854  0.2102  0.1842
27809W        W43278   0.864   0.321   0.342 -0.1094  0.0392 -0.2319
27810W        W43279  16.630   7.809   0.947 -0.0216 -0.1739 -0.0759
27811W        W43280   1.401   5.961   4.049 -0.1209 -0.3131 -0.2722
27812W        W43281   2.755   3.501  15.658 -0.2860  0.0582 -0.0605
27813W        W43282  11.324  13.870   2.767  0.0926  0.0690  0.0215
27814W        W43283  17.702  12.775   2.794 -0.0227 -0.1573  0.2361
27815W        W43284   4.572  10.473   2.592  0.3548 -0.1460 -0.0570
27816W        W43285  11.926  11.074  10.474 -0.0533 -0.1818 -0.0322
27817W        W43286  17.406  16.718   1.724  0.0783  0.3213  0.0398
27818W        W43287  13.175   1.428   3.919  0.0283  0.1407 -0.2561
27819W        W43288   5.136   6.857  13.878 -0.0150 -0.1344  0.1557
27820W        W43289  12.128   9.645   0.477 -0.1920  0.0549 -0.1064
27821W        W43290   2.182   4.400  10.670  0.0545  0.2428  0.1758
27822W        W43291   4.679   3.959  14.434 -0.3997 -0.2301 -0.0768
27823W        W43292  10.628   6.102  13.858  0.0097  0.0058  0.3254
27824W        W43293  10.337   1.070  12.401  0.0272 -0.1382  0.1071
27825W        W43294  17.771  15.937  11.016  0.3036  0.2101 -0.3665
27826W        W43295  10.269  16.628   3.915  0.1205  0.2051 -0.0508
27827W        W43296  11.260  16.609   3.856  0.0297  0.0231 -0.1493
27828W        W43297   8.843   5.730   0.675 -0.3121  0.1415 -0.1739
27829W        W43298  11.381  10.253  13.794 -0.0283  0.2572  0.4708
27830W        W43299  14.355  10.727   0.170 -0.2774 -0.3882 -0.0029
27831W        W43300   0.874  12.634   4.073 -0.1468  0.2388 -0.0476
27832W        W43301  17.836  17.903   2.491 -0.0321 -0.1360  0.2073
27833W        W43302   5.280   9.440  12.326  0.0052  0.2457  0.1696
27834W        W43303  16.738   0.507  11.898  0.0845 -0.0037  0.1841
27835W        W43304   1.072  18.016   0.014  0.2393  0.0745 -0.0995
27836W        W43305  10.693  10.057   4.749 -0.1620  0.0782 -0.0021
27837W        W43306  17.248  16.707   4.791  0.1577 -0.3066 -0.3196
27838W        W43307   3.989   0.722   5.422  0.1215  0.1671  0.2856
27839W        W43308  16.296  16.524  13.937 -0.2736 -0.3302 -0.4769
27840W        W43309  17.399  11.658   4.445 -0.2069  0.2264  0.0488
27841W        W43310   2.584   2.296  10.596 -0.3784  0.3241  0.0974
27842W        W43311  15.393  16.840   5.032  0.0679  0.2112  0.1804
27843W        W43312   6.871   6.015  13.187 -0.0983 -0.1703 -0.1053
27844W        W43313  16.645  14.593  13.824  0.0403 -0.0390 -0.1257
27845W        W43314  16.343  17.675   2.583 -0.0852 -0.0561  0.1589
27846W        W43315   0.296   8.055   0.135 -0.1165 -0.1350  0.3966
27847W        W43316   4.995   5.388  13.811  0.1865  0.4626 -0.3042
27848W        W43317  18.067  13.262   3.555  0.0700  0.2064  0.0200
27849W        W43318   6.433  17.961  14.409 -0.1349  0.0572  0.3566
27850W        W43319   5.803   1.410   0.772 -0.1529  0.2316  0.0985
27851W        W43320   4.475   5.638  12.185  0.0898  0.3376 -0.1274
27852W        W43321   9.610  16.557  15.564 -0.2437  0.0047 -0.0144
27853W        W43322  18.465   5.510  13.198 -0.1920 -0.1451  0.0165
27854W        W43323  15.182  11.324   2.373  0.1769 -0.3620 -0.2747
27855W        W43324  16.284  11.964   2.901 -0.0720 -0.1465 -0.0658
27856W        W43325  16.307  12.643  11.921 -0.3176  0.1646 -0.1331
27857W        W43326   0.538  17.361  14.404 -0.2872 -0.0189 -0.2145
27858W        W43327   8.068  13.007   4.618  0.1958  0.0454  0.1538
27859W        W43328  17.029   7.978  14.211 -0.0752 -0.0100 -0.0700
27860W        W43329  15.557   3.995   2.565  0.2668  0.2799  0.1508
27861W        W43330  13.599   3.464  13.316  0.1139  0.0548  0.0648
27862W        W43331   6.224   1.923  14.790 -0.2073  0.0404 -0.2029
27863W        W43332  15.548   7.873   4.929  0.0137 -0.1770  0.0775
27864W        W43333  14.643  13.048   1.492  0.0340 -0.0185  0.0779
27865W        W43334  12.633   9.748   0.421 -0.1450  0.1781 -0.0346
27866W        W43335   2.742   7.851   0.081  0.2394  0.0369 -0.0723
27867W        W43336   5.293   2.224  12.740 -0.2853  0.0651  0.0259
27868W        W43337  14.735  16.715   9.939  0.0043  0.2404  0.0536
27869W        W43338   9.269  18.674  12.640 -0.0834 -0.0870 -0.1368
27870W        W43339  10.203  15.573  11.483 -0.0828  0.1430  0.0383
27871W        W43340   4.388  12.923  15.408 -0.2430  0.0342  0.0506
27872W        W43341   7.442  15.688   5.979  0.0338 -0.0769 -0.0868
27873W        W43342   3.197  10.110   4.760  0.1502 -0.0905 -0.0946
27874W        W43343   3.198   0.875   1.257 -0.1496  0.2797 -0.0791
27875W        W43344   9.681  14.428   3.485 -0.0160  0.0783 -0.1265
27876W        W43345   6.114   3.419  11.366 -0.1549 -0.1303 -0.0995
27877W        W43346  18.675   7.828   0.427  0.4555  0.0988 -0.2238
27878W        W43347   0.232  12.304  14.517 -0.1597 -0.0954 -0.3550
27879W        W43348   5.761   3.099   2.715 -0.0417  0.0498  0.0439
27880W        W43349   5.259   9.545   5.826  0.0682  0.1716 -0.0948
27881W        W43350   6.101  11.774  14.316 -0.2542  0.3950 -0.2202
27882W        W43351   4.178  11.929   1.056 -0.1603  0.1376  0.3817
27883W        W43352   6.904   7.723   4.521  0.2794 -0.1055  0.4036
27884W        W43353  17.967   3.277   3.287  0.0281  0.0508  0.2672
27885W        W43354   9.072  12.987   2.698  0.1653 -0.2070 -0.0980
27886W        W43355  17.234  17.353  13.059 -0.0414  0.0410 -0.0543
27887W        W43356   2.362   3.407   3.185 -0.1499  0.2663 -0.1564
27888W        W43357  14.799   7.140  14.770  0.0413  0.0717  0.1315
27889W        W43358  11.822  10.146   0.461 -0.0399  0.0741  0.0529
27890W        W43359  18.350  10.478   2.241 -0.3204  0.1560  0.0782
27891W        W43360   4.144   0.318  12.440 -0.1035  0.2888  0.2210
27892W        W43361   0.021  12.950  11.875  0.1338  0.2421 -0.0332
27893W        W43362  17.006  16.328   2.449 -0.0232 -0.0448  0.3016
27894W        W43363   7.173   5.632   0.880  0.1194 -0.5467 -0.1430
27895W        W43364  13.635   0.695  13.736 -0.0373  0.0684  0.2278
27896W        W43365   9.768  17.616   5.599  0.0126 -0.2091 -0.1188
27897W        W43366  15.154   0.746   0.887 -0.0285 -0.1196 -0.3207
27898W        W43367   8.117   5.069   3.084 -0.2480 -0.0900 -0.3037
27899W        W43368   0.844   4.634   2.335  0.2660 -0.1166  0.2143
27900W        W43369  17.875   4.674  12.815  0.1538  0.0421  0.2617
27901W        W43370  13.083  15.767   3.504  0.2474  0.2904  0.0538
27902W        W43371  18.516   3.664   4.144 -0.1744  0.1061  0.0605
27903W        W43372  11.256  15.525  12.475  0.2486 -0.0091 -0.2188
27904W        W43373   5.245  16.320  13.153  0.0621  0.1572  0.0050
27905W        W43374   7.339  16.877   1.879  0.2114  0.2267 -0.1448
27906W        W43375  14.145   7.426  15.730  0.1357 -0.2441 -0.0098
27907W        W43376  13.925  11.799  10.753 -0.4511  0.2713 -0.0743
27908W        W43377   3.928   7.310   1.851  0.2539  0.4609 -0.1935
27909W        W43378  18.343  11.819  15.138  0.0330  0.0030 -0.1912
27910W        W43379   2.485  11.389  10.518  0.0693 -0.3560  0.1313
27911W        W43380   8.912  18.464  15.608 -0.0616 -0.0386  0.0558
27912W        W43381  14.235  10.747  13.496  0.3457  0.0689 -0.0087
27913W        W43382  18.481   0.156  11.205 -0.0232  0.1666  0.4315
27914W        W43383  10.103   8.495  15.257  0.2565 -0.1388 -0.2095
27915W        W43384  12.766  18.227  15.074  0.2104  0.0858  0.0377
27916W        W43385  18.590  17.104  15.212 -0.1014  0.3159  0.1118
27917W        W43386   6.142   3.852   4.963  0.3544 -0.1106  0.2112
27918W        W43387  12.479   9.111   4.105  0.0218  0.0061 -0.2239
27919W        W43388   9.143  16.284  10.895 -0.3500 -0.0476 -0.0826
27920W        W43389  17.775  10.161  10.832  0.1376  0.1848  0.1336
27921W        W43390  12.671   8.858  14.484  0.1075 -0.2729  0.0154
27922W        W43391  13.595   1.418  12.095 -0.1755  0.2945  0.0036
27923W        W43392  15.993   1.303  14.029  0.1510  0.1275  0.1460
27924W        W43393  16.349   3.502  15.647  0.2061 -0.0369  0.1183
27925W        W43394  11.532   4.337  11.895 -0.0682  0.1669 -0.1328
27926W        W43395  15.181  11.918   1.216  0.2814  0.2701 -0.0067
27927W        W43396   1.706  11.574   3.739 -0.2189  0.1950 -0.3202
27928W        W43397   5.403  16.806   9.927  0.3487 -0.2003  0.0612
27929W        W43398   1.054   0.468  14.813  0.1460 -0.0999  0.1674
27930W        W43399  14.794   5.134   2.809 -0.2396  0.0490  0.0371
27931W        W43400   8.644   1.698  14.949 -0.1046 -0.4336 -0.0758
27932W        W43401   6.729  15.132  14.541  0.2324 -0.1213  0.0947
27933W        W43402   7.701  12.482   4.082 -0.1204  0.0197  0.1465
27934W        W43403   3.819   5.628   5.376  0.1984  0.3483 -0.1495
27935W        W43404  16.712  18.185  15.717  0.1382 -0.2527 -0.1152
27936W        W43405  14.395  10.149   0.182  0.3917  0.0664 -0.0515
27937W        W43406  14.904   6.848  12.724 -0.0752  0.3315 -0.0181
27938W        W43407   9.055   0.767   1.626  0.2193 -0.0038  0.1174
27939W        W43408   7.282   9.354   1.695  0.2416 -0.0856  0.2279
27940W        W43409  17.880   2.285  11.263 -0.0820 -0.3381 -0.0165
27941W        W43410  16.219  14.560  12.673 -0.0347  0.3697  0.1367
27942W        W43411  14.164   3.392   0.213 -0.2824  0.1550 -0.2491
27943W        W43412  16.899   5.477  12.258  0.2168 -0.0223 -0.1270
27944W        W43413   4.387  16.310  10.773 -0.0666  0.0656  0.2028
27945W        W43414  13.307  18.380   5.108  0.1981 -0.2452  0.0940
27946W        W43415  16.390  16.900  15.783  0.1887 -0.1299  0.0278
27947W        W43416  13.393   8.106   4.500  0.2278 -0.0090  0.0477
27948W        W43417   8.230   6.315  10.896  0.1937 -0.0822 -0.1325
27949W        W43418   8.172  11.403  11.685  0.0638 -0.1855 -0.0580
27950W        W43419   3.887   1.390  12.616  0.3982  0.1631  0.2125
27951W        W43420   2.429   2.023  14.131 -0.3315  0.0511  0.1112
27952W        W43421   7.089   8.895   1.428  0.0739 -0.3440  0.0127
27953W        W43422  18.218   6.016   5.834  0.1173 -0.0841  0.0453
27954W        W43423   7.042  16.138  13.270  0.1453 -0.2544  0.3188
27955W        W43424   4.440   1.321  11.503 -0.2337  0.1703 -0.2397
27956W        W43425  14.699  12.045  11.584 -0.1271  0.3075  0.1395
27957W        W43426  12.403  14.795   2.283  0.1591  0.3768 -0.1671
27958W        W43427   7.006   5.137   1.887  0.1238  0.2509 -0.2386
27959W        W43428   6.413  10.806   2.832 -0.2694  0.1154 -0.1085
27960W        W43429   8.517   5.007   4.429  0.0846  0.1685 -0.5142
27961W        W43430   3.660   5.040   2.289  0.1519  0.1146 -0.0293
27962W        W43431  12.689   6.555  13.059 -0.0146 -0.2031 -0.0635
27963W        W43432   8.854   6.004   3.500 -0.2237 -0.0108 -0.2732
27964W        W43433  12.925   2.814  13.806  0.0112  0.1717  0.1673
27965W        W43434  18.185   4.855  10.786 -0.1434  0.2546 -0.1356
27966W        W43435   6.144  15.024  15.750  0.0821  0.4028  0.1402
27967W        W43436  18.270   2.105   2.382 -0.1241  0.2537  0.0310
27968W        W43437   5.494   4.328   2.267  0.1694 -0.2364  0.3019
27969W        W43438  11.835  11.670   0.970  0.1060  0.2066  0.3341
27970W        W43439  13.583  16.457  14.417 -0.1952 -0.3491 -0.3835
27971W        W43440   5.163  18.309  15.739  0.0226  0.2496 -0.2204
27972W        W43441  11.774   7.822   0.030  0.0186  0.2641  0.1637
27973W        W43442   6.417   3.755  12.970  0.0688 -0.3735  0.4604
27974W        W43443  16.534  11.387  11.380 -0.0145  0.1076 -0.2073
27975W        W43444  14.253   6.118   4.083 -0.0269 -0.0811 -0.0404
27976W        W43445  10.200   2.240  13.404  0.2043 -0.0520  0.1278
27977W        W43446   2.838  16.600   1.626  0.2083 -0.2804 -0.2054
27978W        W43447   8.740  16.202  14.234 -0.2085  0.2698  0.2205
27979W        W43448   4.339   4.341  11.564  0.0466  0.1642 -0.2654
27980W        W43449   8.070   7.091  14.429  0.0475  0.1107  0.0416
27981W        W43450   9.130   6.441  12.641  0.0120  0.3075 -0.4309
27982W        W43451  12.601   4.812   9.939 -0.3110  0.0773 -0.0523
27983W        W43452  18.692   5.965  13.496  0.1632 -0.2377  0.0866
27984W        W43453   8.715  13.051  14.160 -0.1311 -0.0347 -0.2955
27985W        W43454  16.405  12.894   2.615 -0.4089  0.1327 -0.0295
27986W        W43455  16.693  12.326  10.819 -0.0985 -0.0083  0.0323
27987W        W43456  11.301  14.860   2.767 -0.1815 -0.0338  0.0350
27988W        W43457   4.246  16.236  13.462 -0.0163 -0.0873  0.4002
27989W        W43458   8.913   9.467   4.975  0.3848  0.1257 -0.2513
27990W        W43459  18.165   2.048  11.547 -0.4356 -0.0859 -0.0837
27991W        W43460   6.977   3.413  10.839  0.1882 -0.0536 -0.0936
27992W        W43461   1.849   7.750   1.862  0.0495 -0.0326  0.0142
27993W        W43462  15.807  15.030   2.913 -0.0164 -0.0380  0.0107
27994W        W43463   9.243   4.411  13.757 -0.0056 -0.1750  0.0987
27995W        W43464  14.958   5.543  15.398 -0.2287  0.0354  0.1699
27996W        W43465   9.232  16.266   4.447 -0.0609  0.1635  0.3061
27997W        W43466   1.215  18.018   3.260  0.0013  0.0962 -0.0102
27998W        W43467   0.343   4.227  12.074 -0.2595  0.1372  0.1676
27999W        W43468   3.757   0.395   0.662  0.0229  0.2022  0.1779
28000W        W43469   7.887  15.761   4.009 -0.1661  0.1125 -0.0454
28001W        W43470  18.462  12.718  12.489  0.2527 -0.2808 -0.0740
28002W        W43471  10.778   7.620  11.535  0.1632  0.2041  0.0249
28003W        W43472   5.737   4.505   3.570  0.2446 -0.3868 -0.0113
28004W        W43473   5.219   4.427  12.470 -0.2168 -0.0113  0.0398
28005W        W43474  15.753   5.739  13.740  0.2796  0.1297  0.2946
28006W        W43475  11.810   2.963  10.753  0.0962  0.0601  0.3197
28007W        W43476   8.822   6.618  14.495  0.2025  0.2589  0.1058
28008W        W43477  13.444  13.448  14.477  0.0268 -0.0378 -0.0289
28009W        W43478   9.261  13.719   4.143  0.2199 -0.2160 -0.1879
28010W        W43479  12.104   8.993  11.706 -0.4319 -0.2714  0.2092
28011W        W43480   1.609  12.244   1.179 -0.0495 -0.0268  0.0648
28012W        W43481   5.233  15.681  11.726 -0.2690 -0.1213  0.0990
28013W        W43482   0.582   4.411  12.517 -0.0266  0.1981  0.2392
28014W        W43483   7.667   9.120  12.232 -0.0607 -0.0162 -0.2808
28015W        W43484   2.236   3.329  12.634 -0.0153 -0.2065 -0.3853
28016W        W43485   7.976   3.115   1.647 -0.2830  0.0694  0.4443
28017W        W43486   6.645   8.812  14.517  0.1450 -0.2293 -0.0672
28018W        W43487   4.804   4.003  11.630  0.3348  0.3184  0.1640
28019W        W43488   7.272  14.318  15.447  0.0352 -0.1758 -0.2260
28020W        W43489  17.246  16.633   0.325 -0.2722  0.3303  0.1444
28021W        W43490  11.342  12.296  12.980  0.0480 -0.2572 -0.2045
28022W        W43491  13.267  12.857  13.137 -0.1628 -0.2114 -0.0789
28023W        W43492   9.740   9.679  13.176  0.0872  0.4056  0.0899
28024W        W43493   5.108   4.716   0.152 -0.1557 -0.1356  0.2887
28025W        W43494   1.169   1.158   2.791 -0.0389 -0.2777  0.0848
28026W        W43495   9.326  18.166  11.222 -0.0524 -0.0647 -0.0696
28027W        W43496  16.723   6.155   4.438  0.1197 -0.0595  0.3724
28028W        W43497  13.956  14.150  15.337 -0.0695 -0.2829 -0.1983
28029W        W43498  13.797   5.853   5.502  0.3438 -0.2157  0.0187
28030W        W43499   2.302  13.478   3.088  0.0982 -0.1610 -0.4508
28031W        W43500  16.953   9.508   3.363  0.0194  0.0067  0.1058
28032W        W43501   2.292  13.766   5.142 -0.0791 -0.1413 -0.0006
28033W        W43502   8.081   1.096   4.749  0.0955  0.0492  0.0138
28034W        W43503  13.098   6.778  12.174  0.1648 -0.1404 -0.0704
28035W        W43504   7.185   4.101   2.092  0.0035  0.1612  0.2530
28036W        W43505   3.692   8.578  13.063  0.0471  0.3049  0.1926
28037W        W43506   5.468   1.756   0.233  0.1004 -0.1230 -0.1502
28038W        W43507   0.750   0.025  11.034  0.2035 -0.0798 -0.0237
28039W        W43508  12.023   7.560   5.521 -0.1603  0.2098 -0.1749
28040W        W43509   4.499  17.572  10.254  0.2109  0.0002  0.0629
28041W        W43510   5.894  12.112  12.159  0.3123  0.1876 -0.0722
28042W        W43511  11.940  17.265  10.572  0.0483  0.2459 -0.3386
28043W        W43512   0.071  17.283   2.533 -0.2170  0.1062  0.2305
28044W        W43513   0.226   4.662  15.177 -0.2748  0.3645 -0.2931
28045W        W43514  15.791  18.029  12.714  0.2716 -0.0398 -0.2362
28046W        W43515  10.650  15.668  13.045 -0.0284  0.2958  0.0424
28047W        W43516  12.959  18.230  14.585 -0.1726 -0.2272  0.2228
28048W        W43517  17.949   6.726  15.584  0.1628 -0.0892 -0.1491
28049W        W43518  11.238   4.835   2.305  0.2636  0.0475 -0.1701
28050W        W43519  12.284   9.914  12.644  0.0290  0.3707  0.1193
28051W        W43520  17.998   4.520  13.388  0.2417  0.2223 -0.3779
28052W        W43521  16.244  16.572   1.266 -0.0529 -0.0720 -0.0223
28053W        W43522   8.661  16.889  13.042  0.0195 -0.0568  0.0460
28054W        W43523  18.223  13.952   4.156 -0.0509 -0.2280 -0.0969
28055W        W43524   1.254  10.491  12.549  0.2206 -0.1570 -0.1470
28056W        W43525   2.641  14.544  11.783  0.1298  0.0358 -0.2120
28057W        W43526   1.152   9.690   4.132 -0.1600  0.0698  0.3053
28058W        W43527   8.194   5.598  11.299 -0.3237 -0.0070  0.0203
28059W        W43528   9.277  15.114  14.925 -0.0685  0.2346 -0.1075
28060W        W43529   0.090  16.064   1.041  0.0140  0.0077 -0.0148
28061W        W43530  12.906   1.766  12.452  0.1574 -0.1675 -0.2660
28062W        W43531  12.010  13.446  12.434  0.0315 -0.1492 -0.0664
28063W        W43532  17.902   5.635   2.628 -0.2104  0.0706  0.1053
28064W        W43533  18.169   7.170  12.139 -0.2301 -0.2029 -0.0890
28065W        W43534   7.707   2.056   2.461  0.0346  0.0704 -0.0483
28066W        W43535   6.453  17.719   3.769  0.0373 -0.2100  0.3773
28067W        W43536   7.913  11.591  15.019 -0.1650  0.1290  0.0303
28068W        W43537  14.560  18.166   1.117  0.1538 -0.1785  0.2299
28069W        W43538   2.132  15.092  13.005  0.3763 -0.0068  0.1452
28070W        W43539  10.593  15.611   4.929 -0.0564 -0.0560  0.0332
28071W        W43540  18.035   1.456   2.696  0.1748 -0.1280  0.0962
28072W        W43541   6.512   2.150  13.261 -0.1115 -0.1177  0.1256
28073W        W43542  16.607   4.125  12.961 -0.0419 -0.2524 -0.1772
28074W        W43543   8.774   3.491   4.922  0.1523  0.3663 -0.0474
28075W        W43544   0.942   3.815  13.693  0.2814  0.0126 -0.2867
28076W        W43545  15.038  11.230  12.411  0.0734 -0.1560  0.1968
28077W        W43546   1.921  15.778   2.495 -0.1548  0.1056 -0.0882
28078W        W43547   6.284  11.539  11.284  0.1338  0.1429  0.1659
28079W        W43548   1.964   1.221  11.711  0.0934 -0.0656 -0.0279
28080W        W43549   0.257  17.534   0.596 -0.3187  0.1336 -0.0437
28081W        W43550  13.719   0.497   1.141  0.1735 -0.0758  0.0851
28082W        W43551  16.482  14.058  13.361  0.0006 -0.0313 -0.2156
28083W        W43552   5.225   4.114   2.620 -0.0568  0.0076 -0.0908
28084W        W43553   8.918  14.578  13.174  0.1664 -0.1498  0.1523
28085W        W43554   1.988  17.272  15.123 -0.0514  0.1603 -0.0538
28086W        W43555  17.474  17.485   4.325  0.0554  0.0245  0.0969
28087W        W43556   2.081   8.077  13.479 -0.0267  0.1212  0.2440
28088W        W43557  17.786  13.678  14.055  0.1015  0.1395 -0.0051
28089W        W43558   2.069  15.020  11.220  0.0730  0.0238 -0.2583
28090W        W43559  18.411   4.143   2.640  0.0968  0.2764  0.4052
28091W        W43560  13.922  10.289   1.507  0.0767 -0.2301  0.0375
28092W        W43561  13.587   3.156  10.739 -0.0220 -0.0245 -0.0142
28093W        W43562   7.665  12.888   5.641 -0.1086 -0.0524 -0.2968
28094W        W43563  15.015   6.043   0.983 -0.5105  0.1681 -0.2753
28095W        W43564   8.143   1.592   1.908  0.0812  0.0385  0.0786
28096W        W43565   7.917   3.182   2.832 -0.0881  0.0200 -0.0820
28097W        W43566   0.519   9.150   4.536  0.1259 -0.0645 -0.1882
28098W        W43567  12.192   3.181   1.374 -0.1225  0.1269 -0.1376
28099W        W43568  11.322  14.943   5.985  0.1433  0.0133 -0.0138
28100W        W43569   3.411  10.267   1.927 -0.1744 -0.0978  0.0441
28101W        W43570  10.571   6.624   0.106  0.2137  0.1733  0.0171
28102W        W43571  16.753   2.092  12.976 -0.4206 -0.1795  0.2806
28103W        W43572  16.774   0.349   2.283 -0.1071  0.2249 -0.0456
28104W        W43573   4.212   4.124   0.848  0.3316  0.1081  0.0764
28105W        W43574  17.234   7.041   2.964  0.0472 -0.1933 -0.0770
28106W        W43575   1.115   4.102  10.289  0.1840  0.0316  0.1493
28107W        W43576   3.987   5.166   0.870 -0.2179  0.0340  0.0689
28108W        W43577  10.472   0.693   0.960  0.2185 -0.1517 -0.0907
28109W        W43578   9.083  12.847   4.802 -0.1277 -0.2745  0.1517
28110W        W43579  18.162  14.918   0.705 -0.1110 -0.1292  0.0847
28111W        W43580  14.692  10.965  15.185  0.2496 -0.1740  0.1503
28112W        W43581   4.878   9.541   3.722  0.0031  0.0278  0.0720
28113W        W43582  17.567  17.392  11.072 -0.0509  0.0554  0.0875
28114W        W43583  10.790   4.570   1.861 -0.0123  0.3381  0.0229
28115W        W43584   9.610   8.927  12.600 -0.3515 -0.1855 -0.2032
28116W        W43585  10.558   9.597  14.903  0.1009 -0.0114  0.1177
28117W        W43586  17.468  17.941  10.665 -0.1314  0.2819  0.4212
28118W        W43587   7.672  17.996  10.701 -0.1340  0.2988  0.1081
28119W        W43588   3.288   3.939   3.355 -0.0981 -0.2891 -0.3146
28120W        W43589   5.671  16.844  10.770 -0.1616  0.1782  0.0021
28121W        W43590  10.915   2.849   0.581  0.0608 -0.1342 -0.0623
28122W        W43591  14.780  15.198   4.735 -0.0086 -0.0360 -0.0042
28123W        W43592  16.837   5.232  11.039  0.0237 -0.3048 -0.0398
28124W        W43593  12.078   3.409   0.339 -0.2219  0.2923 -0.0841
28125W        W43594   3.624  15.529  11.741 -0.2531  0.0073 -0.0260
28126W        W43595  16.686  13.572   5.594 -0.1414 -0.1929  0.1071
28127W        W43596  10.044  13.046   0.651 -0.2345  0.3314 -0.2088
28128W        W43597  18.273  16.306   1.741 -0.1514  0.0464  0.0320
28129W        W43598   6.001   5.211   5.904 -0.0635 -0.1894 -0.3031
28130W        W43599   0.810   1.614  12.802  0.0866  0.0432 -0.2827
28131W        W43600   2.557  13.623  13.022 -0.1435  0.0301 -0.0598
28132W        W43601   9.983   2.388  12.770 -0.1874 -0.1041 -0.0395
28133W        W43602  13.151  17.037  10.820 -0.1616  0.1668  0.0516
28134W        W43603   6.912  12.320  13.508  0.1031  0.0515  0.1392
28135W        W43604   5.493   9.828   2.402 -0.0610 -0.0880 -0.2119
28136W        W43605   0.216   0.636   4.753 -0.2036  0.1950 -0.1375
28137W        W43606  10.013  14.065  11.118  0.1893 -0.1701  0.0394
28138W        W43607  16.665   9.116  10.928  0.0014 -0.0239 -0.1114
28139W        W43608  12.608   3.383  15.412  0.2239  0.4449  0.3161
28140W        W43609   4.780  16.002  12.033  0.0965 -0.0059 -0.0000
28141W        W43610  17.134   3.351   1.248  0.1157  0.0678 -0.1595
28142W        W43611  14.703   1.295  14.478 -0.0387 -0.0865  0.3176
28143W        W43612   9.983  18.347  12.342  0.2194  0.1272  0.1149
28144W        W43613   4.401   4.830   2.117 -0.1500 -0.0770 -0.0824
28145W        W43614   8.324  14.212   6.293 -0.3187  0.2197 -0.2306
28146W        W43615   4.164  15.382  11.855 -0.0847 -0.2167 -0.2051
28147W        W43616  14.302   8.506   2.201  0.1433 -0.0432  0.0313
28148W        W43617   4.096   7.010  12.790  0.2233  0.1978  0.1076
28149W        W43618   5.417  18.338  12.141  0.0729 -0.0227  0.1225
28150W        W43619   7.832   7.544  11.487 -0.0117 -0.2315  0.1718
28151W        W43620   2.532  15.277   1.375 -0.0241 -0.0771 -0.3059
28152W        W43621  16.990   4.731  13.205 -0.3349 -0.2658  0.5170
28153W        W43622  10.096   5.310  12.953 -0.1073 -0.1497 -0.0927
28154W        W43623  18.369  15.783   0.706  0.0807  0.0661  0.1004
28155W        W43624  18.523  12.090  11.708 -0.2836 -0.0563 -0.3447
28156W        W43625  17.620   9.676  12.534 -0.2609 -0.1268 -0.1806
28157W        W43626   0.541   8.112   9.990 -0.0568 -0.1424 -0.0009
28158W        W43627  17.065   7.335   5.741 -0.1837  0.2345  0.2322
28159W        W43628  11.897   9.949  11.391 -0.2666  0.2643 -0.2353
28160W        W43629  13.195  11.359   3.636  0.2491 -0.0983  0.1536
28161W        W43630   1.764  17.512  12.409  0.1033  0.0738 -0.0909
28162W        W43631   5.451  11.068  11.446 -0.0558  0.2573  0.2509
28163W        W43632   2.608   7.199  11.966 -0.2792  0.1760 -0.0266
28164W        W43633   2.221   8.170   2.531  0.0759 -0.0007 -0.2055
28165W        W43634  11.578  11.935  11.100  0.0157 -0.2494  0.0184
28166W        W43635   9.689  18.630   3.891  0.1570  0.3850 -0.0316
28167W        W43636   9.886   9.544   0.686 -0.1071  0.0819 -0.0770
28168W        W43637  11.067  14.508   2.380  0.2312  0.0988 -0.3651
28169W        W43638   2.595   4.446   4.269 -0.1781 -0.0098 -0.0747
28170W        W43639   1.274  13.627   3.470 -0.1322  0.1846  0.0892
28171W        W43640  16.743   8.452   0.225 -0.2563 -0.1368 -0.2290
28172W        W43641  15.307   0.776  15.095  0.2612 -0.1115 -0.1954
28173W        W43642  12.924  14.896   2.289  0.0735 -0.0582 -0.2662
28174W        W43643   7.112   0.965  15.419  0.0115 -0.1430  0.0186
28175W        W43644   9.347  10.909   0.825 -0.0841 -0.0855  0.1947
28176W        W43645  18.438  13.261  14.285  0.0760 -0.0197  0.0373
28177W        W43646   0.095   6.615   5.193 -0.2587 -0.3263  0.1377
28178W        W43647  13.187   8.847   0.830  0.1306 -0.0070 -0.2660
28179W        W43648   3.978  17.176  14.070  0.0917 -0.2953  0.2011
28180W        W43649  10.796   3.845  13.968 -0.1910  0.1241  0.1071
28181W        W43650   0.487   8.392   0.925  0.0485 -0.2041  0.1775
28182W        W43651   5.828  17.851   4.851 -0.3018 -0.1010  0.0572
28183W        W43652   8.145  11.573   0.856 -0.0173 -0.0536 -0.2105
28184W        W43653  14.695  11.163  11.974 -0.0487  0.2900 -0.1565
28185W        W43654  15.369   3.341  13.634  0.2262 -0.1933 -0.2503
28186W        W43655   1.260   1.653  14.074 -0.1594  0.1227  0.0022
28187W        W43656   1.048   9.486  14.953 -0.2009  0.1268 -0.1948
28188W        W43657  10.128  13.484  14.565  0.0320  0.0735  0.0480
28189W        W43658  17.219  13.066   4.462  0.0680 -0.0286  0.0535
28190W        W43659   4.187   6.350   2.777 -0.2318  0.2053 -0.0493
28191W        W43660  15.552   6.342  15.181  0.1972  0.0462  0.2728
28192W        W43661  15.789   5.408   1.191 -0.3326  0.1956 -0.1280
28193W        W43662  15.451  13.138   1.880  0.1475 -0.3070 -0.0487
28194W        W43663  12.157  11.695   0.598  0.4751  0.1756  0.3256
28195W        W43664   6.480   3.507   4.653 -0.1553  0.0684  0.1945
28196W        W43665  11.862   1.549   3.795 -0.2998  0.1819  0.2352
28197W        W43666  11.247   0.614  13.669 -0.1011 -0.1476  0.1524
28198W        W43667   9.226  15.566  12.544 -0.2759  0.0878  0.2185
28199W        W43668  11.040  16.711   2.779  0.1989  0.0451 -0.1805
28200W        W43669  15.095  15.223  13.088 -0.1420  0.2942 -0.0767
28201W        W43670   9.343  17.341   5.214 -0.1688  0.3330  0.2502
28202W        W43671   7.315  18.275   3.032  0.0992  0.1359 -0.0052
28203W        W43672   7.034  17.272   0.502 -0.3743  0.2513  0.2012
28204W        W43673   2.853   1.661  14.240  0.2456  0.0266 -0.0017
28205W        W43674   0.476  13.962  12.175  0.0863  0.1298  0.1710
28206W        W43675   3.360  14.912   0.269  0.2750  0.0487 -0.1193
28207W        W43676  11.259   3.559   5.570 -0.1614  0.1894  0.0102
28208W        W43677   8.160   2.940  12.567  0.0341  0.2745 -0.2995
28209W        W43678   1.445   4.539   3.169  0.1233  0.0065 -0.4721
28210W        W43679  11.725   0.626  11.692  0.1406  0.0217 -0.0328
28211W        W43680   0.381  12.241  12.962 -0.0847  0.0305  0.1176
28212W        W43681   5.253  13.190  13.220  0.3687  0.0446 -0.0847
28213W        W43682   2.006  18.086  14.791  0.0587  0.1160  0.3648
28214W        W43683  14.105  16.637  14.147 -0.0056 -0.1209 -0.1413
28215W        W43684  17.948  11.989   4.809 -0.5975 -0.2113  0.1397
28216W        W43685  13.985   3.398  15.515 -0.2177 -0.0068 -0.0441
28217W        W43686  15.366  13.347  13.410  0.0329 -0.2102  0.2822
28218W        W43687  16.180   7.399  15.155  0.3095 -0.2782  0.1957
28219W        W43688  10.676   5.047   1.666  0.2059  0.1154 -0.3503
28220W        W43689   0.875  18.280   5.341  0.3455  0.2649  0.0582
28221W        W43690   7.922   4.962   3.589  0.0884  0.4113 -0.1079
28222W        W43691   9.092  18.596  11.423 -0.1397 -0.0587  0.0750
28223W        W43692   0.260  11.608   9.999  0.2125  0.0012  0.2652
28224W        W43693  11.036   5.016   3.825 -0.1312 -0.1374  0.2282
28225W        W43694  17.816   4.755   0.377  0.3391  0.0227 -0.0032
28226W        W43695   6.667   5.997   1.247 -0.0731 -0.0120  0.0415
28227W        W43696  18.221   5.075  13.182 -0.0757 -0.0879  0.2007
28228W        W43697   0.868  14.762  14.235  0.2023  0.1528  0.2804
28229W        W43698  10.703   7.907   0.977 -0.3197  0.2263 -0.1984
28230W        W43699  13.493  11.759   5.067  0.0138 -0.1008 -0.0706
28231W        W43700  18.082  12.971   0.559  0.2626  0.0596 -0.0323
28232W        W43701  16.030  16.699   4.407  0.0667  0.0103  0.2157
28233W        W43702   5.690  15.819  14.942  0.2804 -0.0595 -0.0882
28234W        W43703   6.708  11.797  11.859 -0.2493  0.0748  0.0135
28235W        W43704  10.317   1.079   5.086 -0.2123 -0.3065  0.0715
28236W        W43705  14.784  15.207   5.207 -0.0718  0.2545  0.1351
28237W        W43706   3.266  11.920  12.837  0.1889 -0.1992 -0.0005
28238W        W43707   8.104  17.533  15.556 -0.1234  0.1614 -0.0861
28239W        W43708  17.620   1.467   9.615 -0.0192 -0.3007  0.1009
28240W        W43709  11.557  18.236  14.468  0.5418 -0.1114  0.0102
28241W        W43710   7.300  14.448  11.543 -0.1068  0.1158  0.2922
28242W        W43711  14.801   4.084  15.068 -0.3032 -0.1710 -0.0050
28243W        W43712   7.166   5.963   4.150 -0.0614  0.3225 -0.2345
28244W        W43713   2.825   4.436   9.600  0.2433  0.1033 -0.0808
28245W        W43714  15.535  16.360   2.916 -0.0689  0.2206 -0.1719
28246W        W43715  15.770   5.918   3.424 -0.0037  0.1082  0.2042
28247W        W43716   5.816   1.222   5.867 -0.0427  0.6504 -0.2196
28248W        W43717  15.728  15.993  14.641  0.0454 -0.0825 -0.2564
28249W        W43718   8.605  16.962   3.184  0.0085 -0.1343  0.1696
28250W        W43719  12.148  17.404  14.924 -0.2129  0.1776 -0.3647
28251W        W43720   7.790  10.992   1.600 -0.1151 -0.0184  0.3702
28252W        W43721   2.842   8.484  11.132 -0.1397  0.2252  0.1960
28253W        W43722  13.765   4.362  14.252 -0.2365 -0.2871 -0.0287
28254W        W43723   8.883   8.465   5.068 -0.3941  0.2594  0.0145
28255W        W43724   2.809   8.375  14.012 -0.1638 -0.0772  0.0968
28256W        W43725  18.129   0.853   2.166 -0.3914  0.0713 -0.1854
28257W        W43726   9.817   7.701  11.453  0.0177  0.1632  0.1353
28258W        W43727  15.850   0.242   2.576 -0.0899  0.0432 -0.0165
28259W        W43728  18.658   0.936   0.538 -0.0935 -0.0247  0.0338
28260W        W43729  11.036   6.415  14.827  0.4111  0.1026  0.0295
28261W        W43730   1.962   5.025   3.444 -0.0911 -0.2660 -0.2826
28262W        W43731  14.000   1.535   2.857  0.0764 -0.1581 -0.0163
28263W        W43732   8.910  15.999   4.723 -0.0849 -0.2280  0.4310
28264W        W43733  13.067   9.531   5.322  0.0308  0.1670 -0.1879
28265W        W43734   2.063  17.598  11.965  0.1897 -0.0398 -0.0786
28266W        W43735   0.429   0.440  13.113  0.0977 -0.2359 -0.0329
28267W        W43736   1.387   3.742  14.875  0.1315  0.2702 -0.1365
28268W        W43737  11.974  12.710   2.367  0.0825 -0.0172  0.2865
28269W        W43738  10.036  16.270  14.628  0.0598 -0.1768 -0.1501
28270W        W43739   2.631  17.205  15.231  0.0761  0.0092  0.0067
28271W        W43740  12.323  18.042   3.994 -0.2511  0.0106 -0.1172
28272W        W43741  15.414  11.763   1.810  0.0912 -0.0174  0.0158
28273W        W43742   1.757  12.988  14.916  0.0394 -0.1290  0.0394
28274W        W43743   0.292  11.164  11.937 -0.1340 -0.0115  0.0741
28275W        W43744   6.975   2.296  13.066  0.0089  0.1286  0.1041
28276W        W43745  13.523   3.493  11.908  0.0762 -0.0013 -0.2319
28277W        W43746  11.836   6.741  11.319 -0.1329  0.1318 -0.0582
28278W        W43747  11.726  17.725   3.653 -0.2500 -0.0028  0.1271
28279W        W43748   1.786   9.911  12.015 -0.1905  0.3623 -0.0060
28280W        W43749  15.203   0.723   5.308  0.1524  0.2254  0.3140
28281W        W43750  12.525   0.199   1.234 -0.3415 -0.0909  0.1221
28282W        W43751  17.693  15.862  15.770  0.1548 -0.0418 -0.1918
28283W        W43752   3.781  18.375   3.728 -0.1766  0.1997  0.0310
28284W        W43753   3.601   5.480  15.305 -0.0278 -0.1429 -0.1426
28285W        W43754   4.101  13.702  14.862 -0.1182  0.1699  0.0561
28286W        W43755   2.063  17.567  15.516 -0.0294 -0.2738  0.0079
28287W        W43756   7.573  15.272  15.622 -0.1618 -0.2123 -0.0659
28288W        W43757   8.156  15.166  15.682  0.0898 -0.2463  0.1261
28289W        W43758   3.551   7.755  14.883  0.2968  0.2393 -0.0616
28290W        W43759   6.273   8.001  11.747  0.0864  0.4145 -0.1280
28291W        W43760  14.506  13.118  12.342 -0.1135 -0.4120  0.2467
28292W        W43761   8.106  14.509   2.614  0.0763 -0.0820 -0.1347
28293W        W43762   6.714   0.804  13.167 -0.2920  0.0655 -0.2091
28294W        W43763   3.383  10.796   3.220 -0.0213 -0.2136 -0.2489
28295W        W43764  14.478  12.325   0.577 -0.1437 -0.3459 -0.0495
28296W        W43765   9.699  11.038  15.213  0.0218  0.1525  0.2106
28297W        W43766  12.347  17.095  10.810 -0.3763  0.3721  0.3350
28298W        W43767   1.589   2.497   4.742 -0.0500 -0.0770  0.1525
28299W        W43768  14.226   1.030   3.476 -0.2849  0.3045 -0.0265
28300W        W43769   9.388   0.358   1.536  0.1824 -0.1790  0.2878
28301W        W43770  17.514   1.910  12.859 -0.2235  0.1891  0.0897
28302W        W43771  14.236  16.067   2.396  0.3566 -0.0542 -0.0998
28303W        W43772   5.435   0.527   4.380  0.0390  0.0508 -0.2314
28304W        W43773  17.242  13.338  14.723  0.2305  0.3165 -0.0484
28305W        W43774   1.917   9.839   0.060 -0.0761  0.1823  0.1083
28306W        W43775  15.199  10.425  12.375  0.3033  0.2940 -0.5239
28307W        W43776   9.162  16.318   4.962 -0.2066 -0.0646  0.5025
28308W        W43777   0.880   0.872   1.983 -0.2176  0.1122  0.1657
28309W        W43778   0.155  15.577   4.444  0.0459 -0.2670  0.0729
28310W        W43779   0.909  16.437   3.520 -0.1380 -0.1332  0.0749
28311W        W43780  11.031  13.261  13.347 -0.2127  0.1784 -0.0998
28312W        W43781   3.551   0.620   1.515 -0.3284  0.2416  0.0044
28313W        W43782   3.634  18.476  13.158  0.1401 -0.0308  0.4331
28314W        W43783  17.514  13.795   2.891  0.3638  0.0731 -0.0853
28315W        W43784   3.882  13.466   4.734  0.2088  0.0543  0.3236
28316W        W43785  13.146  10.202   2.294  0.0934 -0.2357 -0.0734
28317W        W43786   6.821  12.162   4.743 -0.0120 -0.2581  0.1661
28318W        W43787   5.470  11.699   3.642 -0.3065 -0.0372 -0.0587
28319W        W43788  13.691  11.467  11.087 -0.0778 -0.1318 -0.0855
28320W        W43789  13.829  16.317  11.484 -0.4860  0.5019  0.0551
28321W        W43790  14.848  12.587  10.799  0.0932 -0.1201  0.3448
28322W        W43791   1.828  10.691   5.058  0.3984 -0.0770 -0.1741
28323W        W43792  13.386   0.232   9.024  0.1368 -0.2186 -0.0733
28324W        W43793   1.696  11.481   4.746  0.2377 -0.0222 -0.0389
28325W        W43794  12.956   8.153  13.093  0.0455 -0.0317 -0.0960
28326W        W43795   1.527  12.088  12.197  0.1415  0.2759 -0.1023
28327W        W43796  18.173   6.576   5.131 -0.0715  0.0593 -0.0587
28328W        W43797  18.298   1.943  12.578 -0.0224  0.1865 -0.0233
28329W        W43798  16.178   9.719  12.973  0.2342 -0.2631 -0.2559
28330W        W43799  13.446   1.716  10.684  0.2518  0.1244  0.4807
28331W        W43800   9.560  14.131   3.058 -0.3049 -0.0265  0.0173
28332W        W43801   2.546  15.174   5.178  0.0521  0.1060 -0.0075
28333W        W43802  15.594  12.639   0.274 -0.0002  0.0855  0.1838
28334W        W43803   9.330  16.283   0.111  0.0744  0.1122  0.2562
28335W        W43804   5.652  10.521   5.745 -0.0648 -0.1234 -0.1984
28336W        W43805   6.931  10.754   3.686  0.3175  0.1514 -0.2508
28337W        W43806  10.604  11.346   5.090 -0.1337  0.0391  0.0494
28338W        W43807   6.641  18.298  15.205 -0.1595  0.1200  0.2409
28339W        W43808   3.805   8.806  13.525  0.1809  0.0698 -0.0854
28340W        W43809  18.563   8.751  12.052  0.2549  0.0347  0.1954
28341W        W43810  12.132   1.149  14.143 -0.0822  0.2826  0.0803
28342W        W43811  17.670   0.741  15.441  0.3994 -0.1072  0.1643
28343W        W43812  12.501   8.121  12.139  0.4871 -0.0687  0.2751
28344W        W43813  18.221   1.434   1.278 -0.0400 -0.0482  0.0668
28345W        W43814   1.909   5.232   1.982  0.1390  0.0265 -0.3852
28346W        W43815  11.929   9.823   2.888 -0.0777 -0.1316  0.0596
28347W        W43816   6.125  15.508  13.874  0.4367 -0.2051 -0.0360
28348W        W43817   1.264   1.886   0.402 -0.1695 -0.0709  0.1783
28349W        W43818  16.467   1.394   5.291 -0.1360 -0.1903 -0.1001
28350W        W43819   2.266   3.509   1.348  0.1567  0.4693  0.1344
28351W        W43820  13.588   8.618  15.453  0.1741 -0.2378 -0.1929
28352W        W43821  11.812  12.210   5.009  0.1721 -0.0220  0.0860
28353W        W43822   0.799  17.418  13.568 -0.0934 -0.0344  0.0865
28354W        W43823   4.841  14.352  13.557  0.3025 -0.3475  0.2876
28355W        W43824  11.700  18.314   2.951  0.3346  0.0496  0.4061
28356W        W43825   1.840  17.889   1.569  0.1499  0.0759  0.0578
28357W        W43826   5.345   0.724   0.270 -0.0459  0.0112  0.0833
28358W        W43827  14.726  17.551   5.120 -0.2497 -0.2389  0.0684
28359W        W43828  12.178  13.109  11.017 -0.0251  0.1867 -0.0294
28360W        W43829   8.843  12.128  11.959  0.1169 -0.1435  0.1590
28361W        W43830   5.453  13.587   3.908 -0.1066 -0.4254 -0.0793
28362W        W43831  17.378  14.633   1.080 -0.2179  0.3334 -0.1263
28363W        W43832   0.784   9.887   2.307 -0.0847 -0.2831 -0.2820
28364W        W43833   3.034  12.277  11.521 -0.3193 -0.2625  0.4144
28365W        W43834  11.803  17.080  11.566 -0.3251  0.1224  0.0872
28366W        W43835   7.046  14.971  14.140  0.0227 -0.2060  0.2107
28367W        W43836   5.385   4.207   0.131 -0.2178 -0.2415  0.1843
28368W        W43837   9.885   9.053   6.233 -0.1149  0.0451 -0.1619
28369W        W43838  16.780  13.614  14.713  0.2790  0.1004 -0.0432
28370W        W43839  18.094  17.773  13.417 -0.0554  0.3007 -0.0114
28371W        W43840  11.970  14.228  10.730  0.0860  0.1322  0.0719
28372W        W43841  13.936   5.558  13.957  0.0367 -0.1161  0.0566
28373W        W43842   6.551   8.890   0.149  0.2876 -0.0744  0.0285
28374W        W43843   7.884   1.215   1.712 -0.0332 -0.2861 -0.1461
28375W        W43844   5.598   6.015   3.398  0.1076  0.1399 -0.2423
28376W        W43845   6.176   8.438  13.082 -0.1637 -0.2091  0.0446
28377W        W43846   8.754  17.849  12.908  0.2469 -0.0874  0.0772
28378W        W43847  16.824  18.201  10.732  0.0219  0.1148  0.1331
28379W        W43848   9.881   8.962   2.426 -0.1276 -0.0419  0.1485
28380W        W43849  14.609  16.193  11.345 -0.2662  0.1576 -0.0676
28381W        W43850   4.931   1.822   3.817  0.0185  0.0529 -0.0298
28382W        W43851  18.137  14.544   3.391  0.0393  0.0059 -0.2277
28383W        W43852   4.577   3.231   1.815 -0.2163 -0.1384 -0.2123
28384W        W43853  11.581   8.081   1.963  0.5946  0.2315  0.2122
28385W        W43854   2.901   7.875  11.350  0.2446  0.0666 -0.1518
28386W        W43855   4.770  14.989  14.329  0.0054 -0.3413  0.0475
28387W        W43856  13.451  15.449  15.399  0.0391 -0.2427  0.0551
28388W        W43857  14.223   1.596  15.270  0.3835 -0.0411 -0.1326
28389W        W43858  11.531   2.883   2.543  0.2803 -0.3408 -0.2323
28390W        W43859   1.169  10.862   2.694 -0.3070  0.0990  0.2793
28391W        W43860  13.839  11.914  14.713  0.1302  0.1687  0.1039
28392W        W43861   3.487  18.100  10.290  0.1230 -0.0469  0.2690
28393W        W43862   7.804  12.163  13.263 -0.0742  0.3027 -0.0387
28394W        W43863  15.927   2.457   2.878 -0.2799 -0.0596  0.3225
28395W        W43864  13.431  10.246   3.295 -0.3019 -0.1192 -0.1113
28396W        W43865  16.905   3.566  11.342 -0.0354 -0.0368  0.3550
28397W        W43866   6.181   5.359  10.808  0.1526 -0.0323 -0.1835
28398W        W43867   3.066   8.634   4.956 -0.0193 -0.0570 -0.0139
28399W        W43868   5.493   1.763   4.912 -0.3078  0.1309 -0.2985
28400W        W43869  10.870  15.035   5.094 -0.0802 -0.0978  0.2112
28401W        W43870  12.134   2.920  14.308  0.1558  0.1173  0.2382
28402W        W43871   1.069   7.324   3.955 -0.0464  0.1535  0.1770
28403W        W43872  17.741   8.812  14.237 -0.0852 -0.1210  0.0569
28404W        W43873  11.398  12.556   4.966  0.1633 -0.2213 -0.5271
28405W        W43874  17.942   6.907  14.258  0.0638 -0.2693  0.2990
28406W        W43875   6.980  15.877   5.935  0.2759 -0.0834  0.2721
28407W        W43876   3.628  14.023   2.781 -0.4703 -0.0752  0.0274
28408W        W43877   7.832   8.692  12.553  0.1583  0.0518 -0.0499
28409W        W43878   8.471   8.217  12.762  0.0606 -0.1390  0.4001
28410W        W43879   7.613  12.702  14.791 -0.0220 -0.0373 -0.0260
28411W        W43880  16.398   1.817  11.625 -0.3206  0.1622 -0.0603
28412W        W43881  13.100  12.675   3.961 -0.0279  0.0385  0.2910
28413W        W43882   1.704  15.952  14.212  0.2919 -0.3583 -0.0142
28414W        W43883   7.334  13.785   4.662  0.1257  0.0251  0.1334
28415W        W43884   8.585   1.608   4.068  0.3603  0.0798  0.3100
28416W        W43885   9.591   0.321   2.086 -0.0891  0.1134 -0.2985
28417W        W43886   7.330  12.074  13.532 -0.3357  0.2391  0.0297
28418W        W43887  12.348   0.179  13.235 -0.3129  0.0418  0.1812
28419W        W43888  10.370  13.106   1.080  0.1966 -0.2160  0.2161
28420W        W43889   4.078   7.639  13.476 -0.1845  0.0302 -0.1584
28421W        W43890   0.896  10.179   1.046 -0.2128 -0.4348  0.0075
28422W        W43891  18.528  18.399   0.992 -0.1040  0.3924 -0.1019
28423W        W43892   0.752   2.030   1.255  0.5879 -0.0977 -0.2362
28424W        W43893   4.149  16.810  11.061 -0.2114  0.1632  0.4539
28425W        W43894   7.658   7.738   0.339  0.0469 -0.0244  0.0930
28426W        W43895   8.674  17.817   1.103  0.1516  0.0636 -0.2153
28427W        W43896   1.940   0.168  13.594  0.0798 -0.1194 -0.1664
28428W        W43897  17.146   6.420  12.831  0.0110  0.2897  0.1093
28429W        W43898   0.405   8.654   4.607 -0.1038 -0.1438 -0.3218
28430W        W43899   8.733   1.409   0.410  0.2008 -0.1247  0.1282
28431W        W43900   8.078  11.263  14.498 -0.1727  0.0066 -0.0401
28432W        W43901  16.360  18.533  14.096  0.0889 -0.0648  0.1643
28433W        W43902   2.475   4.398  14.822  0.1359 -0.0563 -0.1054
28434W        W43903   0.027  17.623  11.801  0.0481  0.0110 -0.2381
28435W        W43904   6.803  14.529  15.275 -0.1597  0.0468 -0.2268
28436W        W43905  11.428   9.917  11.447  0.0886 -0.1219  0.1734
28437W        W43906   4.457  16.124   0.524 -0.0322  0.3162  0.1615
28438W        W43907   3.685   7.356   1.420  0.2678 -0.1528 -0.2066
28439W        W43908  16.954   1.999  15.194  0.0588 -0.0855 -0.4211
28440W        W43909   3.232  16.718   4.127  0.2351  0.2345 -0.1999
28441W        W43910   1.579   3.956  13.051 -0.1000 -0.1010  0.1739
28442W        W43911  11.922  11.774   3.449  0.1987 -0.1335  0.1810
28443W        W43912  18.327  12.338  14.966 -0.1168 -0.1337  0.0823
28444W        W43913   2.830  15.104   3.099  0.0059  0.6446 -0.1082
28445W        W43914  14.696   4.877   0.030  0.0783  0.1316  0.0864
28446W        W43915   5.500   6.282   0.512  0.1558  0.2968  0.0705
28447W        W43916   2.888  12.964   0.983  0.0901  0.2650  0.0940
28448W        W43917   3.536   9.014  10.900  0.3309 -0.1727  0.2692
28449W        W43918   4.838   7.643  12.474 -0.1600  0.0790  0.0553
28450W        W43919   2.983  18.508  10.607 -0.1729  0.0025 -0.2218
28451W        W43920   3.483  11.147   2.897 -0.1739  0.2680  0.0348
28452W        W43921   1.429   3.022   4.940 -0.0393 -0.3447  0.1341
28453W        W43922   7.511  16.496  12.382 -0.0970  0.0343 -0.2261
28454W        W43923  16.800   5.752  15.430 -0.0553  0.0525  0.2782
28455W        W43924  10.200   0.417  13.491  0.0247  0.0854 -0.1296
28456W        W43925   7.527   5.398  15.689 -0.0743  0.3040 -0.1021
28457W        W43926   6.614   7.216  11.430  0.1407 -0.0533  0.0403
28458W        W43927  15.935   7.184   0.746 -0.0357  0.0469  0.2149
28459W        W43928   9.650  18.488   4.705 -0.0278  0.1077 -0.1805
28460W        W43929  15.812  14.241   3.449 -0.0595 -0.0453  0.0320
28461W        W43930   3.617   1.255  13.623  0.0345  0.0294 -0.0848
28462W        W43931   5.534  16.812  15.195  0.1584  0.2573  0.3293
28463W        W43932  13.653  10.030  10.524 -0.0668  0.5836 -0.0599
28464W        W43933   2.699  15.119  14.851 -0.0552  0.0849  0.0826
28465W        W43934   2.072   9.391   0.100  0.0326  0.2108 -0.3591
28466W        W43935   0.365   7.891  10.435 -0.1034  0.1248  0.0674
28467W        W43936  11.458  15.732  14.605 -0.1087 -0.1164  0.0734
28468W        W43937   1.823  18.349  15.117 -0.3385  0.1810 -0.5328
28469W        W43938   3.930  14.599  11.707 -0.4197  0.2745 -0.3349
28470W        W43939  13.749  11.148  12.289  0.1722  0.0038  0.1481
28471W        W43940   5.707  14.962  13.074  0.2075  0.2867 -0.0470
28472W        W43941   6.617   8.373  15.284  0.0532  0.1290  0.0255
28473W        W43942   8.457   0.718  11.676  0.0932 -0.3383  0.2469
28474W        W43943   7.482   6.325   4.156  0.2254 -0.3317 -0.4157
28475W        W43944  12.539   8.315   2.110 -0.1091  0.1476 -0.0095
28476W        W43945   3.054   1.968  13.321  0.2821 -0.2258  0.1812
28477W        W43946  13.347  10.778  12.227  0.0234 -0.0800 -0.0706
28478W        W43947  13.468  11.116   5.087  0.1292 -0.0687 -0.2671
28479W        W43948  18.179   6.903  11.115 -0.2543  0.4747 -0.0025
28480W        W43949  16.661   3.326   4.122  0.2865 -0.1571  0.4027
28481W        W43950  13.134   3.662  10.888 -0.3097 -0.5135  0.2997
28482W        W43951   0.984  10.843  13.382  0.1577 -0.0415  0.0724
28483W        W43952  13.744  14.308   4.613  0.3832 -0.3717 -0.2076
28484W        W43953  14.771   7.361   3.752 -0.3412 -0.0937  0.0277
28485W        W43954   9.682   5.522  14.377 -0.2032  0.3469 -0.0180
28486W        W43955  15.032  15.314  13.578 -0.2530 -0.0452  0.4521
28487W        W43956   3.384   4.009  13.745 -0.0411  0.1911 -0.0362
28488W        W43957   3.236  17.893   0.356  0.2605 -0.0740  0.1684
28489W        W43958   2.065  14.324  12.475  0.1734 -0.3005 -0.1501
28490W        W43959   3.866   2.035   2.307  0.1075 -0.1427 -0.1202
28491W        W43960  10.666   6.603  11.274  0.3106  0.0808 -0.2555
28492W        W43961   0.499  11.397   1.742  0.1117  0.0150  0.1083
28493W        W43962   4.850   5.756   2.737 -0.0098 -0.0077 -0.0686
28494W        W43963  16.026  13.040  11.920 -0.2132  0.2317 -0.1601
28495W        W43964  14.899  17.142   1.337 -0.0550 -0.2583  0.1613
28496W        W43965  16.147   5.889   0.375  0.2364 -0.0062 -0.0221
28497W        W43966   4.954  11.346  12.608  0.0925 -0.0874  0.2593
28498W        W43967   7.624  14.058  11.332  0.1003 -0.2480  0.1342
28499W        W43968  12.605   5.696  14.275  0.3112  0.0547 -0.3366
28500W        W43969  14.947   5.776  10.372 -0.0157  0.1290  0.0844
28501W        W43970   3.702  11.877  14.048  0.1590  0.2516  0.0918
28502W        W43971   1.531   7.234   4.237  0.0372  0.0584  0.3240
28503W        W43972   7.621   5.557  13.002  0.1558  0.0577  0.3652
28504W        W43973  15.629   0.389  15.674  0.0519 -0.1508 -0.0550
28505W        W43974   0.202   8.327  11.819 -0.0395  0.0861 -0.3691
28506W        W43975   1.381  16.305  14.060  0.0290  0.0271  0.2477
28507W        W43976   3.022   2.870   4.832 -0.0554 -0.0999  0.0871
28508W        W43977   5.564   9.051  12.218  0.0250  0.1078 -0.2311
28509W        W43978   7.590  11.864   3.225  0.0229 -0.1604 -0.1091
28510W        W43979   7.755   4.798  11.590  0.1120 -0.0431 -0.1683
28511W        W43980  17.331   9.986   0.783  0.0546 -0.0955 -0.2260
28512W        W43981   9.379  16.599   3.919 -0.2269  0.2065  0.0876
28513W        W43982  15.574   9.069   3.985 -0.1868 -0.0057  0.1220
28514W        W43983   3.948  17.688  14.662 -0.1147 -0.1537  0.1695
28515W        W43984   3.104  12.453   1.857  0.1765 -0.1319 -0.0567
28516W        W43985  15.201   4.480  13.700 -0.1349 -0.2099 -0.1504
28517W        W43986  16.328   3.028  12.226 -0.0162 -0.2490  0.2457
28518W        W43987   8.726   2.291  12.216 -0.0163 -0.0303  0.2574
28519W        W43988  18.382   4.256   3.163  0.2027  0.0337  0.2863
28520W        W43989   1.305   9.840   3.642  0.0729 -0.1109 -0.1892
28521W        W43990   0.751   6.996  10.624  0.4065  0.1218 -0.2310
28522W        W43991   9.203   7.338   2.643  0.2181  0.0518  0.0956
28523W        W43992   7.111   7.089  14.376  0.2736 -0.1389  0.1938
28524W        W43993  11.903  16.258  11.633 -0.0425 -0.0959 -0.2513
28525W        W43994   1.537  10.761   3.378  0.0247  0.3677 -0.0600
28526W        W43995  17.685   9.842   3.000  0.3663  0.4256 -0.2182
28527W        W43996  11.417   6.458   4.134 -0.1078  0.0153  0.1938
28528W        W43997  16.676   7.519   3.640  0.2258 -0.0212  0.0252
28529W        W43998  12.841  12.171   5.538  0.2990  0.0436  0.0898
28530W        W43999  11.718   9.271  12.124 -0.1872 -0.0621 -0.0827
28531W        W44000   6.526  15.622  12.954 -0.1953  0.0215 -0.0136
28532W        W44001  14.015   7.441  13.740 -0.0657 -0.1684 -0.1809
28533W        W44002   9.075  17.428  12.209  0.1735  0.0928  0.1236
28534W        W44003   0.994   3.422   2.588  0.3327  0.0201 -0.3758
28535W        W44004  17.256  16.865   4.294  0.1285  0.3673 -0.0596
28536W        W44005   2.928   4.947   0.792  0.0137 -0.0837 -0.1217
28537W        W44006  15.842  17.695   2.999  0.2571  0.0180 -0.3147
28538W        W44007   8.101  14.729  13.007  0.1103  0.0645  0.3565
28539W        W44008  10.057   9.039  14.392  0.0623  0.0315 -0.1679
28540W        W44009  14.336   3.724  13.488  0.0057 -0.4574 -0.2835
28541W        W44010   9.478  14.065   5.252  0.1289  0.2202 -0.0562
28542W        W44011   3.194  14.142   4.391 -0.2149  0.0060  0.0803
28543W        W44012  10.029   1.879   0.319 -0.0172  0.0869  0.3790
28544W        W44013  11.486   9.280  13.112  0.2121 -0.3066 -0.3393
28545W        W44014   9.247   9.116   1.702 -0.2923 -0.2058  0.2003
28546W        W44015  10.762  10.679   2.335  0.2866 -0.2043 -0.1272
28547W        W44016   1.815   1.578   4.910  0.0972  0.0673 -0.6197
28548W        W44017   9.353  16.154   5.433 -0.2390  0.0167 -0.1334
28549W        W44018  12.851   4.946  11.792 -0.0201  0.4439  0.2072
28550W        W44019   6.632   7.696   4.972  0.1349  0.0833 -0.2271
28551W        W44020   7.902   3.860   4.246  0.1982  0.0298  0.4403
28552W        W44021  10.574  17.508   1.269  0.1127 -0.2648  0.0419
28553W        W44022   4.596   7.084  11.903 -0.1557 -0.1146 -0.0458
28554W        W44023  16.399   3.687  10.589  0.0976 -0.0199  0.1791
28555W        W44024  15.027   9.405   2.798  0.0312  0.1063  0.4056
28556W        W44025  15.177  11.387   3.768 -0.0643 -0.0622  0.4661
28557W        W44026  11.820  14.126   4.599 -0.2510  0.1978 -0.2744
28558W        W44027  15.318  13.603  14.463 -0.0225 -0.1607 -0.1178
28559W        W44028   2.744  13.197  12.766 -0.3877  0.2609 -0.0735
28560W        W44029   5.333  18.305   4.022  0.0168  0.0566 -0.0725
28561W        W44030   8.309   0.049  10.829 -0.1201 -0.0874 -0.0603
28562W        W44031   8.910   1.741  12.061 -0.0630  0.0733 -0.0826
28563W        W44032   9.634  13.031  12.692  0.1046  0.1628  0.0118
28564W        W44033  11.133   4.413   0.722  0.4436  0.0540  0.1691
28565W        W44034   5.666  15.043   5.433 -0.0425 -0.0805 -0.0182
28566W        W44035  12.751   8.933  13.578  0.1546 -0.1809 -0.0364
28567W        W44036  17.477   1.745   5.052 -0.0667 -0.0566  0.1950
28568W        W44037  17.461  17.069  10.566  0.0801 -0.0711  0.2417
28569W        W44038  13.076  18.507  11.089 -0.2280 -0.4884  0.1312
28570W        W44039   9.366  16.907   4.574 -0.1570  0.1135 -0.1430
28571W        W44040  14.215   7.594  11.248 -0.2044  0.0472 -0.1394
28572W        W44041  17.757  18.017   1.951  0.0117 -0.1579  0.2816
28573W        W44042   4.996  13.063   0.722  0.0502  0.0438 -0.0118
28574W        W44043   0.728   6.699  12.358 -0.2303  0.1305  0.1979
28575W        W44044   6.122   2.445  15.347 -0.0273 -0.1570 -0.0912
28576W        W44045   3.560   1.215   0.531 -0.1981 -0.0618  0.1988
28577W        W44046   6.200   9.478  11.266 -0.0625  0.0945 -0.1288
28578W        W44047   5.804   4.491   0.061  0.0045 -0.0140 -0.2798
28579W        W44048   3.111   1.738   0.107 -0.1220 -0.0796 -0.0000
28580W        W44049  11.010  10.703  12.431  0.0190  0.1850  0.0013
28581W        W44050   1.023   7.248  15.205 -0.0865 -0.3752  0.1100
28582W        W44051  12.465   9.405   4.719 -0.1209  0.2506 -0.2941
28583W        W44052   1.902   2.763  14.425  0.2179  0.1561 -0.1917
28584W        W44053  16.601   9.742  12.692 -0.1325  0.2505  0.1389
28585W        W44054  10.788  12.914   1.284  0.1270  0.2280  0.2604
28586W        W44055   4.192   5.771   3.433 -0.0082  0.1274  0.0147
28587W        W44056   8.173   0.706  10.727  0.0830 -0.1872  0.0001
28588W        W44057  13.270   2.589   4.681  0.0769  0.0088 -0.0376
28589W        W44058  13.662  10.045  14.058  0.1788 -0.1034  0.0548
28590W        W44059  17.504   8.539   3.653 -0.1912 -0.1802 -0.1829
28591W        W44060  11.260  10.746  12.964 -0.0917 -0.2930  0.0379
28592W        W44061   4.217  16.597  14.700 -0.0019  0.2069 -0.2276
28593W        W44062  14.258   7.066  11.446  0.0797  0.2192 -0.0430
28594W        W44063   3.449  12.329  14.276 -0.0644  0.2252  0.1447
28595W        W44064  16.928  17.745   1.828 -0.0185  0.2291  0.1475
28596W        W44065  14.600   1.318   5.643  0.0674  0.3626  0.1160
28597W        W44066   1.208   9.536  12.806 -0.1527  0.3706 -0.1742
28598W        W44067   3.631  18.434  11.385  0.0448 -0.0320  0.2756
28599W        W44068  18.696  13.610   4.264  0.1111 -0.3829  0.1716
28600W        W44069   6.029   4.182   0.581  0.1240  0.1089 -0.2171
28601W        W44070   4.610  10.849  14.557 -0.2413  0.1897  0.0083
28602W        W44071   6.633  10.483   0.249 -0.0181 -0.0580  0.0586
28603W        W44072  10.530   4.247  12.416  0.0167  0.0898  0.1059
28604W        W44073  10.449  18.141   3.754 -0.1620  0.1533 -0.1565
28605W        W44074  11.624   9.983  14.467  0.1768  0.2053 -0.3083
28606W        W44075  15.381  12.151  11.054  0.0583 -0.3142  0.1456
28607W        W44076  15.838  11.015   4.361  0.3585 -0.0501  0.0391
28608W        W44077  17.225   7.687   1.830 -0.0060 -0.0836 -0.0166
28609W        W44078   8.557  10.102   2.960 -0.0295  0.0739 -0.0396
28610W        W44079  15.478  15.534  14.478 -0.1360 -0.0401 -0.1582
28611W        W44080   9.744   0.345  13.579  0.1090  0.2051  0.3372
28612W        W44081  13.168   8.136  14.119  0.2781 -0.2609 -0.3512
28613W        W44082  12.417   6.576   3.959 -0.2136  0.0310  0.3302
28614W        W44083  16.036  17.265  14.160  0.0743  0.2656 -0.1939
28615W        W44084  11.620   7.249   3.570  0.5517  0.0078  0.0139
28616W        W44085   1.133  16.755   2.573  0.1892 -0.2870  0.2627
28617W        W44086  11.071   2.550  15.390  0.0579 -0.0320 -0.3037
28618W        W44087   5.480  13.711  15.696  0.1053 -0.1241 -0.2663
28619W        W44088   4.058  10.949   1.350 -0.1775  0.1761  0.1606
28620W        W44089  16.662  11.670   5.029  0.1293  0.1777  0.1812
28621W        W44090   1.352  13.016  15.242  0.2286  0.0276  0.1600
28622W        W44091   7.292  14.815  12.064  0.0546 -0.1887 -0.1670
28623W        W44092   2.198   2.242  12.541  0.1624 -0.2315  0.2242
28624W        W44093   0.213   1.277  15.297  0.2109 -0.2215  0.1082
28625W        W44094  17.249   6.241   1.978  0.3685 -0.0363 -0.2404
28626W        W44095   5.104  18.289  13.397 -0.1396  0.0148 -0.4852
28627W        W44096   0.989   6.334  11.813  0.0259  0.3661  0.0393
28628W        W44097   9.569   0.965   4.653  0.1256  0.2113  0.0656
28629W        W44098  13.431   3.825   2.150 -0.2358 -0.0275  0.0524
28630W        W44099  11.030   2.082   0.019 -0.1310  0.0338  0.0834
28631W        W44100  13.274  14.832  10.402 -0.0964 -0.0547  0.1464
28632W        W44101   1.798   0.061  12.817  0.2729 -0.0270 -0.0243
28633W        W44102  17.148  18.530  15.433  0.1862  0.0322 -0.4391
28634W        W44103   0.945  15.650   2.246 -0.2894 -0.2381 -0.1018
28635W        W44104   3.466   3.602   4.228  0.1403  0.0940 -0.2144
28636W        W44105   3.007  10.588   2.856  0.1437  0.2238  0.2044
28637W        W44106   3.479   9.591  15.232 -0.1575 -0.1125 -0.1615
28638W        W44107   5.589   7.615  12.962  0.3298  0.1460 -0.0898
28639W        W44108  11.094  15.791  13.570 -0.0000  0.4796 -0.2649
28640W        W44109   4.961   1.751  13.171  0.0679 -0.1384  0.3098
28641W        W44110   9.890   6.382   3.272 -0.1015 -0.2567  0.0566
28642W        W44111  11.827  17.134   1.299  0.2465 -0.0563 -0.0905
28643W        W44112   6.461   5.778  11.907 -0.1519  0.1508 -0.1985
28644W        W44113   5.348  11.130  12.890  0.2395 -0.0913  0.2770
28645W        W44114   2.011  13.954   4.667  0.3296  0.2285 -0.0309
28646W        W44115  13.405   1.139  14.758 -0.0790  0.0049 -0.1009
28647W        W44116   3.476   6.046   3.035 -0.2548  0.1511  0.0229
28648W        W44117  11.716   9.909   5.591 -0.1485 -0.1752 -0.2423
28649W        W44118   1.603  18.439   2.626 -0.5115 -0.0820  0.1383
28650W        W44119   0.422  11.218   5.181  0.0135 -0.0125  0.2781
28651W        W44120  13.186  17.061   4.018 -0.1276  0.2097 -0.3317
28652W        W44121   7.584  11.754   4.961 -0.0789 -0.1962  0.2309
28653W        W44122   7.054   1.293  13.410 -0.0004 -0.0891  0.1442
28654W        W44123  13.498   5.949   0.213 -0.1649  0.0597 -0.3840
28655W        W44124  14.239   5.864  12.833  0.1394  0.2840  0.1204
28656W        W44125  13.790  13.678   2.953  0.1073 -0.1236 -0.0415
28657W        W44126   9.895  17.254  11.517 -0.1436 -0.0066 -0.1953
28658W        W44127   0.810  12.923   3.600 -0.1313 -0.0634 -0.4178
28659W        W44128   9.017   9.779   4.487  0.3075 -0.2071  0.0712
28660W        W44129   0.595   9.794  13.470  0.0210 -0.0692 -0.2008
28661W        W44130   3.108  16.285  12.095 -0.0716 -0.1167  0.1330
28662W        W44131   4.844   5.075   1.862  0.1811 -0.2162  0.2664
28663W        W44132   7.641   4.043  13.116 -0.2144  0.1440 -0.0018
28664W        W44133  14.533  16.843   2.805  0.0923 -0.0239  0.1467
28665W        W44134   9.665  11.332   4.894 -0.2901 -0.0371 -0.1564
28666W        W44135   7.814  13.955   6.367 -0.4628 -0.0684 -0.1755
28667W        W44136  12.376  17.391  10.415  0.1096  0.0540 -0.4808
28668W        W44137  14.348  12.360  11.651  0.2545  0.0015  0.3070
28669W        W44138   3.652   2.690  13.447 -0.0974 -0.0754 -0.0415
28670W        W44139  14.769   5.650  12.072 -0.3049  0.0235  0.1278
28671W        W44140   3.212   8.882   3.407 -0.0294 -0.1744 -0.0350
28672W        W44141  13.995  13.230  14.193  0.1499  0.0746  0.0801
28673W        W44142   1.754  12.492  12.412  0.1316  0.3005  0.1627
28674W        W44143  16.317  12.044   0.387 -0.1330  0.0237 -0.1447
28675W        W44144   3.309  12.100   2.220 -0.1490 -0.1374  0.1161
28676W        W44145  11.833  12.683  10.781 -0.3524 -0.1380  0.2151
28677W        W44146   3.834  18.524   0.032 -0.2117 -0.1535 -0.1238
28678W        W44147   2.067   9.548  13.375  0.1171 -0.2177 -0.2265
28679W        W44148  14.455   8.149   3.749 -0.0176 -0.0709 -0.1183
28680W        W44149   1.823  12.065   2.025 -0.0775  0.5287  0.1653
28681W        W44150   8.064   9.451   4.623 -0.1945 -0.1790  0.0392
28682W        W44151   0.404   7.930  13.255 -0.0731  0.1939  0.1973
28683W        W44152  14.899   8.875   2.434 -0.0689 -0.0852 -0.2862
28684W        W44153   3.456   8.418  12.256  0.1279 -0.1510 -0.3560
28685W        W44154   6.661  14.707  13.311  0.2329 -0.3642 -0.1360
28686W        W44155  17.637  10.582  11.053  0.1218 -0.0939 -0.1529
28687W        W44156   5.726   7.319  15.031  0.1853 -0.1358 -0.3169
28688W        W44157  16.102  13.024   3.591  0.0190  0.2569 -0.1974
28689W        W44158   9.680  12.892  12.076  0.1269  0.0159  0.0168
28690W        W44159   8.008   8.542  11.639 -0.1579  0.0674 -0.1039
28691W        W44160  18.007  15.521  10.846  0.1443 -0.1249 -0.0745
28692W        W44161  14.606   1.474  13.525 -0.0467  0.0305  0.0269
28693W        W44162   1.582  11.165  15.534  0.0630 -0.1580  0.1946
28694W        W44163   3.347   4.996   4.638 -0.0326 -0.1386 -0.4676
28695W        W44164   6.114   5.539   4.465 -0.0241  0.2182  0.1161
28696W        W44165   9.550   6.926  11.938 -0.1258 -0.0600  0.0476
28697W        W44166  13.849  13.863   4.290  0.3426 -0.1387  0.0596
28698W        W44167  10.917   6.648  13.922 -0.2595  0.1469  0.1418
28699W        W44168   6.166  16.231   4.510  0.1137  0.1011  0.2952
28700W        W44169  15.379  14.356   5.294  0.2342  0.2695  0.1801
28701W        W44170   9.443  10.460   3.062 -0.0773  0.1003 -0.1877
28702W        W44171   7.973   2.316  10.768 -0.1655 -0.1693  0.1794
28703W        W44172  10.268  18.506  14.306 -0.1814 -0.0161 -0.2895
28704W        W44173  18.612   0.156  13.268  0.2611 -0.3831 -0.1355
28705W        W44174   9.047   9.029   5.042 -0.2188  0.1988  0.1153
28706W        W44175  14.165  11.342  11.883  0.0996  0.1585  0.2200
28707W        W44176  11.621   7.264  10.572 -0.1304  0.1880  0.0347
28708W        W44177  17.179  14.986   0.652 -0.3618 -0.0894 -0.0729
28709W        W44178   6.604  15.087   4.367  0.3263 -0.2818 -0.0539
28710W        W44179  10.138  10.536  10.913 -0.3062 -0.0820  0.2812
28711W        W44180   6.600  15.586   4.601  0.0703  0.2584 -0.1327
28712W        W44181   8.061   3.869  14.070  0.4065 -0.1810 -0.3101
28713W        W44182  10.156   6.441  15.145 -0.2050  0.0324 -0.1140
28714W        W44183   0.919   5.097   4.542  0.0962 -0.0202  0.2548
28715W        W44184   1.936   1.682   4.419 -0.1773 -0.0920  0.1488
28716W        W44185  18.186   2.658  11.421 -0.2369  0.2515  0.1295
28717W        W44186   6.465   7.278   3.240  0.2193 -0.2472  0.0950
28718W        W44187  16.523   7.561   1.699 -0.2057 -0.1619 -0.1773
28719W        W44188   0.888   6.541   3.512 -0.1938  0.0425  0.3101
28720W        W44189  14.986  13.418   3.426  0.1407  0.0323 -0.5785
28721W        W44190  13.200   5.439   5.251  0.1453 -0.1965 -0.0498
28722W        W44191   5.495  11.550   0.329  0.0113  0.2571  0.1659
28723W        W44192  17.911   1.182   1.021 -0.1158  0.0128  0.0386
28724W        W44193  16.967  16.383  15.297  0.0177 -0.3316  0.1438
28725W        W44194   7.732   8.045   4.940 -0.2816  0.0799 -0.2966
28726W        W44195   2.625  13.024   4.744 -0.3742  0.0758  0.0615
28727W        W44196  17.317   2.022  11.813 -0.0018 -0.0795  0.1808
28728W        W44197   4.970  16.990   4.040 -0.2286 -0.0589  0.1211
28729W        W44198  18.120  17.541   0.660 -0.0326 -0.0816 -0.0082
28730W        W44199  17.988  13.688   0.291 -0.0159  0.0755  0.0322
28731W        W44200  14.782   8.248   5.886  0.2624 -0.1926  0.0593
28732W        W44201   5.496  17.296  12.193 -0.2513  0.3377 -0.3406
28733W        W44202   5.984  17.616  10.938 -0.2119  0.0724  0.1823
28734W        W44203  13.052  11.074  15.133 -0.1672  0.0598 -0.0011
28735W        W44204   7.975   9.026  11.780  0.0376  0.2559 -0.0916
28736W        W44205  12.384  12.957   3.846  0.0754  0.2988 -0.0972
28737W        W44206  13.133  16.472  14.623 -0.1284  0.2160 -0.1835
28738W        W44207   2.075   8.073  10.866 -0.0749 -0.0812  0.1673
28739W        W44208   6.525  15.498  14.211 -0.1825 -0.1977 -0.1950
28740W        W44209   0.381   2.530  11.728  0.0803  0.2586 -0.2081
28741W        W44210  16.842  16.843  10.980 -0.1424 -0.1932 -0.1073
28742W        W44211   2.278   3.984  15.671  0.2728  0.4655  0.1809
28743W        W44212   8.890   8.248  14.085  0.1744  0.2257 -0.1495
28744W        W44213  10.803  10.512   4.473 -0.3644  0.1912 -0.1752
28745W        W44214  17.376  15.169   3.991 -0.1243 -0.0028  0.1141
28746W        W44215  11.157   3.767  14.751  0.3604 -0.1933  0.1916
28747W        W44216  16.623   2.590  11.300 -0.1509 -0.0443  0.0242
28748W        W44217   8.007  10.090  15.492 -0.0963  0.0396 -0.0070
28749W        W44218  10.768  14.802   1.108 -0.1225 -0.2462 -0.0129
28750W        W44219  15.051  17.020   0.226  0.1083 -0.0750  0.3203
28751W        W44220  16.398   4.528   1.110 -0.1164  0.2708 -0.1764
28752W        W44221  12.843   7.600   0.046  0.0888 -0.3680  0.2195
28753W        W44222  18.313  11.213  11.664  0.2284 -0.0513  0.1085
28754W        W44223   4.902  15.118  11.750  0.1586 -0.0053  0.1694
28755W        W44224   0.319   0.326   3.393  0.1609  0.1622  0.0832
28756W        W44225  11.511  12.099   4.167  0.1058  0.1007  0.1727
28757W        W44226  13.764  17.215   3.312  0.0825 -0.0212 -0.0794
28758W        W44227   0.831  12.347   3.670  0.1553 -0.1018  0.2456
28759W        W44228  10.977   8.742  12.239 -0.1420 -0.1073  0.1516
28760W        W44229   2.335  16.557  10.976  0.3179  0.2414 -0.2703
28761W        W44230  13.919   4.244  11.223 -0.0235  0.0977 -0.0060
28762W        W44231  14.431   8.532   5.061 -0.2149  0.1911 -0.2229
28763W        W44232  12.012   1.619  13.616 -0.2304 -0.0528 -0.1771
28764W        W44233   7.646   7.620  12.126  0.0254 -0.3672 -0.0628
28765W        W44234  16.832  13.646  15.691 -0.5944  0.4570  0.0666
28766W        W44235  15.899   4.582  14.612 -0.2635  0.0871 -0.0653
28767W        W44236  14.407   3.050  14.075 -0.1058  0.0274  0.0081
28768W        W44237   7.122   1.310   0.921  0.1104 -0.1460  0.1782
28769W        W44238   4.742   6.706   2.134 -0.0162  0.0489 -0.3963
28770W        W44239  12.548  13.878   4.223 -0.0140 -0.0199  0.1356
28771W        W44240   7.547  10.232  14.602  0.1015  0.0180  0.2007
28772W        W44241  16.901   9.598  13.298 -0.1534  0.0876 -0.3045
28773W        W44242   3.008  15.839  14.518  0.1562  0.1522  0.1984
28774W        W44243  14.435   9.655  14.151  0.2300  0.2526 -0.0826
28775W        W44244  14.908   7.657  11.994 -0.2567  0.0591  0.5475
28776W        W44245  14.608  17.195   0.072  0.2760 -0.1611 -0.2399
28777W        W44246  16.880   2.323   0.164 -0.0097 -0.0229  0.0781
28778W        W44247  17.695   3.862  11.242 -0.1409  0.2806  0.0573
28779W        W44248   9.232  14.320   4.918  0.0621  0.0713  0.0274
28780W        W44249  14.420  18.507   2.471  0.2620 -0.1473  0.0044
28781W        W44250   7.814  15.469  12.609 -0.0927 -0.0671 -0.1486
28782W        W44251   7.910  11.991   1.701  0.0330  0.0137 -0.1565
28783W        W44252  15.153   4.604  15.708  0.0913 -0.0448 -0.1805
28784W        W44253  18.160  12.761   2.525 -0.1283  0.1865 -0.0468
28785W        W44254   3.344   9.062  13.722 -0.1915 -0.0618  0.0218
28786W        W44255  11.146   6.128  13.830 -0.0321 -0.1126 -0.4177
28787W        W44256   6.955  10.447  11.346 -0.3203  0.1534  0.2964
28788W        W44257   3.142   3.195   2.233 -0.0309  0.0126  0.0747
28789W        W44258   8.836   5.196  13.322  0.4557  0.1397 -0.2715
28790W        W44259   4.965  17.040   3.334  0.1250 -0.1549 -0.3080
28791W        W44260   8.249  10.262  15.095 -0.2647  0.3382 -0.0645
28792W        W44261   1.662   5.529  11.826 -0.2115 -0.1146 -0.1244
28793W        W44262   3.526  15.468   1.492  0.1837 -0.3103  0.1464
28794W        W44263  11.865   3.919  14.981 -0.1456  0.0987 -0.0022
28795W        W44264   2.876  15.777   4.508  0.1611 -0.0120 -0.2414
28796W        W44265  16.101  14.773   5.387  0.0771 -0.1930 -0.0421
28797W        W44266  15.358   1.822   4.406 -0.3085  0.2684 -0.1174
28798W        W44267   8.157  15.809  12.419 -0.0013 -0.1426 -0.1982
28799W        W44268  17.311   5.246   4.523  0.3450 -0.4441  0.0592
28800W        W44269   2.968   1.590   2.198  0.0064 -0.0387  0.2395
28801W        W44270  12.939  16.464   2.911  0.3628  0.3579 -0.2175
28802W        W44271   8.328   1.024   5.796 -0.1895 -0.4812 -0.2762
28803W        W44272  16.283  16.764  11.677  0.1559 -0.1691  0.0592
28804W        W44273   5.741  14.602   1.662  0.0110  0.1480  0.1860
28805W        W44274   0.262  14.718  14.705  0.1827 -0.2320  0.3010
28806W        W44275  12.132   7.467  11.678 -0.0079 -0.3582  0.0153
28807W        W44276   6.047   5.452   4.967 -0.0684 -0.0271  0.1066
28808W        W44277   4.108   0.872  12.261  0.2452 -0.2499  0.1500
28809W        W44278  11.662  12.274   1.384  0.1229 -0.2483  0.0373
28810W        W44279   6.826  17.254  10.964  0.0857 -0.1398 -0.1958
28811W        W44280  18.673  17.743  13.636 -0.1828  0.3177 -0.1428
28812W        W44281   5.626   4.551  12.166 -0.0833 -0.3374  0.2176
28813W        W44282  10.886  10.094  12.352  0.0962 -0.0706  0.0622
28814W        W44283  14.881  11.046   5.573 -0.2331 -0.0918 -0.4322
28815W        W44284  17.624   7.284  13.250  0.0899  0.0420  0.2026
28816W        W44285   8.750   6.078   5.513 -0.0472 -0.0865 -0.4043
28817W        W44286   6.711   8.671   3.271 -0.0686 -0.1011  0.0599
28818W        W44287   6.666  16.960  14.411 -0.0682  0.1251 -0.2312
28819W        W44288   5.202   3.152  13.909  0.2849 -0.1291  0.1628
28820W        W44289   8.178   2.321  12.410 -0.0008  0.2125 -0.1648
28821W        W44290  10.116   0.108  12.177 -0.0434  0.1792  0.1928
28822W        W44291   6.285   7.273   5.077  0.0383 -0.0490  0.3664
28823W        W44292   0.226  16.434   4.712 -0.0510  0.0165 -0.0186
28824W        W44293  15.839   0.580  10.524  0.3554 -0.0070  0.2932
28825W        W44294   8.174   6.597   3.518 -0.1160 -0.1855 -0.1221
28826W        W44295   6.646  11.308   4.753 -0.0243  0.0044 -0.0012
28827W        W44296   3.251   6.043   5.700 -0.0972 -0.1592 -0.1176
28828W        W44297  18.561  11.393  14.895  0.0962 -0.0590 -0.0922
28829W        W44298   6.521   1.677  12.019  0.3005  0.0072  0.0986
28830W        W44299   3.390   9.605   5.846  0.2231  0.1507  0.2395
28831W        W44300   2.395   6.710   2.380  0.1737 -0.2953  0.0060
28832W        W44301   6.525  14.385   0.296  0.0514 -0.4900 -0.1667
28833W        W44302   4.919   8.260  12.534 -0.2449  0.0606  0.0847
28834W        W44303   4.853   9.654  10.443  0.0656 -0.1841 -0.1275
28835W        W44304  11.708  12.659   0.074 -0.2743 -0.1382  0.2682
28836W        W44305  10.133   2.223  12.292  0.0267 -0.1572  0.2890
28837W        W44306   2.702  17.641   0.342  0.0771  0.0902 -0.1107
28838W        W44307   9.434  10.310   5.236  0.1420  0.0448  0.1840
28839W        W44308   2.267  11.697   1.362  0.0036 -0.1667  0.1627
28840W        W44309   0.295   3.683  15.645 -0.0034  0.0559  0.0109
28841W        W44310  18.243   3.246  14.139 -0.1476  0.3052  0.1304
28842W        W44311  17.310   3.367   3.154 -0.1319 -0.0134  0.1366
28843W        W44312   1.022  11.073  12.263  0.5248 -0.1410  0.1696
28844W        W44313  11.308  15.384   9.776  0.2313  0.2907 -0.1304
28845W        W44314   3.750   4.605  13.784 -0.0822  0.0339  0.0631
28846W        W44315   6.003   8.550   6.179  0.1322  0.0983 -0.2448
28847W        W44316  13.354   0.524  14.666  0.1258  0.0334 -0.2985
28848W        W44317  16.435   0.795  14.665 -0.2131 -0.1158 -0.0399
28849W        W44318   8.511   5.480   4.272  0.0150 -0.0581 -0.0430
28850W        W44319   4.816  15.161  15.084 -0.1702  0.0635 -0.0303
28851W        W44320  17.449  16.756   3.890 -0.2932 -0.1154 -0.2061
28852W        W44321  15.599  18.506   1.007  0.0481  0.0864  0.0073
28853W        W44322   2.078   4.612  12.487  0.1736 -0.2444  0.0108
28854W        W44323   6.781  10.121  14.162 -0.0129  0.0571  0.0829
28855W        W44324  16.977  15.640   0.025 -0.0241 -0.1007  0.2564
28856W        W44325   2.201   7.537  12.662  0.1622 -0.2961 -0.1311
28857W        W44326  17.743  16.433   3.656 -0.1055 -0.1356 -0.1910
28858W        W44327   6.035  12.125  13.285 -0.0278 -0.1157 -0.1675
28859W        W44328   0.854   5.254  14.127 -0.1647  0.1845  0.2679
28860W        W44329  17.737   2.572  10.468  0.2656 -0.1570 -0.0515
28861W        W44330   9.886  18.312   2.590  0.3674 -0.1406 -0.2063
28862W        W44331   6.136   4.156   3.689  0.1967  0.0425 -0.1208
28863W        W44332  11.442  17.515  11.839  0.1112 -0.1457 -0.0573
28864W        W44333   5.168   2.196  10.191 -0.0145  0.0696  0.1038
28865W        W44334  13.804  15.716   2.420 -0.2605  0.2901 -0.1471
28866W        W44335  12.242  13.437   3.954 -0.0320 -0.1066  0.0575
28867W        W44336  14.562   4.018  11.908 -0.2669 -0.0390 -0.1008
28868W        W44337  15.863   0.331  13.610  0.2921 -0.0527  0.2472
28869W        W44338   1.822   8.831  12.509  0.1120  0.0358 -0.1887
28870W        W44339  16.653   0.360  11.029 -0.0255  0.0619 -0.1665
28871W        W44340  13.951   4.061  14.594  0.2037 -0.0711 -0.2021
28872W        W44341  15.862  16.641  11.917 -0.3653 -0.0537 -0.0380
28873W        W44342  16.117  12.928   0.953  0.0042 -0.1857  0.2518
28874W        W44343  10.483  18.112  14.726  0.0053  0.0195 -0.1701
28875W        W44344  15.925  11.951  12.125  0.4248  0.1652 -0.0092
28876W        W44345  17.299   4.052  13.564  0.1350 -0.0048 -0.0699
28877W        W44346   3.433   1.030   1.830  0.3123  0.0037  0.1327
28878W        W44347   1.605   8.628  11.628  0.0763 -0.0005  0.1241
28879W        W44348  14.789   7.583  14.529 -0.1420 -0.2120  0.3632
28880W        W44349  16.770  15.830  13.774  0.1579  0.0596  0.2998
28881W        W44350  13.233   0.719   9.136  0.0925 -0.2721 -0.2815
28882W        W44351  13.360   3.485   0.831 -0.0751 -0.1508 -0.1491
28883W        W44352  18.492   1.085  10.802 -0.1949  0.1694 -0.0962
28884W        W44353  11.668   6.263   0.026  0.0264 -0.1934 -0.0002
28885W        W44354  14.645  10.644  15.580 -0.2224 -0.0931  0.3909
28886W        W44355  14.177   9.282  15.176  0.0116 -0.0069  0.2302
28887W        W44356  14.861  10.925   0.232 -0.0168 -0.0321 -0.1258
28888W        W44357   8.525   5.053   3.362 -0.0323  0.0245 -0.0077
28889W        W44358   3.616  13.588  14.658  0.2437  0.0447  0.2014
28890W        W44359   1.552   6.540   1.665  0.4901 -0.1605 -0.1076
28891W        W44360  16.628   0.159   2.919  0.1381 -0.2596 -0.1103
28892W        W44361  16.321  11.027   4.365 -0.1342 -0.1734 -0.0678
28893W        W44362  13.435   9.073  12.847 -0.0857  0.1824 -0.3960
28894W        W44363  12.319  18.123   5.805  0.0752 -0.1788  0.1272
28895W        W44364   0.367   6.104  13.829  0.0156  0.0887  0.0933
28896W        W44365   4.179   5.092  14.168 -0.1426  0.0223  0.3879
28897W        W44366   8.530   8.775  11.679  0.0984 -0.1108 -0.0581
28898W        W44367  13.184  11.674   4.006 -0.0141 -0.1634  0.1439
28899W        W44368  14.885  11.437  15.062  0.0795  0.0366 -0.0655
28900W        W44369   9.336  15.666  10.718  0.0307 -0.1110 -0.0740
28901W        W44370  11.559   3.543   1.037 -0.1533  0.0600  0.0725
28902W        W44371  17.389   3.441  14.132 -0.0889 -0.0442  0.2637
28903W        W44372   6.492   8.725   4.962 -0.0266  0.1157 -0.0767
28904W        W44373   7.420   6.327   3.138 -0.1435 -0.0286 -0.2410
28905W        W44374   8.888   8.376   0.763 -0.0220 -0.0170 -0.0900
28906W        W44375   9.578  14.530  14.227 -0.1986 -0.0576 -0.2018
28907W        W44376  16.220  16.842  14.455 -0.0265 -0.0311  0.1862
28908W        W44377  12.570  17.485   4.750  0.0693  0.1019 -0.1620
28909W        W44378  12.162  12.180   1.428  0.0991  0.1994 -0.0800
28910W        W44379   2.124  11.656  12.685  0.4540  0.0325  0.1218
28911W        W44380  13.669   8.713   3.675  0.1085 -0.0764 -0.0913
28912W        W44381   0.749   8.465   3.662  0.1517 -0.2092  0.0295
28913W        W44382  12.637  13.713  14.105 -0.1159 -0.0639  0.3257
28914W        W44383   9.879   6.726   0.421 -0.0007 -0.0331  0.2456
28915W        W44384  14.014   5.470   3.408  0.0474  0.2659 -0.0502
28916W        W44385  17.714  17.509  10.602 -0.1084 -0.2775 -0.0182
28917W        W44386  13.782   1.521   2.136 -0.0578  0.0421 -0.0245
28918W        W44387  17.527   5.150   0.452 -0.0853 -0.2128 -0.0302
28919W        W44388  11.919  13.018   2.757  0.2292  0.0025  0.1974
28920W        W44389   6.347   3.487   4.122 -0.0466  0.1403 -0.0460
28921W        W44390   6.414   0.385  15.432  0.0723  0.3554  0.1556
28922W        W44391   1.011   0.925   0.491 -0.2306  0.2006  0.2890
28923W        W44392   4.681  16.215   3.849  0.1172 -0.2824  0.2356
28924W        W44393  12.802   6.613   3.381  0.2298 -0.0427 -0.0563
28925W        W44394  18.454  17.306  12.196  0.0800  0.2017 -0.2423
28926W        W44395   7.375  17.487   3.144  0.1099 -0.0042  0.1494
28927W        W44396  11.753   0.807  14.009  0.0985 -0.0088  0.0257
28928W        W44397   1.315   7.667  11.677  0.3105 -0.2621  0.3370
28929W        W44398   4.657  15.538   2.672  0.0440  0.0442  0.3508
28930W        W44399   6.216  11.295  13.016 -0.2580  0.0894 -0.1395
28931W        W44400  11.900   8.165   1.518  0.3684 -0.2484 -0.1094
28932W        W44401  16.092  12.504   1.811 -0.0424  0.1789  0.0647
28933W        W44402  17.509   6.055  13.888  0.2405 -0.1040  0.4702
28934W        W44403   7.865  18.608   1.391 -0.1579 -0.1217 -0.0307
28935W        W44404  13.270   0.990  12.354  0.0749 -0.1367 -0.1453
28936W        W44405  14.997  15.535  10.381 -0.3248  0.0050  0.1526
28937W        W44406  11.002   8.244   4.130  0.3602  0.5766 -0.3934
28938W        W44407   8.868  10.720  12.199  0.3554  0.1170  0.1017
28939W        W44408  10.417   1.299  11.929  0.1076  0.1742 -0.2721
28940W        W44409   9.982   9.646   2.820 -0.0800  0.2239  0.3981
28941W        W44410   6.082  15.349  14.389 -0.2716 -0.2253  0.1657
28942W        W44411  13.733  18.134   2.990 -0.0072  0.1769  0.1047
28943W        W44412   2.400  17.895  14.434  0.0482 -0.1209 -0.0964
28944W        W44413   1.635   9.407  11.094  0.0317 -0.3692  0.4600
28945W        W44414   1.557   7.025  12.296 -0.2641  0.4753  0.0818
28946W        W44415   1.055   6.489   1.690  0.0829  0.0179  0.2300
28947W        W44416   2.118   1.043   0.425  0.1347  0.1887 -0.2459
28948W        W44417   9.974   9.374  12.887  0.3807 -0.0630  0.1370
28949W        W44418   1.494   2.322  13.040  0.1116 -0.2774  0.0719
28950W        W44419   0.419   8.575  11.301 -0.0597 -0.0775  0.1413
28951W        W44420   0.431  12.684  12.781  0.0270  0.1124  0.0288
28952W        W44421  15.964  12.826   2.222 -0.0597 -0.3468 -0.2541
28953W        W44422   3.926   8.701  12.060 -0.1632  0.1626 -0.0021
28954W        W44423  11.017   9.191   1.044  0.1192 -0.3651 -0.1544
28955W        W44424   0.214  18.325   1.479  0.0094 -0.1700 -0.3012
28956W        W44425  11.697  17.846   4.603  0.0771  0.2440 -0.1635
28957W        W44426   6.361  12.472  11.478 -0.2926  0.0385  0.2722
28958W        W44427   6.243   2.585  12.346 -0.0687 -0.0572 -0.4067
28959W        W44428   8.300   2.167  14.977  0.2715  0.4044  0.2947
28960W        W44429   6.470   0.161  11.165  0.1168  0.1790  0.1409
28961W        W44430  12.640  18.421   4.973  0.4008  0.0143 -0.0289
28962W        W44431   8.353   4.666   2.880  0.2095  0.0438 -0.3202
28963W        W44432   9.556   0.421  12.612 -0.1718 -0.0143 -0.1559
28964W        W44433   2.302  12.801  11.603 -0.0251 -0.3045 -0.1135
28965W        W44434   3.344   3.577  12.035  0.0550  0.3277  0.1358
28966W        W44435   2.986  13.788  14.568  0.0465 -0.3500 -0.1122
28967W        W44436   9.650   3.605   6.186 -0.0085  0.1512  0.2768
28968W        W44437   8.559   8.391   1.517  0.0460  0.2805 -0.2463
28969W        W44438  13.026   4.090   1.153 -0.0674 -0.3669 -0.1146
28970W        W44439   9.653  13.418   4.524  0.3160 -0.3609 -0.1121
28971W        W44440   5.351   1.480   0.646  0.0058 -0.1038  0.0063
28972W        W44441   5.789  11.470  12.895  0.3489  0.4283  0.1264
28973W        W44442   0.279  16.620   5.160  0.0895  0.2965  0.0101
28974W        W44443  16.457   0.546  12.964 -0.0233 -0.1911 -0.0689
28975W        W44444   1.710  16.815  12.187 -0.0536 -0.0582 -0.0266
28976W        W44445   7.644  17.613   5.402  0.0323 -0.3441 -0.0566
28977W        W44446   3.033  11.695  13.213  0.0106 -0.1854 -0.3853
28978W        W44447  18.426   6.412  12.724  0.1735  0.1570 -0.2869
28979W        W44448   5.690  10.487   5.258  0.0117 -0.0393  0.0503
28980W        W44449  14.761   6.361  10.885 -0.0739  0.0803 -0.2858
28981W        W44450  10.480  14.174   4.153 -0.1672  0.1162  0.1218
28982W        W44451   3.258   3.553  13.445  0.0035  0.0598  0.2973
28983W        W44452  16.930   3.638  10.446 -0.2583 -0.1385  0.0205
28984W        W44453   7.217   2.579   1.224 -0.1743  0.0305 -0.0233
28985W        W44454  11.800   8.286  15.712  0.1531 -0.2519 -0.2942
28986W        W44455  14.923  10.056  13.661  0.2313  0.0077  0.0884
28987W        W44456   2.212   7.077  14.340  0.0215  0.1606  0.2113
28988W        W44457   9.084   2.412   3.249  0.1860 -0.1075 -0.2245
28989W        W44458   4.254  14.509  14.195 -0.1358 -0.0892 -0.0073
28990W        W44459  18.111  12.856  12.049 -0.0189  0.1757 -0.1515
28991W        W44460  11.363  14.679   5.271 -0.0019 -0.1499  0.0551
28992W        W44461   1.446   8.644  12.163 -0.1989  0.0841  0.2068
28993W        W44462  10.587  12.518   4.052 -0.1040 -0.1148  0.0057
28994W        W44463   9.555   5.078   3.432  0.3034 -0.4458 -0.3793
28995W        W44464   1.028   9.917  13.861 -0.0371  0.0965 -0.0182
28996W        W44465   1.425   8.239   4.597 -0.0028  0.2251 -0.1781
28997W        W44466  18.333  13.445   5.899 -0.0758  0.3185 -0.0574
28998W        W44467   0.750  14.779   0.729 -0.0119  0.1046 -0.0434
28999W        W44468   9.466  13.264   0.138 -0.4318 -0.1299  0.3012
29000W        W44469   3.223   8.198  14.328  0.1109 -0.1209  0.2122
29001W        W44470   3.917  17.387  15.069 -0.2972  0.0026 -0.0582
29002W        W44471  16.196   4.329   4.083  0.1836 -0.0117  0.0340
29003W        W44472   3.699   9.858  13.396  0.1517 -0.0858 -0.0467
29004W        W44473   7.979  14.171  12.185 -0.1631  0.0328  0.0543
29005W        W44474   5.830  17.313   3.942 -0.1686 -0.0334  0.0173
29006W        W44475  18.644   5.243   4.661  0.0080 -0.2494 -0.1661
29007W        W44476   5.803   4.263  14.114 -0.0032  0.2407  0.3688
29008W        W44477  12.647   8.154   2.660 -0.2135  0.0266 -0.0883
29009W        W44478   6.581  16.614   0.869 -0.1996 -0.3715 -0.2319
29010W        W44479   5.360  10.216   4.218  0.0641  0.2061  0.2662
29011W        W44480  15.451   9.107   4.580 -0.1276  0.1546  0.3217
29012W        W44481   2.035  16.537   1.901 -0.0229  0.1260 -0.0326
29013W        W44482   4.960   4.657   2.957 -0.1803  0.2837 -0.1213
29014W        W44483  12.841   2.103  11.276 -0.1140  0.0943  0.0952
29015W        W44484  14.435   9.854  15.006 -0.0292  0.0568 -0.1161
29016W        W44485   9.488  15.050  14.317  0.0282  0.2014 -0.1877
29017W        W44486   3.406  12.295   3.626  0.0758 -0.0379 -0.3098
29018W        W44487  16.104   2.768  11.822 -0.2911  0.1786 -0.1727
29019W        W44488  18.003   5.276   0.647 -0.2880 -0.3071 -0.2544
29020W        W44489   4.473  10.319   0.188 -0.1451 -0.0777  0.2038
29021W        W44490  11.831   6.054   1.900  0.2933 -0.1071 -0.2834
29022W        W44491  17.067  14.798   5.926 -0.2938  0.0809 -0.2230
29023W        W44492   8.814   5.838   2.610 -0.0902 -0.0704 -0.0603
29024W        W44493   7.691  16.629   9.888  0.1792 -0.0403  0.0053
29025W        W44494   3.433   8.213  15.139  0.1231 -0.3898 -0.2195
29026W        W44495  16.268  13.741   0.904  0.0751  0.1507 -0.4718
29027W        W44496   4.755  14.617   4.619 -0.0890  0.3424  0.1407
29028W        W44497  13.555  12.575   5.806 -0.0636  0.0687 -0.2251
29029W        W44498   0.376   4.481   0.906  0.2605 -0.0529 -0.0272
29030W        W44499   7.060   4.797  14.043  0.0130  0.6344 -0.0193
29031W        W44500   4.948  10.634   4.560 -0.1091 -0.4608 -0.0696
29032W        W44501  16.171   6.128   9.746 -0.2761  0.2256 -0.4461
29033W        W44502  16.453   2.833   2.776  0.1699 -0.0983  0.1000
29034W        W44503   9.180   6.428   2.189 -0.0838 -0.1363  0.1725
29035W        W44504  10.860  13.315   5.174  0.3822 -0.3511  0.0868
29036W        W44505  11.117   5.545   1.068 -0.0284 -0.0027  0.1306
29037W        W44506   8.077   0.612   5.029 -0.1077 -0.0816  0.3921
29038W        W44507  17.720   1.545   1.400  0.0280 -0.3198  0.0729
29039W        W44508   4.696   9.586   6.180 -0.0141 -0.2257  0.2289
29040W        W44509   1.261   4.403   1.642 -0.2508  0.2144  0.0042
29041W        W44510  11.234  10.628   0.932  0.1400  0.0099  0.0125
29042W        W44511  13.182   6.344  13.672 -0.2395 -0.0325 -0.2471
29043W        W44512   6.299  17.031   4.838 -0.2999  0.1392  0.0088
29044W        W44513   7.160  17.096   1.455 -0.1476 -0.0435 -0.0586
29045W        W44514   2.189  14.158  11.264  0.1666  0.1647  0.3661
29046W        W44515  16.736   3.422  10.912 -0.4441  0.0351 -0.1510
29047W        W44516  18.069  14.995  13.004  0.0597  0.0653  0.1279
29048W        W44517   1.767   6.126   1.778  0.4484 -0.0573  0.0466
29049W        W44518  10.855  14.645   5.528 -0.1787  0.2780  0.1251
29050W        W44519  16.364  14.828   3.006 -0.1545 -0.1553 -0.2705
29051W        W44520   3.752  17.248   1.763  0.1785 -0.0491 -0.2248
29052W        W44521  11.703  13.435  15.449 -0.2665  0.2657 -0.2788
29053W        W44522  16.005   7.753  12.708 -0.1705 -0.0306  0.0679
29054W        W44523   9.826   2.367  14.818  0.0923  0.2769  0.0396
29055W        W44524  14.556  14.355   3.749 -0.0780  0.1727 -0.2019
29056W        W44525   9.493  15.720   3.609  0.0597  0.1629 -0.0468
29057W        W44526   9.594  15.964  13.824  0.2548 -0.1584  0.1942
29058W        W44527   0.951  16.725  15.419 -0.1865 -0.2993 -0.0015
29059W        W44528  14.899  13.341  13.255 -0.0818  0.0163 -0.2566
29060W        W44529   6.250  12.751   5.731  0.2861  0.1275 -0.0780
29061W        W44530   9.965  14.619  15.075  0.1475  0.0971 -0.3199
29062W        W44531  13.759   9.800   1.432  0.2802  0.0493 -0.3580
29063W        W44532  11.581   3.344   0.541  0.1928  0.1910 -0.0949
29064W        W44533  17.922   1.483  12.570 -0.2757  0.1290 -0.1336
29065W        W44534  15.580   9.720   4.647  0.0860  0.1522  0.1018
29066W        W44535  17.540   9.561  11.773  0.0726 -0.0883  0.0819
29067W        W44536   2.401  15.665  11.955  0.0008 -0.0475 -0.2654
29068W        W44537  16.703   6.144   3.198  0.0906  0.0983  0.1991
29069W        W44538   2.049  16.735  10.577  0.2332  0.1883 -0.0593
29070W        W44539   0.361  15.968  11.733  0.0540  0.0756 -0.1480
29071W        W44540   8.790   1.119   3.553  0.4752  0.4837  0.2192
29072W        W44541  18.561   4.017   1.111  0.0946  0.1154  0.2605
29073W        W44542   3.290  11.776  13.678  0.1486 -0.4064  0.0548
29074W        W44543   1.668  17.472   0.585 -0.3438 -0.2046  0.0566
29075W        W44544  18.208   2.028  12.091  0.0662  0.0468  0.0562
29076W        W44545   6.609   6.558   2.114 -0.1721 -0.2276  0.0138
29077W        W44546   7.414   1.405   0.261  0.0260  0.0677 -0.3500
29078W        W44547   1.539  16.276   0.085  0.1138 -0.0970  0.1416
29079W        W44548  14.154   7.778  15.350  0.1147  0.0739  0.3030
29080W        W44549   7.406  18.605   2.622 -0.1112  0.0166  0.1099
29081W        W44550   1.010   6.945   2.020  0.0486 -0.4372 -0.0060
29082W        W44551   0.195   1.419   2.368 -0.2332  0.1352 -0.1724
29083W        W44552   8.486  18.665   0.670 -0.1631  0.0770 -0.2324
29084W        W44553  16.187  10.177   4.162 -0.2469  0.0534 -0.1238
29085W        W44554   7.696  16.604  11.948  0.1837 -0.1061  0.2962
29086W        W44555   2.849   0.934   2.992  0.1325 -0.0085 -0.0567
29087W        W44556   8.280   8.247   2.352 -0.2485 -0.0236 -0.0498
29088W        W44557   9.975   5.794  11.866 -0.1751 -0.1664 -0.4088
29089W        W44558  13.126  16.060   0.801 -0.3649 -0.1201  0.0503
29090W        W44559   4.231   4.149   4.093 -0.0294 -0.1764  0.1710
29091W        W44560   0.507  11.740  13.107  0.1350 -0.1208  0.0910
29092W        W44561  18.005  16.375   2.267  0.2564 -0.0228 -0.0346
29093W        W44562   8.763  18.616   3.502 -0.6015  0.0636 -0.1214
29094W        W44563  11.260  14.572  15.377  0.4187  0.4593  0.3433
29095W        W44564   8.854  17.175   0.300 -0.3395 -0.3762  0.1674
29096W        W44565   1.049   2.605   4.882  0.1738 -0.1755  0.2717
29097W        W44566  15.718   7.802  11.686 -0.0023 -0.0335  0.0704
29098W        W44567   9.923  11.352  14.275 -0.0704  0.1089 -0.1834
29099W        W44568   9.200   2.475  14.989 -0.1487  0.1274 -0.1676
29100W        W44569   1.327   1.592   5.002 -0.1228  0.0205  0.0760
29101W        W44570   7.683   4.340   4.452  0.0325  0.0774 -0.0448
29102W        W44571   3.792  17.990   2.821 -0.0462 -0.1478 -0.2811
29103W        W44572   0.233   5.165  11.502 -0.0425 -0.0829  0.0887
29104W        W44573   9.330   8.825   2.165 -0.0867  0.3958 -0.0306
29105W        W44574   6.133   8.317  12.076  0.0199 -0.1788 -0.1813
29106W        W44575  12.098  12.538   0.554 -0.4316  0.1611  0.0395
29107W        W44576  14.384   9.438  12.862 -0.3441 -0.3539  0.1513
29108W        W44577   8.387   7.811   5.817  0.1899 -0.0232  0.2951
29109W        W44578  17.147   9.085   1.300 -0.4024 -0.2089 -0.1937
29110W        W44579   4.609   5.823  13.168  0.1154  0.1088  0.0061
29111W        W44580  12.390   7.230   2.207 -0.0091 -0.2164  0.0827
29112W        W44581   6.940  13.697   5.225  0.1991  0.3399 -0.0558
29113W        W44582  17.036   9.026  13.009 -0.1542 -0.3013  0.0822
29114W        W44583  13.739  12.235  13.369  0.1912 -0.1612  0.1206
29115W        W44584   1.951   0.782   3.367 -0.0927  0.3068 -0.0447
29116W        W44585  14.264  15.164   4.974  0.2069  0.2100  0.1869
29117W        W44586   4.519   4.857   3.011 -0.3321 -0.0910 -0.0222
29118W        W44587  11.111   6.331   2.575 -0.0490  0.0124  0.3706
29119W        W44588   2.645  17.951   1.337 -0.0257 -0.0727  0.0011
29120W        W44589  12.766   1.090  12.298  0.0328 -0.1052 -0.3601
29121W        W44590  11.152   2.192   4.082  0.0643  0.2113  0.2473
29122W        W44591  11.384  12.081   4.718 -0.0562 -0.1276 -0.1262
29123W        W44592  18.023  12.133   0.244  0.2649  0.1967 -0.2555
29124W        W44593  15.475   0.269   2.270  0.1815  0.0713  0.4074
29125W        W44594   5.173   6.768  15.551  0.1508 -0.1972  0.2482
29126W        W44595  17.958   5.031   1.388 -0.3808  0.1599 -0.0710
29127W        W44596  12.914  15.195   3.567  0.0189  0.0522 -0.1205
29128W        W44597  18.354   8.458  10.044 -0.1693 -0.2046 -0.4680
29129W        W44598  13.577  17.765  15.134  0.0823  0.0436 -0.1078
29130W        W44599   5.794   4.896   2.409  0.1966 -0.1694 -0.0014
29131W        W44600   6.322  10.736  11.718  0.0323 -0.1320  0.0840
29132W        W44601   0.350   6.445   3.183 -0.0265 -0.0550 -0.2529
29133W        W44602  10.067   5.451   5.175  0.2988  0.0311 -0.2237
29134W        W44603  16.550  15.544  12.988 -0.1329 -0.1183  0.0968
29135W        W44604  11.399   6.516  13.313 -0.0269 -0.0903  0.1773
29136W        W44605  15.777   5.358   3.623  0.2429  0.1512  0.0497
29137W        W44606  11.978  10.622  14.417 -0.0198 -0.0543 -0.0052
29138W        W44607   0.148  15.524   2.049  0.1726 -0.3902 -0.0905
29139W        W44608   2.193   7.397  14.727 -0.0008 -0.3699  0.2171
29140W        W44609   7.375   1.806   3.033 -0.1571 -0.3241 -0.2177
29141W        W44610   2.107   6.638   2.773 -0.3601 -0.0710  0.1420
29142W        W44611  15.848   5.735   2.916 -0.1135 -0.0498  0.0091
29143W        W44612   2.577   4.436  11.622  0.1158  0.0844 -0.2472
29144W        W44613  11.715   7.452   3.153  0.0855 -0.3763  0.1385
29145W        W44614   6.583   5.977   5.456 -0.0914  0.1461 -0.1762
29146W        W44615   7.124  18.246  11.504  0.1029 -0.2699  0.0424
29147W        W44616   5.151   1.583   5.227 -0.1747  0.0081  0.1137
29148W        W44617   9.749   3.030   3.256  0.0356 -0.0490  0.0745
29149W        W44618  16.399   4.912  11.835 -0.1475  0.4932 -0.0039
29150W        W44619   3.995  12.159   0.011 -0.2516  0.1152  0.2624
29151W        W44620   9.220   8.267   1.076 -0.3310  0.0059 -0.1648
29152W        W44621   1.673  12.340  14.131 -0.1112 -0.0536  0.1788
29153W        W44622   1.741  13.494  13.344 -0.2024 -0.3773  0.2812
29154W        W44623  18.162  13.021   3.011 -0.2238 -0.0044 -0.2278
29155W        W44624  12.506  13.509  15.160 -0.0581  0.2586  0.0723
29156W        W44625  16.886  11.540   3.643  0.0004  0.1308 -0.1579
29157W        W44626  12.130  18.159  11.223  0.0240  0.2109 -0.1663
29158W        W44627  15.471  14.633   1.089  0.0566  0.0913  0.2184
29159W        W44628   6.555   2.783  15.283 -0.3042  0.0647 -0.0800
29160W        W44629   8.534  17.051   0.713  0.1179  0.1515 -0.0349
29161W        W44630   3.004   5.475  12.983  0.1786  0.0293 -0.1541
29162W        W44631  11.363  15.725  14.119  0.0784  0.1079 -0.2744
29163W        W44632   0.520  14.708  13.416 -0.0819  0.1263  0.0565
29164W        W44633  17.822   2.633   3.672  0.3970 -0.3295 -0.0836
29165W        W44634  18.130  11.555   2.563 -0.2607 -0.3415 -0.3108
29166W        W44635   6.795  18.100   5.737  0.0657  0.1293 -0.3668
29167W        W44636  18.295  11.705   1.680 -0.1682 -0.0201  0.2144
29168W        W44637  15.847   0.569   5.204 -0.1420 -0.2774 -0.0436
29169W        W44638  11.712   5.358   3.021  0.2583  0.1404  0.2732
29170W        W44639  15.445   1.854  14.630  0.1008 -0.2919  0.0094
29171W        W44640  14.597  10.573   3.846 -0.0080 -0.0126  0.0769
29172W        W44641   1.838   2.424  13.444 -0.0406 -0.2708  0.0163
29173W        W44642   2.896  14.122  12.243  0.3848  0.0037  0.2013
29174W        W44643   1.802  16.971   3.035  0.0102  0.1475 -0.1383
29175W        W44644   8.349   0.450   0.692  0.1985  0.3023  0.0319
29176W        W44645  18.259   9.927  15.443 -0.1448 -0.2323 -0.1041
29177W        W44646   9.193   4.459  14.468 -0.1782 -0.0096 -0.1900
29178W        W44647   6.114  12.483  12.382  0.0625  0.0131  0.0273
29179W        W44648   5.060   6.661   1.786 -0.1641  0.0356 -0.1043
29180W        W44649   1.180  10.142  12.939 -0.2898  0.1067  0.3164
29181W        W44650  11.475   5.791   3.095 -0.0158 -0.0424 -0.1922
29182W        W44651  15.823   9.964  15.018 -0.0514 -0.1276  0.2238
29183W        W44652  18.478  15.322   0.574  0.3108  0.1188 -0.2686
29184W        W44653  10.375  16.705  14.529 -0.0617  0.1625 -0.2448
29185W        W44654  17.760   3.305  12.576  0.2082  0.2567 -0.0976
29186W        W44655  16.464  15.556   4.485 -0.1814  0.0132 -0.4791
29187W        W44656  10.166   4.956   5.521  0.3303 -0.0614  0.0320
29188W        W44657  18.273  16.010  11.606  0.0087  0.1931  0.0930
29189W        W44658  12.263   1.454   2.797 -0.1673  0.1645 -0.0866
29190W        W44659   8.382   2.753   4.413 -0.0682  0.0671  0.1432
29191W        W44660   9.765   0.415   1.118 -0.0434  0.3834  0.1001
29192W        W44661  10.547  12.820   6.086  0.1007 -0.0617 -0.0019
29193W        W44662  17.555   1.663  10.668 -0.1871 -0.1323  0.1100
29194W        W44663  11.356  12.161  12.238  0.0147 -0.0724 -0.0609
29195W        W44664   3.495   4.510   0.046  0.2515  0.0829  0.1538
29196W        W44665  10.791   3.265   3.135 -0.0268  0.1035 -0.0554
29197W        W44666   9.277   5.427   2.192  0.1624 -0.0839 -0.0003
29198W        W44667  17.300  11.392   2.393 -0.0989 -0.0454 -0.2719
29199W        W44668  13.982   6.527   4.707  0.0316 -0.3359  0.0238
29200W        W44669   0.607  10.094  12.071  0.4448 -0.0820 -0.2233
29201W        W44670   4.212   1.864   2.607  0.1017 -0.0496 -0.1467
29202W        W44671   1.303   4.630   2.091 -0.4519 -0.2467  0.4163
29203W        W44672   7.314  12.664  14.283 -0.4165 -0.2430  0.2820
29204W        W44673  14.244  11.768  11.605  0.1255 -0.1117  0.0317
29205W        W44674   2.315   6.801   3.228 -0.0880  0.0980  0.2076
29206W        W44675  12.019   6.639  15.596  0.0535  0.2248  0.0665
29207W        W44676   7.976  11.259  13.508 -0.2693  0.0586  0.0640
29208W        W44677  10.307   0.371  11.358 -0.2060  0.2971 -0.0723
29209W        W44678  17.835  11.969   1.477  0.1212  0.1861  0.0608
29210W        W44679   7.219  13.037  13.456  0.2001 -0.0781 -0.1681
29211W        W44680   7.803   8.202  14.598 -0.1159  0.0223 -0.1246
29212W        W44681  13.030   6.244  11.485 -0.1612 -0.0599 -0.0094
29213W        W44682   5.024   3.910  13.145 -0.1916  0.2566  0.1932
29214W        W44683   0.527  13.737   0.136  0.1909 -0.1584  0.3514
29215W        W44684   6.592  18.664  12.826 -0.2285  0.3156  0.1162
29216W        W44685   6.030  13.851   5.030  0.1512 -0.3861  0.2386
29217W        W44686  10.973   5.750   2.180 -0.3102  0.1258  0.0806
29218W        W44687   7.420   0.050  12.227 -0.0273  0.3730  0.0653
29219W        W44688   3.680  13.890  15.172 -0.0168  0.3511  0.3646
29220W        W44689   8.839  10.833   2.287  0.0935 -0.2740 -0.2071
29221W        W44690  16.239   3.192  14.822  0.3042 -0.0810  0.0240
29222W        W44691   9.339  17.095   3.720  0.1711 -0.1204 -0.1631
29223W        W44692   1.111  11.705  11.513  0.0994 -0.0624 -0.2784
29224W        W44693  14.001  12.615   3.882  0.1560  0.0189  0.4182
29225W        W44694   1.425  13.960   0.736  0.0548  0.0132  0.2785
29226W        W44695   5.865   8.668  15.116 -0.0639 -0.0857 -0.4197
29227W        W44696   5.929   6.322  14.192 -0.2403  0.0642  0.4804
29228W        W44697   4.959   7.899  11.871 -0.2556 -0.0326  0.3659
29229W        W44698   2.019  10.109   5.358 -0.0487 -0.0719 -0.3979
29230W        W44699   6.624   8.313   2.062  0.0438  0.0285  0.1302
29231W        W44700   5.323   3.513  12.190 -0.1744  0.2502 -0.3423
29232W        W44701  17.516  18.669   3.425  0.1255 -0.4008  0.0084
29233W        W44702  13.493   6.002  12.120 -0.0573  0.2525 -0.3945
29234W        W44703  11.006  18.262   0.276  0.0064 -0.2136 -0.1352
29235W        W44704  13.105  17.258  11.529  0.4036 -0.0467  0.3053
29236W        W44705   6.105  17.251   2.219  0.1571  0.0629  0.0107
29237W        W44706   9.644   0.546   2.717 -0.0584 -0.1690 -0.1562
29238W        W44707   3.504  11.643  13.149 -0.1303  0.1653 -0.1307
29239W        W44708  17.448  13.371   1.094 -0.3120  0.1211 -0.0362
29240W        W44709  10.894  16.064   0.866  0.1425 -0.1137 -0.1641
29241W        W44710  17.929   9.888  11.736 -0.5635  0.0542 -0.0482
29242W        W44711   1.654  13.481  11.965 -0.1736  0.2971  0.0314
29243W        W44712   1.512   2.741  12.674 -0.1125  0.1357 -0.0209
29244W        W44713  12.782   2.295  12.245  0.0827 -0.0748  0.2330
29245W        W44714   9.978   1.991   5.552  0.2089  0.1974  0.0448
29246W        W44715  10.529   5.281  13.735  0.0742 -0.2196  0.1827
29247W        W44716   5.298   4.950   2.232  0.0313 -0.0200 -0.1331
29248W        W44717   0.776   4.529  12.974 -0.1857 -0.1048  0.0185
29249W        W44718  10.601  12.148   3.611 -0.0079 -0.1392  0.0522
29250W        W44719   0.708  11.287   4.782 -0.1346 -0.0553  0.0953
29251W        W44720  12.163  14.679   3.883 -0.0208 -0.1850 -0.2795
29252W        W44721  14.162   7.086  13.024 -0.1078  0.0375  0.0561
29253W        W44722  10.012  16.348  12.916  0.1813  0.3163 -0.0831
29254W        W44723  11.578  16.362   3.502 -0.0051 -0.3189 -0.2222
29255W        W44724   9.667  16.274  11.556 -0.2095  0.0742 -0.0959
29256W        W44725  11.380  17.083  14.133 -0.3210 -0.3606  0.0861
29257W        W44726  16.899  18.086   0.880  0.1770 -0.1533  0.1870
29258W        W44727   6.677   3.312  13.531  0.3303  0.1711 -0.0268
29259W        W44728   4.578   7.815   3.463  0.3216 -0.0890  0.1064
29260W        W44729   1.654   7.442   2.741  0.0430  0.1837 -0.0356
29261W        W44730  11.536  17.386  13.687  0.2040 -0.2281  0.0239
29262W        W44731   4.264  17.974   4.285 -0.2368 -0.2516 -0.0674
29263W        W44732   5.702   0.487  13.759  0.1261  0.0002  0.5287
29264W        W44733   1.130   2.164   4.155  0.1460  0.4729 -0.1807
29265W        W44734   5.927   6.056  10.744 -0.0519 -0.4341 -0.0891
29266W        W44735  10.568  13.119   3.647 -0.0971 -0.1662 -0.1788
29267W        W44736  13.036   6.385   2.444  0.0362  0.0895 -0.2466
29268W        W44737  13.948   1.625  11.772 -0.1085 -0.1604 -0.1744
29269W        W44738   3.882  15.034   3.868  0.0136 -0.3208 -0.2983
29270W        W44739   6.066  12.786  11.247 -0.0506  0.2043 -0.0594
29271W        W44740   4.020  13.319   3.299 -0.2140  0.0882 -0.0970
29272W        W44741  11.082   9.639   1.438  0.1104  0.2216  0.1679
29273W        W44742  10.219   8.408   4.232  0.0772 -0.2944  0.1224
29274W        W44743   6.862   1.038  14.974 -0.2328 -0.1225 -0.0400
29275W        W44744  17.251   0.682  13.682  0.1043  0.2780  0.2668
29276W        W44745  11.064  13.707  14.368 -0.3481  0.1499  0.0021
29277W        W44746   0.329  11.823   5.794 -0.1657  0.2332  0.2428
29278W        W44747  18.540  18.329   2.630 -0.0213 -0.3005  0.1119
29279W        W44748  14.578  12.556  13.757 -0.3741  0.2205  0.1243
29280W        W44749   3.308   6.691   4.738 -0.2256  0.0290 -0.0151
29281W        W44750  14.709  12.596   3.269 -0.1734  0.0302  0.3044
29282W        W44751  11.318  16.321  15.452  0.0399  0.0148 -0.0931
29283W        W44752  16.506  15.289   0.190  0.0135  0.0514 -0.0557
29284W        W44753  13.293  12.781   0.509 -0.1538  0.0191  0.1070
29285W        W44754   4.237   9.597  12.340 -0.1787  0.2301 -0.2504
29286W        W44755   1.207   3.298   0.740  0.0550  0.1166  0.3435
29287W        W44756  14.582   3.549  15.139  0.1385  0.0555  0.0419
29288W        W44757   3.286  11.554  14.189 -0.1028  0.0715 -0.4647
29289W        W44758   7.043   4.592   1.562 -0.2487  0.0798 -0.1137
29290W        W44759   6.243   4.955  14.955  0.3537 -0.0578 -0.3642
29291W        W44760  14.738   5.376   4.738  0.1118  0.0971  0.2697
29292W        W44761   4.443   3.428   2.575 -0.0016 -0.1446 -0.1429
29293W        W44762  13.456   1.481   9.691 -0.0711  0.0775  0.2179
29294W        W44763   9.887  10.460   4.357 -0.1689 -0.1336  0.0852
29295W        W44764  16.533   4.886  13.410  0.1177  0.2129  0.1031
29296W        W44765  10.332   2.847   2.323  0.0782  0.0172 -0.0649
29297W        W44766  17.620  15.668   2.917 -0.2782  0.1263 -0.0907
29298W        W44767   5.392  15.011  12.673  0.1188 -0.2976  0.1083
29299W        W44768   7.275   7.168   3.423 -0.0881  0.0219 -0.2541
29300W        W44769  11.919   1.048   1.916 -0.3674  0.0538 -0.0212
29301W        W44770  10.625  17.256   3.698 -0.1820 -0.1226  0.1569
29302W        W44771  14.964  14.416   3.432  0.0335 -0.2220 -0.0646
29303W        W44772  14.836   7.600   2.984 -0.0886 -0.0264  0.1034
29304W        W44773   8.084  18.559   3.578 -0.0408 -0.2350 -0.4199
29305W        W44774   8.245   2.698  11.613 -0.0006 -0.0731  0.0713
29306W        W44775  13.609  10.052   3.686 -0.0530  0.1492  0.1363
29307W        W44776   1.258  16.235  11.720 -0.1277  0.0135 -0.0276
29308W        W44777   2.046  11.461  12.113 -0.1323 -0.0335 -0.2760
29309W        W44778  11.380  15.743  15.477  0.3321  0.2034 -0.2398
29310W        W44779   3.636  15.546  10.884  0.1997 -0.2095 -0.3191
29311W        W44780  12.397   9.563  11.413  0.0293  0.0598  0.1364
29312W        W44781  15.988   3.114  13.254 -0.1806 -0.0985  0.3159
29313W        W44782  15.812  12.106   1.532 -0.2307  0.0527  0.3854
29314W        W44783   2.492   5.780  11.356  0.1512  0.3658  0.0859
29315W        W44784   5.105   3.632  14.392  0.1139 -0.0248  0.0039
29316W        W44785   7.985   7.928   2.119  0.1309 -0.1938  0.0769
29317W        W44786   3.077  13.560  12.900  0.0411  0.3293 -0.0159
29318W        W44787   4.565  14.039   3.826 -0.0435  0.1173  0.0049
29319W        W44788   2.214   5.421   3.997  0.0695  0.0242 -0.0865
29320W        W44789  14.006  10.043   2.483  0.2557  0.3705  0.1730
29321W        W44790   0.747   2.483   4.035  0.2176  0.3786  0.1324
29322W        W44791   2.189  17.748   1.246  0.3357 -0.1402  0.3161
29323W        W44792  16.866   6.055  13.186 -0.3005 -0.0074  0.3866
29324W        W44793  18.579  14.269  10.917 -0.3189 -0.1635 -0.0379
29325W        W44794  13.020   8.793  12.750 -0.1044 -0.2503  0.1773
29326W        W44795  18.198   2.176  10.428  0.1113  0.2071 -0.2270
29327W        W44796   6.039  11.631  13.361  0.0873 -0.2071  0.2259
29328W        W44797  13.614  12.885   4.611 -0.0829  0.2203  0.1687
29329W        W44798  15.755  16.311   4.266  0.0813 -0.3302 -0.3598
29330W        W44799  15.005  17.425  12.716  0.0573 -0.1314  0.0542
29331W        W44800   8.159   5.427   5.944 -0.2298 -0.4053  0.0291
29332W        W44801  15.896   8.134  10.369  0.2117  0.4135 -0.2840
29333W        W44802   7.575  11.648  12.861 -0.2007  0.1476 -0.0106
29334W        W44803   2.499  16.466  15.396 -0.1142 -0.3051  0.0917
29335W        W44804   4.483   2.686   4.218 -0.1488 -0.2698 -0.0228
29336W        W44805  16.851  14.524  15.413  0.1951 -0.1731  0.2546
29337W        W44806  18.648   9.306   3.834  0.0500 -0.0683  0.1464
29338W        W44807  18.305  11.880   3.282  0.1554 -0.0489  0.0483
29339W        W44808  14.697   3.037   1.960  0.0259  0.3561  0.0917
29340W        W44809   5.162  15.544  15.386  0.2699 -0.4900  0.0970
29341W        W44810   2.939  18.017  12.919 -0.2192 -0.4192  0.2275
29342W        W44811  17.290   4.888   0.108  0.1532  0.1935  0.1449
29343W        W44812   4.676  12.273  13.037 -0.1425 -0.3636 -0.0788
29344W        W44813  12.824   5.898  10.801 -0.2189  0.0334  0.1556
29345W        W44814   6.129   1.454  10.949 -0.2097  0.1742 -0.0789
29346W        W44815   0.441  17.633   2.452 -0.1050 -0.2002  0.0803
29347W        W44816   4.011   5.590   1.177 -0.1856  0.1490 -0.2996
29348W        W44817  15.272   3.551   1.029 -0.3373 -0.0353  0.0365
29349W        W44818   0.294   2.032   0.010  0.0866  0.1354  0.0603
29350W        W44819  12.222   6.950   1.457  0.3018  0.3946  0.2100
29351W        W44820  14.467  12.035  12.026 -0.2875 -0.1846  0.3567
29352W        W44821   5.765   3.971   1.367  0.0019  0.0852  0.2663
29353W        W44822   7.893  15.148  14.740  0.1600  0.2362 -0.2419
29354W        W44823   6.956  11.628  14.207 -0.1852 -0.1611 -0.0543
29355W        W44824  18.604   9.767   2.892 -0.4319  0.1097 -0.0325
29356W        W44825  10.530   3.836  13.085  0.2632 -0.1217 -0.0941
29357W        W44826   3.698   9.286  12.618  0.0539 -0.1551 -0.1852
29358W        W44827  17.117  11.707  12.584 -0.0183  0.2677 -0.1582
29359W        W44828   7.932   5.049  13.807  0.0528  0.4280  0.1348
29360W        W44829   7.643   6.431   1.533 -0.2834  0.0757  0.2579
29361W        W44830   3.325   5.871  15.507 -0.2502  0.0638 -0.1031
29362W        W44831  13.093   1.126  10.414 -0.0852  0.0494 -0.2024
29363W        W44832  17.598  17.902  13.616 -0.1135  0.1235  0.0768
29364W        W44833  16.509  12.592   0.692 -0.2511 -0.1330  0.2490
29365W        W44834   0.279   7.811   4.358 -0.0265  0.0027  0.0076
29366W        W44835   5.183   4.742  14.714  0.1635 -0.0469  0.1612
29367W        W44836   8.765   1.038   4.105 -0.0268 -0.0389 -0.0503
29368W        W44837   9.659   5.400   3.822  0.0389 -0.0463  0.0097
29369W        W44838   0.730  16.625   0.551  0.2211  0.1183  0.0813
29370W        W44839  14.294   4.597   2.795  0.4473  0.1020 -0.1786
29371W        W44840   0.924   8.186  10.412 -0.1246 -0.0987 -0.0256
29372W        W44841  12.692  10.214   0.794 -0.1594 -0.0866 -0.1810
29373W        W44842  17.680  17.497  12.709 -0.1171  0.0863 -0.0443
29374W        W44843   6.879  14.879   4.949  0.0989  0.1020 -0.0562
29375W        W44844   7.927   6.468  15.278 -0.0521 -0.2501  0.3462
29376W        W44845   2.624  11.487   2.640 -0.1508 -0.2325 -0.1277
29377W        W44846  17.078   1.033  14.022  0.1583  0.0268  0.1014
29378W        W44847   2.167   7.539   1.305 -0.0413  0.0586 -0.2624
29379W        W44848  14.053  17.694  10.244  0.2116  0.2461 -0.1588
29380W        W44849   5.746  10.812  14.697  0.0265  0.1672  0.2931
29381W        W44850   0.417  15.103   5.602 -0.0684 -0.0662  0.0056
29382W        W44851  14.501  13.341  11.354 -0.3312  0.1785  0.2827
29383W        W44852   4.086   7.693   0.132 -0.2184 -0.1030 -0.3393
29384W        W44853  17.692  17.041   4.166 -0.2590  0.2316 -0.0093
29385W        W44854  16.731   8.246  15.011 -0.0096  0.0941 -0.1593
29386W        W44855   6.446   5.317  14.650  0.1787  0.0608  0.3679
29387W        W44856  16.444  13.208  12.943 -0.4407 -0.0276  0.2392
29388W        W44857   1.016   8.886   2.382  0.4278 -0.4528  0.1900
29389W        W44858  11.619   8.321  15.182  0.0664 -0.1882 -0.1306
29390W        W44859  14.561  11.148  10.992  0.0151 -0.0565  0.0331
29391W        W44860  18.560   1.758  14.388  0.0853 -0.0016  0.1356
29392W        W44861  13.016  12.845   1.765 -0.1457 -0.5804  0.0149
29393W        W44862  13.015   0.023  14.459  0.2638  0.2630 -0.1895
29394W        W44863   0.426  12.858   4.244 -0.0754  0.1540 -0.3581
29395W        W44864  16.553   8.571  13.196 -0.3517 -0.1792  0.0765
29396W        W44865   7.260   0.536   2.008 -0.0933  0.1216  0.4568
29397W        W44866  11.128  18.005   2.754  0.2976 -0.1039 -0.1138
29398W        W44867  13.833   6.786   0.997  0.0748  0.2416  0.2717
29399W        W44868  15.845  11.142   0.849 -0.1047  0.2351  0.1199
29400W        W44869   9.347  13.176   3.953  0.2677  0.0908  0.0275
29401W        W44870   2.894   2.757  10.685 -0.0547 -0.0597 -0.0211
29402W        W44871   4.783   5.534   4.476 -0.0701  0.0806  0.1037
29403W        W44872   9.842  13.056   4.166  0.1110 -0.1779 -0.2477
29404W        W44873   8.351   2.517  14.617  0.0756 -0.2011 -0.1365
29405W        W44874   3.613   0.247   4.201  0.3201  0.0647  0.0824
29406W        W44875  17.168   6.753   1.809 -0.0484  0.0463 -0.3964
29407W        W44876  15.141   1.992  13.825  0.2968 -0.0866  0.2042
29408W        W44877   8.406  18.578  11.812  0.1601  0.0684 -0.1690
29409W        W44878   7.682  17.579  13.793  0.2931 -0.1831 -0.0567
29410W        W44879  17.695  11.619  13.490  0.1566  0.1709  0.0016
29411W        W44880  16.599  13.613   2.181 -0.0359 -0.0570  0.0947
29412W        W44881   2.076   5.627   0.032  0.0262  0.2298  0.1434
29413W        W44882  17.468  18.095   3.468  0.1633  0.1296 -0.0895
29414W        W44883   9.409   7.782   2.012 -0.0708 -0.0175  0.0549
29415W        W44884   9.456   9.080   0.725 -0.2053 -0.0389 -0.0326
29416W        W44885   3.032  16.575   2.530  0.2346  0.0995 -0.2147
29417W        W44886   7.745   9.108   5.863  0.2753 -0.0628 -0.2720
29418W        W44887  15.934   6.762   0.019  0.4047 -0.0085  0.1549
29419W        W44888   7.151  11.389  14.660  0.1621  0.2903  0.0722
29420W        W44889  16.084  12.306  12.852 -0.0349 -0.1428  0.0454
29421W        W44890  11.488  10.758   2.447 -0.0341 -0.0209  0.2940
29422W        W44891   8.179  10.550   1.596 -0.3521 -0.0359  0.1878
29423W        W44892   3.786   0.094  14.322 -0.0160  0.1448 -0.1091
29424W        W44893  18.663   1.922  10.746 -0.1963  0.0764  0.0323
29425W        W44894   3.728  12.593  11.045  0.0608  0.0645 -0.0306
29426W        W44895   9.252   3.450   4.000  0.0556 -0.2532  0.2828
29427W        W44896  14.856   0.844   1.620 -0.0672 -0.2143  0.0668
29428W        W44897   6.895   8.119   5.065 -0.2194  0.2799  0.0171
29429W        W44898   8.523   3.314  13.345  0.1752  0.2018  0.2212
29430W        W44899  11.808  17.297  13.241  0.2939 -0.2045  0.1851
29431W        W44900   0.085  13.799   5.401 -0.0784 -0.1442 -0.1127
29432W        W44901  11.490  11.299  11.310 -0.1690  0.0469 -0.1793
29433W        W44902   8.835  15.934   1.250 -0.2723  0.1034  0.1759
29434W        W44903  11.506   4.811   1.404 -0.2897 -0.0424 -0.0646
29435W        W44904   0.179  13.178   1.688  0.1616 -0.2716  0.1362
29436W        W44905  14.788  15.153  14.907  0.2810 -0.1514 -0.0551
29437W        W44906  15.265  14.914   2.054 -0.3296  0.1274  0.1041
29438W        W44907   4.316   9.019   5.834 -0.0764  0.0800 -0.2261
29439W        W44908   9.799   8.649  10.562 -0.0304  0.2776  0.0948
29440W        W44909   9.624  14.689   4.888 -0.1294 -0.0288 -0.2938
29441W        W44910   9.235   8.614  11.330  0.2545  0.0097  0.2181
29442W        W44911  13.277  13.782   0.702 -0.0548 -0.0817  0.0824
29443W        W44912   8.142   4.282  13.178 -0.0623 -0.0824  0.0844
29444W        W44913  10.976   8.661   1.035 -0.1162 -0.1112 -0.1989
29445W        W44914  10.423  10.194   1.639  0.0400 -0.0070 -0.2854
29446W        W44915   2.737  14.004   2.106  0.1131 -0.1142  0.0825
29447W        W44916  11.556  10.243  13.125  0.0677  0.0579 -0.1680
29448W        W44917   7.675  12.781  11.510 -0.3659 -0.2760  0.2815
29449W        W44918   1.718  18.186   0.586  0.2166  0.0632  0.0634
29450W        W44919   9.712   1.774   5.139  0.1145 -0.4193 -0.0229
29451W        W44920  18.376  15.144   0.028  0.0811 -0.0836 -0.2231
29452W        W44921  12.494  18.142   1.945 -0.2840  0.1364 -0.2432
29453W        W44922  14.386  11.686   2.354  0.1559 -0.4714  0.0704
29454W        W44923   2.793  16.248  12.571 -0.2167 -0.0130  0.0903
29455W        W44924  12.164  16.010  10.602  0.1168  0.1258 -0.2202
29456W        W44925  18.356   2.472  12.869 -0.1654  0.0908  0.0898
29457W        W44926  11.997   3.114   2.920  0.0793  0.2168 -0.0061
29458W        W44927   7.363  17.987   5.635 -0.2122  0.2036  0.2734
29459W        W44928   8.882  14.907   2.027 -0.3593 -0.0893  0.0333
29460W        W44929   5.562   8.563   5.385  0.2398  0.0702  0.6117
29461W        W44930  14.071   9.647   0.246 -0.1961 -0.2827  0.2564
29462W        W44931  18.406   6.361   1.380 -0.1477  0.2407  0.3221
29463W        W44932  11.061  10.202   1.357  0.0051  0.0319  0.1186
29464W        W44933   1.067  11.340  10.844  0.1204  0.2227 -0.0054
29465W        W44934  13.103  15.610  12.364 -0.0317 -0.0232 -0.0068
29466W        W44935  15.863  13.443   5.119  0.2909 -0.0972  0.0559
29467W        W44936   1.183  13.027   1.750 -0.0945  0.0567  0.1103
29468W        W44937  13.286   2.485   0.589  0.1423  0.0182  0.1092
29469W        W44938  10.286  11.958   3.972  0.1720  0.0724 -0.1152
29470W        W44939   0.494  10.257   3.681 -0.3587  0.0910  0.1562
29471W        W44940   8.686  12.713   3.846 -0.0954 -0.1271 -0.2143
29472W        W44941  13.845  11.107   4.781 -0.1658  0.0341  0.0754
29473W        W44942   1.464  13.131  10.695  0.1155  0.3656 -0.1490
29474W        W44943   2.041  13.198  13.781 -0.5283 -0.2890  0.1039
29475W        W44944   9.836  10.009   1.719 -0.2141 -0.2493 -0.1012
29476W        W44945  16.496  14.857   0.434  0.1998 -0.1360 -0.0558
29477W        W44946  17.199  13.195  13.744 -0.1797 -0.0585 -0.0063
29478W        W44947  12.619  12.438  14.996 -0.3692 -0.2348  0.1049
29479W        W44948   8.850  12.299  11.401  0.0084 -0.4049  0.2699
29480W        W44949   9.124  11.219  11.490 -0.4182  0.1696 -0.2984
29481W        W44950  10.222  15.715   0.779  0.1947  0.0167 -0.1644
29482W        W44951  10.271   8.523  10.448  0.0290 -0.0402  0.0167
29483W        W44952   8.127  12.426   1.213  0.1495  0.3124  0.0050
29484W        W44953   2.067  12.741  15.287  0.0635  0.2124 -0.2800
29485W        W44954  11.116  13.390  14.769 -0.0673 -0.1518 -0.0411
29486W        W44955   9.903   7.981  12.343 -0.0993 -0.0153 -0.3000
29487W        W44956   8.594  11.661  15.756 -0.1812  0.0831 -0.1067
29488W        W44957  12.692  16.018   5.668 -0.3162  0.2487  0.2057
29489W        W44958  14.823   7.014  12.280 -0.0625 -0.2406  0.3114
29490W        W44959   7.412  11.955   4.559 -0.0429 -0.0736 -0.1365
29491W        W44960  16.672   9.672  15.192 -0.0318 -0.1276 -0.1780
29492W        W44961  13.560  15.786   1.676 -0.0266 -0.0263 -0.2877
29493W        W44962  14.837   2.750  12.495  0.0812  0.2235 -0.3383
29494W        W44963   8.826   1.087  10.709  0.2639  0.0491  0.0876
29495W        W44964   1.815   2.216  15.631  0.1694 -0.3098  0.0334
29496W        W44965   2.706  10.108   4.022  0.0798 -0.1910  0.0386
29497W        W44966  15.761   6.657   2.860  0.0997 -0.0112 -0.0194
29498W        W44967   3.960   6.271  15.688 -0.1372  0.2870 -0.1120
29499W        W44968   6.112  16.065   1.265 -0.1681 -0.0311  0.0052
29500W        W44969   7.327   1.786  12.531 -0.0621  0.2021 -0.0949
29501W        W44970   7.873  18.638   5.113  0.0538  0.0542 -0.0429
29502W        W44971  17.575  11.879   2.355 -0.1806  0.0027 -0.1259
29503W        W44972  13.046  12.224   5.031 -0.3538  0.1883  0.2202
29504W        W44973  11.137   3.268  13.332  0.1191 -0.0723  0.2107
29505W        W44974   9.271   4.242   2.970  0.0006  0.2016 -0.0861
29506W        W44975   6.841  17.620  10.592  0.0298 -0.1593  0.0736
29507W        W44976   6.858   3.437   0.668  0.1795  0.3874 -0.1897
29508W        W44977   8.109   7.667   0.641 -0.1437  0.1197 -0.0584
29509W        W44978   1.137  10.275  11.042  0.0193  0.0387  0.1556
29510W        W44979   8.508  12.154  15.338 -0.1666 -0.2829 -0.2633
29511W        W44980   9.139  10.420  13.530  0.0417  0.0469  0.1633
29512W        W44981   3.343  12.672   1.243  0.0009  0.0151 -0.3976
29513W        W44982  11.056   5.269   1.977 -0.0775  0.1198  0.2103
29514W        W44983  12.714   1.438   2.590  0.0512 -0.0832 -0.2306
29515W        W44984  17.148  16.158  15.704 -0.0646 -0.0591  0.0083
29516W        W44985  11.031   4.953  14.782 -0.3515 -0.1558 -0.0521
29517W        W44986  11.244   7.634  10.601  0.2186  0.0517 -0.0451
29518W        W44987  10.972  15.063   2.462  0.2917  0.1683 -0.0569
29519W        W44988  11.796   9.666   3.583 -0.0774  0.0433 -0.2033
29520W        W44989  17.474   7.226   0.550  0.2583  0.0089  0.0046
29521W        W44990  13.847   5.748  12.490 -0.0217  0.0702  0.4433
29522W        W44991  12.476  16.840   4.714  0.0361 -0.2300 -0.0155
29523W        W44992  15.145   9.452  11.779  0.1559  0.1259 -0.0308
29524W        W44993   5.616  12.707  13.600  0.1365 -0.1474  0.0271
29525W        W44994  11.722   4.132   3.296 -0.0694 -0.1381 -0.1902
29526W        W44995   3.726  12.697  14.537  0.0277 -0.2830 -0.2652
29527W        W44996  15.026   1.242  13.096 -0.0433 -0.2790  0.5592
29528W        W44997  10.652   1.938   2.175 -0.1881 -0.0209  0.2497
29529W        W44998   2.904  13.358   3.046  0.0808 -0.0603 -0.0529
29530W        W44999  12.171   8.174   3.638 -0.3000 -0.1307  0.1273
29531W        W45000  17.737   3.511   2.529  0.1560 -0.0014  0.1579
29532W        W45001   3.390   0.626  12.885  0.0173  0.1000  0.0220
29533W        W45002  14.005   7.517   1.625 -0.0565  0.0218  0.2338
29534W        W45003   4.391   1.630  13.345  0.1581 -0.1191  0.0439
29535W        W45004   0.314   6.529   4.742 -0.0549  0.0386 -0.0742
29536W        W45005   0.737   5.697   1.506  0.4680 -0.5022  0.0846
29537W        W45006   8.565   7.357   1.488  0.1912  0.3855 -0.0552
29538W        W45007   4.653  15.756   0.293 -0.3353  0.1436 -0.1008
29539W        W45008  16.560  12.065  11.462 -0.0961 -0.1050  0.2113
29540W        W45009  17.368   6.620  15.386  0.0270 -0.0465 -0.3563
29541W        W45010   2.712  14.326  11.256  0.2911 -0.3357  0.0794
29542W        W45011  18.466   8.821   4.653  0.4277 -0.0146  0.0658
29543W        W45012   5.652  18.116  15.066 -0.3294  0.0624  0.1404
29544W        W45013   8.782   5.951  11.546  0.1213 -0.3217  0.1654
29545W        W45014   7.470  15.576   4.113 -0.0709 -0.1098 -0.0564
29546W        W45015  14.016  11.305   4.319  0.3288  0.3678 -0.1586
29547W        W45016   3.339   9.414  11.215 -0.1523  0.1052 -0.0305
29548W        W45017   3.410  14.304  13.900  0.1071 -0.0719 -0.0819
29549W        W45018   8.734   6.016  13.077  0.0026 -0.0189 -0.0634
29550W        W45019   4.439   3.797   4.407  0.2615 -0.0422  0.0756
29551W        W45020   5.724  14.511   9.913  0.3206  0.0244 -0.1234
29552W        W45021  10.274   4.646  12.317  0.1099  0.0365 -0.0782
29553W        W45022   6.085   9.993   1.271 -0.0789  0.3099 -0.1234
29554W        W45023   4.462  13.314  14.887  0.2900 -0.0353  0.1842
29555W        W45024   4.019  12.315  12.390 -0.1330 -0.0392  0.0279
29556W        W45025  12.046   9.364  12.882  0.1496 -0.0573  0.1306
29557W        W45026   5.267   9.482   3.384 -0.3294 -0.0949 -0.0342
29558W        W45027   3.433   5.493   0.021  0.1172  0.0127  0.1848
29559W        W45028   7.956   5.763  11.686 -0.0806  0.1603 -0.2435
29560W        W45029  13.332   9.789  11.863 -0.2783  0.1496 -0.2368
29561W        W45030  18.142   6.125   2.126  0.0255 -0.0876  0.3640
29562W        W45031   5.089   4.126   5.058 -0.1163 -0.0257 -0.0205
29563W        W45032   3.281   1.962   3.575  0.0770 -0.0313  0.2565
29564W        W45033   6.951  12.155  15.009 -0.2498  0.0466 -0.0305
29565W        W45034   5.680   8.217  13.787 -0.1086 -0.0055 -0.0202
29566W        W45035  13.491   1.696   1.212 -0.0508 -0.0625 -0.1536
29567W        W45036  14.171  16.805   3.819  0.1791 -0.1548  0.1320
29568W        W45037   4.160   9.457  15.175  0.0227  0.0030  0.2162
29569W        W45038  10.957   3.374   4.624 -0.4677 -0.2210  0.1451
29570W        W45039  15.215  10.789   4.278 -0.2591 -0.1920  0.1731
29571W        W45040   0.833  14.668  12.446 -0.0493 -0.1253  0.1496
29572W        W45041   8.446  15.997   3.181  0.1492 -0.3480 -0.0663
29573W        W45042   3.933  16.205   0.252  0.0296 -0.1899  0.0589
29574W        W45043  18.268  16.308  11.995 -0.1595  0.1963  0.2177
29575W        W45044   6.992  13.126  13.031 -0.1251  0.0807  0.0611
29576W        W45045  16.402   8.816   0.481  0.0891 -0.0186  0.1085
29577W        W45046  16.296   3.533  14.026  0.2810  0.0642 -0.1106
29578W        W45047  14.761   7.202  11.828  0.0505 -0.2545 -0.0619
29579W        W45048  15.846  14.887  14.556 -0.1357 -0.1868 -0.2569
29580W        W45049   9.284   6.194  12.234  0.2494  0.0568  0.0424
29581W        W45050  13.636  11.220   3.455  0.3277 -0.1332 -0.0746
29582W        W45051   4.496  17.739  15.609  0.1601 -0.1257 -0.3408
29583W        W45052  14.846  17.698  10.261  0.1942 -0.2293  0.1297
29584W        W45053   2.893   6.724   0.137  0.4376  0.1177 -0.0341
29585W        W45054   9.866   9.046   5.742 -0.3565 -0.1615 -0.1471
29586W        W45055  13.220   7.408  12.579  0.0386 -0.0676 -0.0018
29587W        W45056   6.050  18.559   4.485  0.1578 -0.4360 -0.2718
29588W        W45057   4.562   3.182   9.505  0.0130  0.0404  0.3530
29589W        W45058  17.220  16.583  14.927 -0.3243 -0.1970  0.1282
29590W        W45059   4.931   7.676   5.396  0.2155 -0.3402 -0.0983
29591W        W45060   5.191   2.976  10.942 -0.1505 -0.2605  0.2630
29592W        W45061   4.110  16.273   4.019  0.2567  0.1836  0.2103
29593W        W45062  11.783  10.785  13.063  0.1618  0.0074 -0.1609
29594W        W45063  14.873  12.631   0.569 -0.2068  0.1074 -0.4122
29595W        W45064  17.366   1.192  10.615 -0.0197  0.1556 -0.0311
29596W        W45065  16.709  15.719   1.084 -0.0015  0.2961 -0.0796
29597W        W45066   2.829  11.684  10.349  0.1939 -0.0310 -0.0041
29598W        W45067  14.068  17.804  15.299 -0.3453  0.2162 -0.5909
29599W        W45068  10.491  15.522  11.087  0.3494  0.1612  0.2520
29600W        W45069  14.368  16.051   5.768 -0.4285  0.1157 -0.2652
29601W        W45070  12.927  18.117  10.660 -0.0925 -0.0466 -0.0886
29602W        W45071   9.938  11.890  14.200 -0.0083  0.0355  0.2156
29603W        W45072  10.255   7.634   4.814 -0.0478 -0.0368  0.1463
29604W        W45073  15.566  14.313   1.553  0.0091  0.0013 -0.1550
29605W        W45074   4.948  14.258  10.633 -0.2352  0.0820 -0.0733
29606W        W45075  17.898  10.118  12.466 -0.1306 -0.0230  0.1060
29607W        W45076  11.122   5.437   4.245 -0.1200 -0.0849  0.0283
29608W        W45077   9.561  13.971   4.423  0.2199  0.1112  0.3075
29609W        W45078  11.185   9.067  12.648  0.0582 -0.1754 -0.1828
29610W        W45079   0.475   3.635   2.740  0.1718 -0.1871 -0.0636
29611W        W45080  11.605   6.646  10.721  0.0719  0.1050 -0.1069
29612W        W45081   1.055  17.506  15.655  0.1583  0.2739 -0.1053
29613W        W45082  15.935  13.076   1.767 -0.0124  0.2082  0.0140
29614W        W45083  18.590  11.563   3.720 -0.2708  0.0022  0.0887
29615W        W45084  11.181  13.426   2.985 -0.0605  0.2259 -0.1853
29616W        W45085   6.452  12.840  15.521  0.4018 -0.2396  0.1327
29617W        W45086  11.777  11.945   2.852 -0.1803 -0.0060 -0.0459
29618W        W45087   6.509  12.887   1.568 -0.0604  0.3406 -0.0124
29619W        W45088  16.301  13.162   2.238  0.1162  0.1415  0.2696
29620W        W45089  14.061   1.895  12.643  0.2916  0.0442 -0.1669
29621W        W45090   9.726  10.613   2.245  0.3479 -0.1239  0.0979
29622W        W45091   2.664   9.664  15.517 -0.0493 -0.0580  0.0421
29623W        W45092   4.581   3.949  12.026  0.1015  0.0753 -0.1113
29624W        W45093  10.104  12.041  15.012  0.1729  0.0944 -0.1190
29625W        W45094   0.382  17.260  10.506  0.0912 -0.3575  0.3318
29626W        W45095   9.652   5.535  11.558  0.1090 -0.4374 -0.2501
29627W        W45096  18.614  13.976  13.011  0.0483  0.1956  0.0180
29628W        W45097  11.946  14.692  14.104 -0.2018 -0.0936  0.1928
29629W        W45098  15.599  13.898  14.938 -0.2817 -0.1302  0.0577
29630W        W45099  12.354  13.703  15.584  0.2372 -0.4002 -0.3357
29631W        W45100  17.802   9.381   2.773 -0.1057  0.1762  0.1627
29632W        W45101   4.552  17.421   3.203  0.0849 -0.1913 -0.1404
29633W        W45102  15.363   5.408  14.021  0.1591 -0.0214 -0.0909
29634W        W45103   3.480   0.722   0.408  0.0687  0.2598 -0.0158
29635W        W45104  14.511  14.903  13.838  0.0363 -0.0844  0.0914
29636W        W45105   3.774   7.469   5.380  0.0880  0.0226  0.1495
29637W        W45106   2.445   6.838  14.845 -0.2500 -0.1478  0.3098
29638W        W45107  17.428  11.770  13.958 -0.1279  0.0369 -0.2653
29639W        W45108  15.544   2.068  12.323  0.0213 -0.1225 -0.1759
29640W        W45109  14.341   7.800   0.511 -0.4177  0.1088  0.1521
29641W        W45110  13.325   6.613  11.760  0.0540 -0.1108  0.1481
29642W        W45111  13.368  10.027   0.038 -0.3611 -0.0032  0.3632
29643W        W45112   3.451   3.689  12.507  0.0523 -0.2214 -0.0833
29644W        W45113   2.836   8.307   3.490  0.1927  0.2971  0.1106
29645W        W45114   3.749   7.332   0.915 -0.0458  0.0935  0.1495
29646W        W45115   2.916  15.352  11.155 -0.0352  0.0655 -0.4488
29647W        W45116   0.356   0.828   3.700  0.0892 -0.0145 -0.1100
29648W        W45117  10.270  14.870   1.380 -0.2983  0.0165 -0.0797
29649W        W45118   1.407   3.427   1.635 -0.3039  0.2026  0.0107
29650W        W45119  17.575  17.634   3.441 -0.2397 -0.0734  0.0009
29651W        W45120   8.314  17.404  12.019  0.0001 -0.0567 -0.0994
29652W        W45121  10.462  12.976   2.349 -0.1775  0.0032 -0.1162
29653W        W45122  14.378   9.816  10.998  0.3142 -0.1484 -0.1510
29654W        W45123  13.708   1.544  12.679  0.1450 -0.1099  0.2972
29655W        W45124  13.894   8.757   3.233  0.1019 -0.0997 -0.2096
29656W        W45125  11.021   8.426  13.950 -0.2148  0.1776  0.0932
29657W        W45126  13.123   2.551  12.496  0.0618 -0.0930 -0.0708
29658W        W45127  10.432   7.604  12.583  0.1893  0.2406  0.1188
29659W        W45128  13.562   4.235   0.423 -0.0167 -0.3028  0.3177
29660W        W45129   7.517   9.686  12.050 -0.1558  0.0804 -0.1694
29661W        W45130   9.286   9.476  15.716  0.0023  0.0597  0.0163
29662W        W45131   4.943   9.883   4.936 -0.0065 -0.0703 -0.0485
29663W        W45132   0.897  14.890   1.223 -0.1455 -0.2021 -0.0977
29664W        W45133  15.566  10.078  11.931  0.0721 -0.2942  0.0407
29665W        W45134  10.005   7.431   1.284 -0.0887  0.2403  0.0450
29666W        W45135   0.775   2.286  15.721  0.4680 -0.0851  0.2043
29667W        W45136   9.845  10.177  13.145 -0.0817 -0.1827  0.2509
29668W        W45137   9.684   4.274   4.372  0.1325 -0.1543 -0.2453
29669W        W45138   2.973  13.900   4.946  0.1519  0.1125  0.0742
29670W        W45139   1.179  13.934   5.116 -0.2363  0.0630 -0.0608
29671W        W45140  10.383  14.298  14.951  0.0941  0.1377  0.2961
29672W        W45141   8.756  13.779   3.832 -0.1130  0.2414 -0.1110
29673W        W45142   4.177  10.079   2.783  0.3936  0.1002  0.4125
29674W        W45143   1.016   6.859  14.040  0.0227  0.0400 -0.2640
29675W        W45144   4.073  10.831  14.169  0.0008 -0.3748  0.0300
29676W        W45145   2.141   4.789  11.758  0.1669 -0.1756  0.0238
29677W        W45146  12.257  16.011  14.040 -0.0740  0.2119  0.1879
29678W        W45147   6.450  11.542   3.324  0.1343  0.1893  0.1935
29679W        W45148   8.520   7.381   0.019  0.1464  0.0824  0.3775
29680W        W45149   1.191  10.233   2.407  0.4480  0.1948  0.1029
29681W        W45150  11.237   8.863  13.101 -0.0512 -0.0874 -0.0856
29682W        W45151   4.159  12.405   0.868  0.3332 -0.0646 -0.1644
29683W        W45152   7.976  10.261   5.202 -0.1664 -0.4015 -0.1626
29684W        W45153  12.403   3.406  12.138 -0.2795  0.2944  0.0167
29685W        W45154  10.965   8.030  11.746 -0.1144  0.0281  0.1815
29686W        W45155   3.972  15.397   1.701  0.0701  0.0847 -0.0767
29687W        W45156   8.478  14.292   0.209  0.4821 -0.1781 -0.3182
29688W        W45157  15.932  16.834   4.883 -0.1298  0.1306 -0.1377
29689W        W45158   2.306  18.294   3.878  0.0486  0.0923  0.2848
29690W        W45159  15.455   9.478  12.694  0.0117  0.0685 -0.0894
29691W        W45160  14.138   0.548   3.621 -0.0878  0.0452  0.3180
29692W        W45161  15.673  14.510  14.142  0.0053  0.2034  0.2155
29693W        W45162   2.637   0.119  13.139  0.0307 -0.1549 -0.2979
29694W        W45163   0.559  13.142  14.145  0.0959 -0.0369  0.1339
29695W        W45164  16.589   0.515  15.690 -0.0562  0.3037  0.0136
29696W        W45165   5.487   4.331   1.076  0.0533  0.1176 -0.1509
29697W        W45166   2.637   4.293  13.037 -0.1886  0.1505 -0.4216
29698W        W45167   4.171   3.475   3.129  0.1256 -0.2999  0.2901
29699W        W45168  18.243  17.651  14.672 -0.1588  0.1050  0.1732
29700W        W45169   4.121  14.159  15.207 -0.0181 -0.0720 -0.2222
29701W        W45170   9.706  12.805  15.110  0.2236  0.0795  0.2434
29702W        W45171   5.519   9.317   1.458  0.0038 -0.1331  0.1031
29703W        W45172   9.712  15.311   3.863 -0.1800  0.1701  0.1445
29704W        W45173   2.226   9.041   2.147 -0.1739 -0.0673 -0.2387
29705W        W45174  17.832  12.039  12.932 -0.2521  0.1454  0.0463
29706W        W45175   6.646   6.011   2.246 -0.3851 -0.3102 -0.1730
29707W        W45176  10.890  17.637   2.982 -0.1400 -0.1062 -0.3716
29708W        W45177   8.210   0.473  13.069 -0.1327  0.1500  0.2156
29709W        W45178  13.390  17.387  14.877 -0.2850  0.4188 -0.1945
29710W        W45179   0.525  14.217  14.991  0.3217 -0.2579 -0.0705
29711W        W45180   5.517  12.020   2.320 -0.2773  0.1673  0.1671
29712W        W45181  10.696  15.646   1.033  0.0634  0.3053  0.1950
29713W        W45182   8.527   4.235   2.333 -0.2206 -0.1382  0.0919
29714W        W45183   0.670  12.384  13.551 -0.1783 -0.3120  0.0431
29715W        W45184  16.271   3.303  11.080  0.3034 -0.0311  0.1167
29716W        W45185   2.194  13.839   1.413 -0.2174  0.1739 -0.1433
29717W        W45186  15.017   4.561   3.515 -0.2018  0.1177  0.2283
29718W        W45187   0.574   2.384   1.559 -0.1190  0.0890 -0.1234
29719W        W45188  14.831   9.162  15.783  0.1724 -0.0577  0.0058
29720W        W45189   3.928  12.657   1.849  0.1817  0.1302  0.1918
29721W        W45190  16.135  15.893  15.527 -0.2319  0.0490 -0.1661
29722W        W45191  18.164   7.237   1.344 -0.1066 -0.0534 -0.1903
29723W        W45192   4.441   6.078   1.949 -0.3701 -0.0422  0.0596
29724W        W45193  11.743  18.245   0.891  0.4386 -0.1814  0.3076
29725W        W45194  15.556  15.245  13.586 -0.1373 -0.2322  0.2408
29726W        W45195   5.521   5.515   3.738  0.1270 -0.6514  0.2268
29727W        W45196   3.157   9.308   3.055 -0.1967  0.0271  0.0919
29728W        W45197   1.156   6.283   0.793 -0.1025 -0.0099  0.0972
29729W        W45198  13.692   9.565  15.694  0.0324 -0.0995 -0.0165
29730W        W45199   2.596  15.111  11.695  0.1085 -0.1631 -0.0807
29731W        W45200  10.948  12.674   3.672  0.0213 -0.0045  0.1964
29732W        W45201   8.162   2.281   2.626  0.0958 -0.2253  0.0260
29733W        W45202  17.197   2.537  12.101  0.1341 -0.0359  0.0117
29734W        W45203   6.305  12.282   2.278 -0.2885  0.0615  0.0927
29735W        W45204  14.917   4.241   3.072  0.3777 -0.0719  0.1544
29736W        W45205   2.671  18.081   4.189  0.3343  0.1799  0.0457
29737W        W45206   1.107   6.041   2.383  0.2826 -0.0095 -0.0872
29738W        W45207   5.945  14.377   3.976  0.0228 -0.0336  0.2038
29739W        W45208  11.966   1.598  10.713  0.3685  0.1391  0.0508
29740W        W45209  10.708   0.537  13.547  0.1080  0.0475  0.1816
29741W        W45210  18.042   8.208   1.481  0.3609  0.1626  0.0358
29742W        W45211   0.221  17.924  15.499  0.2936 -0.0457 -0.0427
29743W        W45212  18.572   6.290   2.935 -0.2053  0.1675 -0.1105
29744W        W45213   5.307  12.695   0.692 -0.1995  0.1004 -0.1410
29745W        W45214   8.829   5.949  12.048 -0.0788  0.3396 -0.2744
29746W        W45215   3.286  13.840  12.395 -0.1262  0.0504  0.2153
29747W        W45216   3.577   2.039  13.370 -0.0269  0.1793 -0.0467
29748W        W45217   9.039  11.259   3.069 -0.4112  0.1823  0.1099
29749W        W45218   4.108  13.469  15.314 -0.0788  0.0917  0.0758
29750W        W45219   6.853   8.485   1.276 -0.3093 -0.2485  0.1944
29751W        W45220   9.111  11.610   5.899  0.2124  0.1200  0.2308
29752W        W45221   5.617   3.733  15.081 -0.3852  0.1450  0.1743
29753W        W45222  16.086  14.647  12.122  0.1468  0.2629  0.4198
29754W        W45223  17.599  13.880   0.724  0.2543  0.2033  0.0697
29755W        W45224   6.428   2.740   3.736  0.0974 -0.0416 -0.1356
29756W        W45225   3.031  13.076  11.836 -0.1753 -0.2730  0.2641
29757W        W45226   7.172  16.020  12.191 -0.0186  0.1114  0.2563
29758W        W45227  14.326   7.972  12.402 -0.1486 -0.0847  0.3102
29759W        W45228   1.919   9.278   2.498 -0.0548 -0.4590  0.1441
29760W        W45229   5.619   4.842   0.858  0.3361 -0.2818  0.0873
29761W        W45230   3.949  17.760  10.805  0.1814 -0.0160 -0.0576
29762W        W45231   5.263   6.060   0.912 -0.4209 -0.1885  0.3866
29763W        W45232  10.249   7.921   0.118 -0.2598  0.2077 -0.3220
29764W        W45233  13.949  16.206  13.116 -0.1989  0.1742 -0.0255
29765W        W45234  13.173  18.144   1.558  0.0793 -0.0303 -0.0029
29766W        W45235   1.956  15.531  11.174 -0.0399 -0.2663  0.1770
29767W        W45236   6.385   8.883  15.177 -0.0643 -0.3263  0.0350
29768W        W45237  15.286   7.981   1.425 -0.4293 -0.0352  0.0024
29769W        W45238   2.363   9.909  13.624  0.2008 -0.0119 -0.1808
29770W        W45239   2.401   7.526   0.196  0.2708  0.3180  0.0159
29771W        W45240  16.976   0.607  11.327 -0.3532 -0.1787  0.4710
29772W        W45241   5.630   9.032   5.200 -0.2010  0.0742 -0.2142
29773W        W45242   2.663   8.018   6.071  0.2240 -0.1066 -0.0041
29774W        W45243   7.052  12.886   3.676  0.0232  0.2192 -0.3696
29775W        W45244  13.843   2.378   1.059 -0.0762  0.2559  0.2534
29776W        W45245  14.986  18.030   9.634 -0.0991 -0.0416 -0.0663
29777W        W45246   8.790   5.255  14.733  0.0138  0.0950  0.0855
29778W        W45247  15.081  17.961  11.595  0.0082 -0.1888 -0.3875
29779W        W45248   8.646  11.885  12.921  0.3238 -0.2092 -0.1378
29780W        W45249   0.957   4.678   0.750  0.0533 -0.0049 -0.4828
29781W        W45250  10.327  13.799   2.948  0.3608 -0.5225  0.1643
29782W        W45251   1.862   8.771   5.544  0.1662  0.2294 -0.2310
29783W        W45252   6.120   4.416   4.582  0.1023  0.0424 -0.0206
29784W        W45253   2.035   1.474  12.895  0.3471  0.0525 -0.2004
29785W        W45254   0.471  12.030   0.116  0.0373 -0.0088  0.0372
29786W        W45255  16.071  14.293   4.602 -0.3307 -0.0206 -0.1001
29787W        W45256   9.369  16.868  10.900 -0.2839  0.0076  0.0058
29788W        W45257  12.084   1.256  14.641  0.0824  0.2038  0.2557
29789W        W45258  14.562   6.920  15.588  0.0426 -0.0036 -0.0743
29790W        W45259  12.176   3.171   4.578  0.1969  0.1908 -0.3247
29791W        W45260   3.186  13.401  14.320 -0.1423  0.1863  0.0516
29792W        W45261   0.105   4.023  12.539 -0.1962  0.1020  0.2646
29793W        W45262   7.359  16.299  11.730  0.3698 -0.0982 -0.1266
29794W        W45263  12.969  15.295  12.772 -0.3288 -0.2073 -0.0987
29795W        W45264  11.714  11.312   4.043  0.3330  0.2192 -0.2017
29796W        W45265   0.259   3.654  11.274  0.2206  0.1856 -0.2763
29797W        W45266   8.540  11.961  11.067 -0.1147 -0.2433  0.0452
29798W        W45267  16.615   8.695   2.211 -0.0390 -0.2492  0.1052
29799W        W45268   3.185   6.594  14.145 -0.1156 -0.0077 -0.1441
29800W        W45269  15.170  17.232   3.499 -0.1139 -0.3159 -0.2266
29801W        W45270   7.335   1.888  12.017  0.1704  0.2572 -0.3553
29802W        W45271   7.574   9.267   1.268  0.0148 -0.2360 -0.3028
29803W        W45272   8.896  17.086   5.112  0.2075  0.0949 -0.0585
29804W        W45273   4.014  15.107   1.244 -0.1563 -0.1584 -0.3019
29805W        W45274  17.403   7.695  14.974 -0.1004 -0.1325 -0.1798
29806W        W45275   8.717   4.832  12.973  0.4901  0.1532  0.2045
29807W        W45276  10.069  14.368   3.792 -0.0489  0.1012 -0.0990
29808W        W45277   4.458   2.190   1.745  0.0929 -0.0990  0.0741
29809W        W45278  12.976   0.114   2.265 -0.1039 -0.2480 -0.1336
29810W        W45279   5.557   5.442   2.371 -0.1741  0.2751 -0.2708
29811W        W45280   5.832   5.553  15.552 -0.1929  0.1489  0.1310
29812W        W45281   8.262   8.821  11.175  0.0773  0.1214 -0.0237
29813W        W45282  17.930  12.815  11.559 -0.0613 -0.1036 -0.0064
29814W        W45283   4.689  13.709   1.280  0.1290 -0.3098  0.0858
29815W        W45284   3.062   0.668   4.043 -0.0623 -0.3577  0.1802
29816W        W45285  15.951   4.126   4.960  0.1505 -0.1654  0.3274
29817W        W45286   7.200  17.575  14.230  0.4970 -0.0936 -0.0440
29818W        W45287   3.434  16.182   4.680  0.1705  0.1025 -0.1809
29819W        W45288   8.270  13.299   1.130 -0.0508  0.0965  0.0063
29820W        W45289   4.107   7.362   2.754 -0.0690 -0.1603 -0.3966
29821W        W45290  17.806  12.264  13.402  0.1464  0.1779 -0.2707
29822W        W45291   0.928   8.351   1.854 -0.1072  0.0935  0.1941
29823W        W45292  10.408   4.990   4.185 -0.2320  0.1456  0.1604
29824W        W45293   6.490   6.810  11.774  0.2031  0.0310 -0.1769
29825W        W45294   1.849   1.410   0.823 -0.0478  0.2519 -0.1309
29826W        W45295  14.438   1.968   1.866  0.0686  0.0553 -0.1658
29827W        W45296   9.352  11.138   4.400  0.0620  0.1161 -0.1704
29828W        W45297   5.318  16.498   0.316  0.2617 -0.1216  0.3017
29829W        W45298   2.834  13.751   4.472 -0.1366  0.2164  0.0559
29830W        W45299   7.010   3.611   2.926  0.1949  0.0651 -0.1798
29831W        W45300  15.822  11.500  12.988  0.1190 -0.0010 -0.1494
29832W        W45301   0.860   5.391  15.002  0.0869 -0.3274  0.0422
29833W        W45302  10.374  18.255  13.206 -0.3118  0.1100  0.0685
29834W        W45303  10.604   6.212  14.520 -0.0050 -0.0790 -0.0473
29835W        W45304   5.808  17.643  15.245  0.1837 -0.2063 -0.2232
29836W        W45305  17.670   0.431  13.180 -0.1336  0.0362 -0.1468
29837W        W45306   1.816  13.233  15.415 -0.0535  0.1151 -0.0607
29838W        W45307   6.141   0.633   9.743  0.2955  0.0459 -0.0615
29839W        W45308   9.674  17.427  11.998 -0.1792  0.0815  0.0691
29840W        W45309   4.023   7.030  13.360  0.3550 -0.0360  0.0174
29841W        W45310  12.298  16.015  12.546  0.1335 -0.0548  0.0225
29842W        W45311   5.624   9.997  11.362  0.1701 -0.0402  0.3358
29843W        W45312   0.731  17.444   0.348  0.2758 -0.1334  0.2476
29844W        W45313   0.579   2.553   1.112 -0.1167 -0.2141  0.0875
29845W        W45314   7.531   1.577  13.545 -0.0403 -0.1693 -0.0544
29846W        W45315  13.288  11.762  11.222 -0.0694 -0.2148  0.0077
29847W        W45316  18.115  14.797   3.999 -0.1018  0.1117  0.0351
29848W        W45317   2.184   5.313  15.374  0.1116  0.1464 -0.0557
29849W        W45318   0.428   4.721  12.152  0.2773 -0.1814  0.3070
29850W        W45319   3.078   7.959   5.771  0.3885 -0.0315  0.0428
29851W        W45320   4.712  14.387   4.189  0.4584 -0.2310 -0.0778
29852W        W45321  13.196   1.052   5.028 -0.0324  0.1363 -0.2377
29853W        W45322  16.686  15.246   3.042 -0.0075 -0.4152  0.0198
29854W        W45323   5.040   9.934  10.788  0.1228  0.2957  0.0283
29855W        W45324  16.073   1.510   0.938  0.4320  0.0437  0.0481
29856W        W45325  12.909   4.779  12.320  0.1432  0.2125  0.0699
29857W        W45326   4.115  14.700   2.525 -0.2420 -0.1483  0.0299
29858W        W45327  17.899  12.371  10.826  0.0985 -0.0414  0.3235
29859W        W45328   3.658   8.705  15.699 -0.0366 -0.0506  0.1973
29860W        W45329   1.740   4.955  12.136  0.3196  0.0480 -0.1766
29861W        W45330  18.498  10.915   0.750 -0.1555 -0.0484  0.0966
29862W        W45331   3.217  11.105   3.656  0.1567 -0.0322 -0.0123
29863W        W45332   2.841   4.643   1.885  0.0930  0.0778 -0.0019
29864W        W45333  11.056   1.873   0.611  0.0330 -0.2727  0.0862
29865W        W45334  18.473   7.486   3.562 -0.0799  0.0732 -0.1406
29866W        W45335  12.341   0.490  11.194 -0.2574 -0.1710  0.1653
29867W        W45336  11.065   0.238  12.428 -0.0834 -0.2588 -0.0241
29868W        W45337  11.467   8.209  11.601 -0.0519 -0.0716 -0.1295
29869W        W45338  12.583   1.972   4.378  0.3592 -0.0013 -0.2667
29870W        W45339  15.414   0.202   4.006 -0.2286 -0.0356  0.2867
29871W        W45340  15.337   1.636   3.750  0.0394 -0.2255 -0.3804
29872W        W45341   3.635   1.914   5.091 -0.3850  0.0996 -0.0685
29873W        W45342  15.403  16.883   1.502 -0.1765  0.1535  0.0153
29874W        W45343  18.610  12.194   4.647 -0.2505 -0.0607 -0.1906
29875W        W45344   5.564   7.956   5.324  0.0111  0.0844  0.3357
29876W        W45345  10.673  16.163   1.352 -0.1889 -0.0031 -0.1012
29877W        W45346   0.975  14.822  13.281  0.3385 -0.1407  0.1234
29878W        W45347  14.559  16.707  11.622  0.2543  0.1168  0.2573
29879W        W45348  16.499  13.129   0.700 -0.0603  0.1294  0.4957
29880W        W45349  15.212   8.469  11.488  0.0984 -0.0224  0.0920
29881W        W45350   8.880  18.172  11.030  0.0569  0.1562  0.2224
29882W        W45351   7.875   6.726  11.760 -0.0063  0.1213  0.3431
29883W        W45352  13.126   9.949   3.528  0.3325 -0.0798 -0.0085
29884W        W45353  14.398   3.084  12.568  0.1818  0.0694  0.1275
29885W        W45354   0.116   8.094   2.979  0.0060  0.2045  0.0458
29886W        W45355   0.788  12.017  14.363  0.3905 -0.0551  0.2016
29887W        W45356  10.773  15.180  14.946 -0.0101  0.0139 -0.1581
29888W        W45357  17.861   6.347  12.886  0.0522  0.1708 -0.1115
29889W        W45358  15.945  14.794   2.476 -0.0259 -0.1091 -0.1788
29890W        W45359   7.988  14.458  12.632  0.0351 -0.0874 -0.0462
29891W        W45360   5.893   0.012  11.352  0.1293 -0.1734  0.3981
29892W        W45361   6.555   6.388  14.833 -0.0241  0.1463  0.0339
29893W        W45362  15.844   5.039  11.316 -0.2709 -0.1417  0.1263
29894W        W45363  11.714   2.395   0.532 -0.2134  0.0814 -0.0711
29895W        W45364   9.503   3.436  11.110  0.3508 -0.0054 -0.2771
29896W        W45365  11.226   0.773  12.423  0.0347 -0.0627 -0.0455
29897W        W45366   4.184  17.094  10.646 -0.2405  0.1949 -0.1828
29898W        W45367  14.683   0.422  15.544 -0.3475  0.0010  0.3026
29899W        W45368  10.073  13.825   5.222  0.0039  0.6866 -0.1684
29900W        W45369  13.533   4.518  10.902 -0.4073  0.0410  0.3236
29901W        W45370  13.580   3.695   0.370  0.0847 -0.3970 -0.0297
29902W        W45371   3.442  14.603   4.534 -0.0956 -0.1570 -0.4026
29903W        W45372   5.262  18.612   5.077  0.1320  0.2981 -0.1849
29904W        W45373   2.152  10.372  15.613  0.2014 -0.0886  0.0283
29905W        W45374   5.451  17.351   3.600  0.0451  0.2020  0.1903
29906W        W45375  14.367  10.492  15.123  0.0020 -0.0724  0.2909
29907W        W45376   9.763  10.036  14.513 -0.2374  0.0876 -0.2575
29908W        W45377   6.192  11.996  11.679  0.0288 -0.0123  0.2542
29909W        W45378   3.750  14.923  15.700 -0.1757 -0.1613 -0.1178
29910W        W45379  11.109  10.763   4.134  0.1009  0.2464 -0.2288
29911W        W45380   9.795   4.823   2.223 -0.4485 -0.0180  0.1942
29912W        W45381   2.470   9.563  15.064  0.2370 -0.4434 -0.0041
29913W        W45382   4.000  18.219  14.833  0.0711  0.3181 -0.3834
29914W        W45383  13.023  15.747  15.187  0.3620 -0.0668  0.0414
29915W        W45384  15.857   9.976  13.931  0.0931  0.2593  0.1687
29916W        W45385   8.450  16.573  15.769  0.0647 -0.2041 -0.2872
29917W        W45386  14.465   1.332   2.697 -0.0705  0.0239 -0.2158
29918W        W45387  17.245  14.233  11.356 -0.2279  0.3074  0.1330
29919W        W45388  16.890   6.060   2.461  0.1634  0.0632 -0.1751
29920W        W45389  10.096   7.630  13.823  0.1019 -0.2048  0.1967
29921W        W45390   6.711  15.870   0.200 -0.0227 -0.2551 -0.1510
29922W        W45391  17.239  14.623   4.864  0.2227  0.1137  0.0949
29923W        W45392   7.494   8.169  11.887  0.0985  0.1717 -0.1259
29924W        W45393   6.278   6.838  14.474 -0.2426 -0.2141 -0.0291
29925W        W45394  17.560  14.098  15.214  0.4538 -0.2082  0.0453
29926W        W45395  14.716  18.033   4.762  0.0068 -0.1144 -0.0254
29927W        W45396  16.451   1.404   5.812  0.2743  0.2668  0.0506
29928W        W45397   3.933   5.886  11.582 -0.0776  0.0763 -0.3430
29929W        W45398   5.602  14.527  12.216  0.1571 -0.0243 -0.0251
29930W        W45399   5.336  13.770   5.639  0.0336 -0.3144 -0.0164
29931W        W45400   2.346   7.946   2.072  0.3881 -0.2768  0.0683
29932W        W45401   1.286  12.852   3.890 -0.1064  0.2129  0.1589
29933W        W45402  12.515   3.135   2.397  0.4126 -0.0906 -0.2636
29934W        W45403   5.749  11.598  15.268 -0.0474  0.1111  0.0720
29935W        W45404  11.253   6.027  14.341  0.1072 -0.5892  0.2450
29936W        W45405  11.775  11.038   3.596  0.0050 -0.3406  0.1212
29937W        W45406   3.818   3.176  15.311  0.1694 -0.0217 -0.0905
29938W        W45407  11.410  11.190  15.214  0.3139  0.4392  0.1556
29939W        W45408   3.238   2.694   0.667  0.2593 -0.2041 -0.0978
29940W        W45409  17.624   5.144   0.990  0.1033 -0.0538  0.0020
29941W        W45410   5.896   3.314   4.265 -0.1026  0.1962  0.1598
29942W        W45411   1.437  18.635  15.022  0.0685  0.2074  0.1950
29943W        W45412   4.530   5.398   3.512 -0.0868 -0.0137 -0.0650
29944W        W45413   4.436  14.378  10.968 -0.1569 -0.1836  0.2796
29945W        W45414  11.583  14.803   4.824 -0.1261  0.0053  0.0750
29946W        W45415   7.079  13.910   1.319 -0.0213  0.0659 -0.4548
29947W        W45416  13.032  10.275  13.550 -0.0895  0.1492  0.2157
29948W        W45417  16.593   1.422  13.951 -0.1732  0.0050  0.2698
29949W        W45418  17.775  16.286   1.825 -0.2444 -0.0405  0.1538
29950W        W45419   1.727   7.124   0.123 -0.2758 -0.0939 -0.3066
29951W        W45420   1.059   3.081   5.207  0.2395  0.0165 -0.2178
29952W        W45421  13.093   5.441   3.952 -0.2466  0.2070 -0.0474
29953W        W45422   8.567   3.104  13.932  0.4575 -0.0663 -0.1538
29954W        W45423  10.289   4.682  10.699  0.1722  0.0685  0.1543
29955W        W45424   0.689  16.055  14.864 -0.0111 -0.1026 -0.0419
29956W        W45425  15.589   5.690   4.954  0.1091  0.0053  0.0699
29957W        W45426  18.169   1.882  14.101 -0.2172 -0.0485 -0.2956
29958W        W45427  10.481   4.149   3.257  0.0814  0.2030 -0.0564
29959W        W45428   5.472   0.087  13.792 -0.2217 -0.1776  0.1610
29960W        W45429  14.833  15.598  15.333  0.4287  0.1642 -0.1718
29961W        W45430  17.377   9.165   2.869 -0.0499 -0.0491 -0.0009
29962W        W45431   9.188  10.190  14.009 -0.0026  0.0237 -0.4912
29963W        W45432  15.123   2.976  14.497 -0.0791 -0.0312 -0.0594
29964W        W45433   5.038   5.100   2.685 -0.2571  0.0041  0.2253
29965W        W45434   8.200  10.287   0.649 -0.0339  0.1187  0.0209
29966W        W45435  15.734  18.672   4.462  0.4921  0.0139 -0.1337
29967W        W45436  18.283   9.706   5.139 -0.1527 -0.0225  0.2940
29968W        W45437   2.874   3.218   1.203  0.1859 -0.0406 -0.0303
29969W        W45438   8.506   0.838  15.007  0.0376 -0.0164 -0.2352
29970W        W45439   7.281  14.934   2.913 -0.0978  0.0860 -0.1871
29971W        W45440  12.431  14.183  13.917 -0.0593  0.2179 -0.1965
29972W        W45441  12.201   3.912   3.175  0.3954  0.2626 -0.1231
29973W        W45442   9.600  12.306  12.813  0.1371 -0.1592 -0.1558
29974W        W45443   7.031  13.089   1.580 -0.1547 -0.1020  0.3881
29975W        W45444   0.903   0.225  13.345 -0.1274  0.0020  0.2941
29976W        W45445   0.676  12.891   0.406 -0.0910 -0.0770 -0.0250
29977W        W45446  12.113   6.165  15.492 -0.4689 -0.1287  0.0664
29978W        W45447  12.512   2.282  13.173  0.0399  0.0934 -0.1262
29979W        W45448  15.518   3.396   0.624 -0.3704  0.3486 -0.1015
29980W        W45449  13.337  15.144   1.042  0.2649  0.1682  0.1798
29981W        W45450   7.442  15.144   1.148 -0.0196 -0.1806  0.1555
29982W        W45451   1.369   3.541   3.073  0.2837 -0.0463 -0.1700
29983W        W45452   1.407   9.011   3.397 -0.1523  0.0186  0.1986
29984W        W45453   7.392  10.660   1.279  0.0199  0.0196 -0.0888
29985W        W45454   0.653   6.139   1.770  0.1713  0.0258 -0.2322
29986W        W45455   0.715   5.435  10.299  0.1647 -0.1694 -0.1319
29987W        W45456   3.243  15.659  11.387  0.1329  0.2541  0.0998
29988W        W45457  11.708  16.553  13.307  0.0230  0.0360 -0.0493
29989W        W45458  17.168   4.083  12.866  0.1906 -0.0386 -0.0131
29990W        W45459   3.035  11.464   1.667 -0.2433 -0.1943  0.0251
29991W        W45460  16.768   6.176  15.778  0.0313 -0.0059 -0.2447
29992W        W45461  14.078  13.669  13.855  0.0544 -0.0461  0.0917
29993W        W45462  10.090   7.125   2.653 -0.0414 -0.1008 -0.2857
29994W        W45463   5.537  14.987  13.525 -0.6231  0.3287 -0.0460
29995W        W45464  13.029  13.281   1.288 -0.0836 -0.3370  0.1121
29996W        W45465  13.712   6.341  10.205 -0.2229 -0.0588  0.2533
29997W        W45466   3.860  12.407   3.386 -0.0729 -0.2882 -0.0184
29998W        W45467   2.649   5.405   4.312  0.0283 -0.1281  0.3535
29999W        W45468   1.364   2.383  12.111  0.2686 -0.0444  0.0201
30000W        W45469  10.925   4.157   1.583  0.2347  0.2548 -0.1442
30001W        W45470   5.516  13.343   3.465 -0.2542  0.0026  0.0008
30002W        W45471  17.295   1.529   0.472  0.0249 -0.1787 -0.0361
30003W        W45472   2.144   7.220  13.836  0.1258  0.1154  0.0005
30004W        W45473   4.628   6.420  10.608  0.0453 -0.0163 -0.2810
30005W        W45474   5.016  14.163   5.801 -0.0223  0.1576 -0.3568
30006W        W45475   2.386   1.651  15.012 -0.2875  0.3117  0.1605
30007W        W45476  13.996   8.693   2.649  0.1063  0.0140  0.0620
30008W        W45477   4.603  10.962  13.684  0.0009 -0.1102 -0.0123
30009W        W45478   6.374  18.132   5.236  0.0713  0.0744 -0.1382
30010W        W45479   9.851  14.335   0.593  0.3798  0.1469 -0.1570
30011W        W45480   9.871  15.739   4.815  0.0225  0.0611 -0.1318
30012W        W45481   0.393   9.565   3.006 -0.0069 -0.3202 -0.3029
30013W        W45482   8.994   2.625   1.995 -0.4042 -0.1800  0.2400
30014W        W45483   0.840   0.330   9.503 -0.1136 -0.3210 -0.0183
30015W        W45484   0.134   3.915   4.495 -0.0884 -0.0187 -0.2199
30016W        W45485   2.846  11.878  14.957  0.0878 -0.2755 -0.1240
30017W        W45486   7.739  15.052   4.067  0.1117 -0.0182 -0.0830
30018W        W45487  17.436   6.287   0.017 -0.2387  0.2065 -0.1837
30019W        W45488   7.499  10.846   5.437  0.1315  0.2386 -0.1723
30020W        W45489   5.340   7.025  15.144  0.3607  0.1397 -0.1988
30021W        W45490   5.842   7.705  10.447 -0.3429 -0.1319  0.0237
30022W        W45491   4.315  16.273  12.966 -0.0334 -0.1659 -0.1473
30023W        W45492  17.858   9.006  11.020 -0.1927 -0.0386 -0.2908
30024W        W45493  13.761   2.890  12.435 -0.4100 -0.0716 -0.0996
30025W        W45494  16.020  12.522   3.553  0.0617 -0.0419  0.2456
30026W        W45495   9.918   5.742  13.459 -0.0216  0.0065 -0.0971
30027W        W45496  11.421   5.128  15.308  0.2304  0.0351 -0.1911
30028W        W45497  13.954  11.810   3.235 -0.0768 -0.4418  0.2280
30029W        W45498   9.089   0.265   0.004  0.0885  0.2168  0.0563
30030W        W45499  12.911  10.942  14.271 -0.0203 -0.1912  0.1599
30031W        W45500   2.799  17.885   2.684 -0.1811  0.1002 -0.1817
30032W        W45501  18.440  16.513   2.790 -0.0008 -0.1640 -0.2923
30033W        W45502  13.766  15.828  11.527  0.2360 -0.0094 -0.1449
30034W        W45503  12.068  10.658   2.263  0.2893 -0.2933 -0.0212
30035W        W45504  15.425   8.550  15.616  0.3382  0.0982 -0.0224
30036W        W45505   3.900  17.249   5.006  0.0771 -0.2674 -0.1519
30037W        W45506   0.966  11.653  13.969 -0.2508 -0.1208  0.0019
30038W        W45507   7.011  16.737   2.258  0.0892  0.2797  0.2034
30039W        W45508   3.556   0.425   2.675 -0.0982  0.2108 -0.0247
30040W        W45509   6.533  12.971   3.760 -0.1232  0.2015  0.1430
30041W        W45510   8.102  14.655  12.118 -0.3795  0.1347  0.3154
30042W        W45511  12.617   3.307  11.017  0.0309 -0.0307  0.4575
30043W        W45512   6.620   4.478  12.711  0.1972 -0.1327 -0.2492
30044W        W45513  14.106  10.964  15.135 -0.2485  0.0077  0.2193
30045W        W45514   7.529   8.788   1.175 -0.0556  0.3938 -0.0969
30046W        W45515   7.022   3.913   2.492  0.0298  0.0968  0.0828
30047W        W45516  17.729  12.414   4.898  0.3166  0.2860  0.1262
30048W        W45517  10.604  14.737   4.700  0.4296 -0.0283  0.1667
30049W        W45518   5.840  11.974   0.254 -0.1240 -0.0605 -0.1289
30050W        W45519  16.907  16.891  15.123  0.0083 -0.1244  0.3649
30051W        W45520  14.694  16.320   2.225 -0.1839  0.3735 -0.0696
30052W        W45521   7.072   4.241   2.915 -0.2698 -0.2039  0.1789
30053W        W45522   1.194  15.231  11.884  0.0351 -0.1969  0.0626
30054W        W45523   6.840   5.323  12.634  0.3399 -0.1823  0.1783
30055W        W45524  17.518  12.622  14.339 -0.0126  0.5911 -0.1036
30056W        W45525  17.836   4.648   4.840  0.1319  0.1043  0.1431
30057W        W45526  12.187  16.790  15.393 -0.0773 -0.0855  0.1984
30058W        W45527  14.358   4.438   3.273  0.3784  0.1506  0.2489
30059W        W45528  16.203  12.861  13.637 -0.1966 -0.0952 -0.0684
30060W        W45529   6.159  11.449  12.548 -0.3983 -0.2486 -0.0330
30061W        W45530   9.196  14.216   0.571  0.3670 -0.2627  0.0665
30062W        W45531   5.787  17.828  11.693 -0.0463  0.2361  0.0892
30063W        W45532   4.866   5.621   1.829  0.1144  0.0868  0.4474
30064W        W45533   4.407   5.273  13.309 -0.2274  0.0655  0.2885
30065W        W45534  14.751   6.388  15.542  0.2890  0.2056 -0.0921
30066W        W45535   3.034  13.964   0.272  0.2799  0.1143  0.1609
30067W        W45536   1.881  14.311   5.633  0.1769 -0.0362  0.0938
30068W        W45537   7.938  14.622   2.057 -0.0878  0.1491 -0.1010
30069W        W45538   4.716   2.754   1.530  0.0221  0.2994 -0.1039
30070W        W45539   0.515   9.586  12.014 -0.2029  0.1341 -0.0178
30071W        W45540   5.652   6.118   2.092  0.2590 -0.3855 -0.0563
30072W        W45541   8.493   6.916   1.865 -0.0287 -0.0418  0.1221
30073W        W45542  15.174   9.856   4.334  0.1517  0.1383 -0.4567
30074W        W45543   4.012   8.811   0.779 -0.1420 -0.1413 -0.3596
30075W        W45544   2.835  13.185  15.633 -0.1164  0.3823  0.2129
30076W        W45545  14.742   2.689   4.249  0.1265 -0.1658 -0.1552
30077W        W45546   1.849   1.900  14.983 -0.0035 -0.3395 -0.0145
30078W        W45547   5.758   2.071   1.681 -0.3156 -0.0613 -0.0829
30079W        W45548  13.808  13.488  11.988 -0.1082 -0.1481 -0.2502
30080W        W45549   2.171   2.587   3.083 -0.3335  0.0604  0.1132
30081W        W45550   1.803   9.414   1.282 -0.0190 -0.0137  0.1076
30082W        W45551   3.708  16.626  14.635  0.1987  0.1708 -0.1434
30083W        W45552  16.431  14.975   3.612  0.1527  0.0406 -0.2643
30084W        W45553   4.572  14.937   2.941  0.0065  0.2745  0.0750
30085W        W45554   5.435  12.555  14.153 -0.3423  0.2365  0.4504
30086W        W45555  16.812  11.794  11.187  0.3385  0.3491 -0.0856
30087W        W45556   0.277  15.804   0.502  0.0442  0.3925 -0.1206
30088W        W45557   9.728   4.481  14.590  0.1651 -0.2199 -0.0468
30089W        W45558   9.576   4.465  11.397  0.1616 -0.1014 -0.1361
30090W        W45559   6.499   8.079   4.705  0.0805  0.0651  0.0139
30091W        W45560   2.120   7.555  10.888 -0.0651  0.2959 -0.4326
30092W        W45561  18.071   2.812   0.711 -0.2620  0.0265 -0.2820
30093W        W45562   8.818   8.342  14.868 -0.2550 -0.0614  0.3296
30094W        W45563  17.552  15.657   4.035 -0.2574 -0.0246  0.0217
30095W        W45564   5.494  16.356  10.915  0.3365 -0.2265 -0.0197
30096W        W45565   7.214   8.635   2.798 -0.2302 -0.0984 -0.3058
30097W        W45566   4.199   4.610   0.787  0.0920 -0.3285 -0.0482
30098W        W45567  15.754   9.493  13.166  0.1484  0.4149  0.5277
30099W        W45568  14.019  11.849  15.739 -0.0061  0.0509  0.0134
30100W        W45569  10.426  14.734   3.821  0.0672 -0.1450  0.3501
30101W        W45570  11.659   6.212  13.075  0.0017 -0.0920 -0.2747
30102W        W45571  17.463  11.226  13.750 -0.0730 -0.1935  0.1610
30103W        W45572   5.908  14.598  13.417 -0.1704 -0.1977  0.1946
30104W        W45573   2.581   3.812  14.180 -0.2224  0.2657 -0.2103
30105W        W45574  13.174   6.247   0.951  0.1155 -0.0727  0.0210
30106W        W45575  10.015  14.077  12.094  0.1615  0.2336 -0.0097
30107W        W45576  10.049   1.149  14.378  0.1974  0.1687  0.0620
30108W        W45577  15.887  18.152   3.278 -0.0932 -0.0536  0.0800
30109W        W45578  17.691  15.860  15.093  0.1992 -0.2448  0.2069
30110W        W45579  12.581  13.237   4.326  0.0390  0.0094 -0.0258
30111W        W45580   1.952  14.534  14.756  0.1226 -0.1132 -0.0426
30112W        W45581   5.782  16.001   0.234  0.2796  0.2801 -0.1535
30113W        W45582  13.592   7.883   1.651 -0.2137  0.2031  0.1434
30114W        W45583  12.011  10.054  11.844 -0.3245 -0.0564  0.0469
30115W        W45584  10.886   0.904  13.149 -0.3425 -0.0324 -0.0762
30116W        W45585  14.638  10.706   5.772 -0.1204 -0.0893  0.0925
30117W        W45586   5.630   8.239   1.729 -0.5434 -0.0076  0.2091
30118W        W45587  12.228  10.175   3.849 -0.0168  0.1326 -0.1420
30119W        W45588   3.273   4.162  15.013 -0.0376  0.1615 -0.5810
30120W        W45589  17.820   9.031   3.993 -0.0573  0.1901 -0.4212
30121W        W45590   0.106   9.707  11.631  0.2378 -0.1846  0.1196
30122W        W45591   6.726   8.022  11.491 -0.3132  0.3446  0.3417
30123W        W45592   6.757   5.664  14.204  0.0169  0.3153  0.2154
30124W        W45593   1.370  14.286   3.385  0.2504 -0.0328 -0.0362
30125W        W45594  11.317  16.645   0.559 -0.0807 -0.0292 -0.0204
30126W        W45595  14.076  14.469   2.802 -0.2661  0.0194  0.0278
30127W        W45596  10.852  15.172  11.064 -0.2297  0.0339 -0.0320
30128W        W45597   0.826   2.143  12.989 -0.2900 -0.1187  0.0514
30129W        W45598   3.798  15.773   1.970  0.2778  0.1349 -0.1793
30130W        W45599   6.342   2.188  14.401 -0.0715  0.1250 -0.1307
30131W        W45600   4.924   5.022  11.630  0.3565  0.0785  0.0654
30132W        W45601   5.328  17.695  12.608  0.2061  0.0710  0.0742
30133W        W45602  13.343   1.252   4.356  0.0080  0.3455 -0.0381
30134W        W45603   9.406   7.484   1.575 -0.0087 -0.2400  0.1527
30135W        W45604   9.053  12.232  12.405 -0.0623  0.0662 -0.2482
30136W        W45605   4.791   0.067   1.741  0.0806  0.1605 -0.0576
30137W        W45606  18.383   0.840  14.345  0.0587  0.0906 -0.1311
30138W        W45607   9.875  11.182   0.425 -0.1155  0.1043 -0.3763
30139W        W45608   2.725  10.820   0.203  0.0019  0.1344  0.0263
30140W        W45609   9.881  17.449   2.138 -0.1737  0.0805 -0.2036
30141W        W45610   9.955  11.612   0.107  0.3633 -0.1436  0.3143
30142W        W45611  13.230  13.890   1.171 -0.3575 -0.0891  0.1711
30143W        W45612   4.570   7.774   1.170  0.3062 -0.1636  0.1286
30144W        W45613   5.601   3.876   5.576  0.0203  0.0110 -0.1214
30145W        W45614  13.467   9.475  11.399  0.0648  0.2393  0.2271
30146W        W45615   4.973   1.680   2.531  0.2887  0.0201  0.1572
30147W        W45616   7.078  15.284  11.954  0.0479  0.0118  0.1386
30148W        W45617  17.449   4.351  11.774  0.4872 -0.0134 -0.2674
30149W        W45618  11.681   5.799  13.333  0.3502 -0.1395  0.1276
30150W        W45619  15.799  12.537  14.545  0.1300  0.1974  0.1092
30151W        W45620   0.473   6.679  13.252 -0.1190  0.1999 -0.0106
30152W        W45621  16.307   2.842  14.174 -0.0984  0.1214  0.0222
30153W        W45622   2.399  16.446   0.089 -0.1412 -0.4351  0.0513
30154W        W45623   3.758   6.082  12.526 -0.0638 -0.0459 -0.2378
30155W        W45624   1.389  16.578  12.534 -0.2208 -0.1492  0.1921
30156W        W45625  12.435   3.167   0.062  0.0163 -0.1743 -0.1712
30157W        W45626   1.254  11.878   3.629 -0.1572 -0.3156 -0.1077
30158W        W45627  16.290   6.357   0.326  0.0411 -0.2227  0.1703
30159W        W45628  10.474   2.443   4.545 -0.2418  0.0979  0.3426
30160W        W45629  10.480   1.910   5.516  0.0335  0.3195  0.2376
30161W        W45630   7.018  17.712   2.433  0.0621 -0.3106  0.0769
30162W        W45631  11.661  15.039  15.219 -0.1285  0.2875  0.1429
30163W        W45632  12.616  14.173   2.669  0.0825  0.1390  0.1123
30164W        W45633   1.084  14.473  15.715  0.1880  0.0586  0.0059
30165W        W45634  17.581  18.241   5.179  0.1095 -0.2909 -0.1272
30166W        W45635  16.400  10.311  13.623  0.4270  0.1408  0.1623
30167W        W45636   7.435   4.926  13.672 -0.1127 -0.3369 -0.2088
30168W        W45637  16.166   3.584   4.124 -0.0542 -0.0514 -0.0021
30169W        W45638   9.416  18.312   1.136 -0.2370 -0.2429  0.2636
30170W        W45639  13.580   4.041   5.057  0.0766  0.0252 -0.1056
30171W        W45640   7.874  16.573   5.570  0.0570 -0.0815  0.3413
30172W        W45641  10.724   5.150  15.733 -0.3575 -0.0453  0.1562
30173W        W45642  10.173   8.825   5.409  0.1241  0.1197  0.1026
30174W        W45643   3.046   5.084   2.073 -0.1232  0.2670 -0.2136
30175W        W45644   2.072  13.374   0.567  0.0991 -0.2160  0.0204
30176W        W45645  12.748  14.774   3.749  0.1006  0.0494  0.0794
30177W        W45646   9.139  12.232  12.920  0.1051  0.0027 -0.1174
30178W        W45647   6.549  10.477  13.913 -0.0006 -0.2002  0.2258
30179W        W45648   7.565  13.778   3.260  0.0052 -0.0251  0.3193
30180W        W45649   9.419  12.336  13.344  0.2998  0.3060  0.3005
30181W        W45650   7.966  12.424   5.460 -0.0998  0.1168  0.0289
30182W        W45651   3.569   8.035   4.449 -0.2560 -0.0125  0.4238
30183W        W45652  15.461   1.248  13.586 -0.1097 -0.0666  0.0043
30184W        W45653   2.397  10.196  11.183  0.0073 -0.0086 -0.1649
30185W        W45654  15.370   9.391  14.682  0.1090 -0.2327  0.0508
30186W        W45655   4.603  16.358  12.402 -0.0733 -0.2682  0.1988
30187W        W45656  16.760   3.617  15.060 -0.0814 -0.1625  0.1268
30188W        W45657   4.472  13.125  11.666 -0.1242  0.3531  0.0881
30189W        W45658  14.502   6.064  13.177 -0.1040 -0.1257 -0.0060
30190W        W45659  18.268   9.712   1.880 -0.0098  0.0543  0.1168
30191W        W45660   4.413   6.293   0.115 -0.2358 -0.4287  0.5996
30192W        W45661  11.931  12.865  13.570  0.0505  0.0219 -0.0491
30193W        W45662   2.105  11.118   5.611 -0.2048  0.0940 -0.1245
30194W        W45663  17.920  11.371   1.879 -0.2445  0.2134  0.1569
30195W        W45664   4.603  13.215  12.930  0.2516  0.0673  0.2121
30196W        W45665   4.502   1.302   0.195  0.2199  0.0068 -0.0076
30197W        W45666   9.123   5.449   0.311  0.0289 -0.0639 -0.2382
30198W        W45667   9.546  10.357  12.673  0.0499  0.0158  0.0077
30199W        W45668   6.204   2.028   0.002 -0.0993 -0.0405 -0.2927
30200W        W45669  13.080   5.972  14.116  0.0302 -0.1726  0.0470
30201W        W45670   2.616   2.095  14.974 -0.0278  0.0430 -0.0972
30202W        W45671  15.986   8.124   3.833 -0.0622 -0.1665  0.0423
30203W        W45672   0.755   7.581  10.915  0.2202  0.2874  0.0912
30204W        W45673   2.586   3.470   2.770  0.0547  0.2073 -0.0397
30205W        W45674   3.837   1.046   2.218 -0.1669  0.0684 -0.1860
30206W        W45675   3.864   6.872   2.847 -0.2871 -0.1452 -0.1060
30207W        W45676  16.098   5.694  12.435 -0.1157 -0.2937  0.1956
30208W        W45677   6.123  15.771  13.371 -0.1434 -0.1634  0.0323
30209W        W45678  11.135   1.106   9.653 -0.1358 -0.0058  0.3200
30210W        W45679   5.205   7.361  13.848  0.0036 -0.3536  0.2453
30211W        W45680   8.745  10.164   0.087 -0.1506  0.3562 -0.1962
30212W        W45681   7.925  10.773  13.580 -0.1375  0.1543 -0.0824
30213W        W45682  15.638   6.891   0.491 -0.1627 -0.0333 -0.1246
30214W        W45683   0.266  11.617  10.984  0.0044 -0.1404  0.0158
30215W        W45684   9.266   1.865   2.418  0.1186 -0.0114  0.1830
30216W        W45685   0.510  18.145   2.672  0.1658 -0.0873  0.1824
30217W        W45686   8.217  13.874  14.703  0.0168 -0.1377  0.1470
30218W        W45687   8.557  14.367  12.247 -0.1942  0.0352  0.1285
30219W        W45688  14.902  11.662   2.073 -0.0397  0.0710  0.0692
30220W        W45689   7.972  13.579  11.325  0.0194 -0.0591  0.3004
30221W        W45690   3.780   0.012  10.936 -0.4120 -0.0888  0.1470
30222W        W45691  13.019   3.016   1.237 -0.2706  0.1530 -0.1051
30223W        W45692  18.521   9.858   2.419 -0.0834  0.1377  0.1673
30224W        W45693   6.693  16.747   4.068 -0.2125  0.0223  0.4102
30225W        W45694   2.611   4.154   3.500 -0.1821 -0.3669  0.0511
30226W        W45695   9.067  16.601  11.840  0.1545  0.0818 -0.2266
30227W        W45696  10.474  12.059  13.826  0.0268  0.0021 -0.0238
30228W        W45697   6.642  16.290  13.753  0.2706 -0.1879  0.1553
30229W        W45698  14.495  16.432  10.281  0.3039 -0.0355 -0.0029
30230W        W45699  12.092   9.291   4.429 -0.1683  0.2777 -0.1622
30231W        W45700  13.414   2.968   3.630 -0.0505 -0.0947 -0.2185
30232W        W45701   8.253   8.619  10.649  0.1170 -0.0643  0.2499
30233W        W45702  12.314   8.559  11.420  0.3528  0.0893  0.1455
30234W        W45703   1.407   5.097   2.063  0.2773 -0.2631  0.1838
30235W        W45704   4.794  18.322   4.218 -0.0769  0.2874 -0.1935
30236W        W45705   7.614   6.386   5.334 -0.0108  0.0272 -0.2088
30237W        W45706  12.370  12.947  13.210 -0.2104  0.0040 -0.1445
30238W        W45707  11.271  12.008   0.672  0.1740  0.5594 -0.0780
30239W        W45708   2.814   7.666   3.278  0.1408 -0.2778  0.1350
30240W        W45709   2.927   1.165  11.653  0.0727 -0.1816  0.0048
30241W        W45710   5.407   8.980   3.441 -0.0859 -0.1146  0.0472
30242W        W45711   8.205  12.367  13.480 -0.2320  0.1260 -0.2765
30243W        W45712   1.115   9.555   2.724  0.0624 -0.1085 -0.0399
30244W        W45713   2.251  17.509   2.524 -0.2634 -0.0874 -0.2635
30245W        W45714  11.064   8.599  13.473 -0.1474 -0.1389  0.1277
30246W        W45715  11.359   3.742   9.513  0.2177 -0.0311 -0.1388
30247W        W45716   4.137   5.969   1.519  0.1184 -0.0899 -0.0374
30248W        W45717  12.972   9.579   0.816  0.0937 -0.0012 -0.2884
30249W        W45718  16.250  14.950  14.166 -0.0831  0.1364  0.0876
30250W        W45719   3.227  10.793   0.016 -0.4302  0.2751  0.0219
30251W        W45720  15.155   6.012   4.787 -0.1505  0.2828  0.1262
30252W        W45721  14.380  13.729   1.440 -0.1152  0.0058  0.1261
30253W        W45722   9.193  16.690  15.240  0.0014 -0.1233 -0.1260
30254W        W45723  11.347   2.667  10.786  0.1068 -0.0489 -0.0741
30255W        W45724  16.990  18.548  13.738  0.0600 -0.2890 -0.2512
30256W        W45725   8.077   5.628   3.049 -0.0126  0.2370 -0.2262
30257W        W45726   7.936   1.888   2.864 -0.1970  0.4569  0.0458
30258W        W45727   5.455  15.784  13.466  0.3470 -0.0214  0.4726
30259W        W45728   2.329   2.561  14.920  0.0001  0.0793 -0.3401
30260W        W45729  11.276   8.839  13.930 -0.0669 -0.0528  0.2646
30261W        W45730   7.735  16.533  14.352  0.2543 -0.4242 -0.1845
30262W        W45731   2.407  11.015   1.891 -0.0060 -0.0339  0.1695
30263W        W45732   7.490   9.106  13.559 -0.4157 -0.3249  0.2113
30264W        W45733  10.551   8.062  11.124  0.0310  0.2230  0.1048
30265W        W45734  15.910   0.016  10.644 -0.0399 -0.2074 -0.2521
30266W        W45735  10.807   2.405  12.010  0.0638 -0.2450 -0.0412
30267W        W45736  10.606   9.018   9.838 -0.0084 -0.2439 -0.1921
30268W        W45737   4.031  17.319  11.156 -0.2648  0.1096  0.0696
30269W        W45738  16.962  13.241  11.699 -0.1585 -0.0047 -0.1557
30270W        W45739  14.962   4.766  11.542  0.0789 -0.0555  0.1925
30271W        W45740   3.199  14.465  11.806 -0.1509  0.0657  0.4114
30272W        W45741  18.350   7.337  14.838  0.3162  0.0825 -0.3054
30273W        W45742  16.437   1.830  14.314 -0.1833 -0.3016 -0.2743
30274W        W45743  10.713  18.414   5.302 -0.2066 -0.0877 -0.0383
30275W        W45744  10.283   3.441  12.881  0.0106  0.1310 -0.0656
30276W        W45745   4.344   4.277   4.622 -0.1048 -0.0512 -0.2237
30277W        W45746  11.747   2.287  10.065  0.1015 -0.1636  0.2328
30278W        W45747   2.391  15.425  11.377  0.0031  0.1770  0.0439
30279W        W45748   5.685  10.014  11.944  0.2183  0.1359  0.0130
30280W        W45749  12.650   4.770   3.497  0.1400 -0.2717 -0.1907
30281W        W45750  18.283   1.457  13.800  0.1937 -0.0353 -0.1947
30282W        W45751  18.635   3.477  11.695 -0.2587  0.1881 -0.1306
30283W        W45752   0.682  18.352  14.720  0.0165  0.2996  0.4502
30284W        W45753  11.789   6.938   2.244 -0.0346  0.2104 -0.5827
30285W        W45754   3.889  14.305   4.829  0.0561 -0.1388 -0.1724
30286W        W45755   5.973  10.864   2.673 -0.3026  0.0655 -0.2447
30287W        W45756   4.001   6.177  10.197 -0.2049  0.1618 -0.1402
30288W        W45757   4.068   2.793   2.025  0.0274  0.0825  0.0429
30289W        W45758   0.894   9.511   3.764  0.2080  0.1220 -0.0255
30290W        W45759  10.488  13.182  11.128 -0.2267  0.1759  0.2831
30291W        W45760   8.343  12.037  14.895  0.2630  0.1162  0.0885
30292W        W45761  11.173   8.615  14.360  0.1115  0.2291  0.2321
30293W        W45762   5.145  14.075  15.724  0.0475  0.0267  0.0380
30294W        W45763   3.447   6.889   1.546  0.2358  0.0359  0.0845
30295W        W45764  16.360   5.969  15.563  0.2452 -0.1474  0.1534
30296W        W45765  11.904   1.623  12.023  0.2017 -0.3699 -0.5891
30297W        W45766   0.599  11.793   4.518  0.2353 -0.4622  0.2368
30298W        W45767  14.274  12.168  14.718  0.0075 -0.0046 -0.2468
30299W        W45768   6.759  11.134  11.943 -0.2130  0.2624  0.0012
30300W        W45769   6.733  10.642   5.494 -0.0141 -0.0377 -0.0101
30301W        W45770   4.281  17.523   4.175  0.1350 -0.1007  0.1186
30302W        W45771  17.685   9.867   2.131 -0.1538 -0.1929 -0.0034
30303W        W45772   1.438  12.273   1.646 -0.0608  0.0940  0.0720
30304W        W45773   9.765  15.400   4.342  0.1800 -0.0219  0.1761
30305W        W45774  16.805   0.828  13.140  0.1658 -0.1417 -0.1308
30306W        W45775   6.223  15.959   2.159  0.1104  0.0952  0.3231
30307W        W45776   1.494   3.559   2.566 -0.0941  0.1889 -0.2214
30308W        W45777  13.115  10.854  13.586 -0.0196 -0.0645  0.0555
30309W        W45778   1.202  10.182  15.308  0.0852 -0.0110 -0.2085
30310W        W45779   9.549   0.232  14.551 -0.1551 -0.2867 -0.1903
30311W        W45780   5.954   2.474   1.012  0.1670  0.0227 -0.2925
30312W        W45781  10.753  16.442   3.917 -0.2210 -0.2162  0.0112
30313W        W45782   3.161  13.716   2.358 -0.0291 -0.2361  0.1793
30314W        W45783  16.565   7.513   2.278 -0.3387 -0.0172 -0.0169
30315W        W45784   6.483  10.765   3.366 -0.1225 -0.0258  0.0857
30316W        W45785   5.813  13.656   1.590 -0.4593  0.0099  0.0548
30317W        W45786   2.173   4.520   1.181  0.1465 -0.0383  0.1313
30318W        W45787   4.924   8.850  15.627  0.3484  0.3671 -0.0268
30319W        W45788  14.981   8.184   1.837  0.1015  0.0123 -0.1840
30320W        W45789   3.572  11.475  12.188  0.0038 -0.0550 -0.2149
30321W        W45790   4.383  17.424  11.552 -0.1857 -0.0537  0.2649
30322W        W45791   7.108  11.524  12.063  0.3029 -0.0190 -0.1905
30323W        W45792   8.689   5.817   6.133 -0.0580 -0.0754  0.1897
30324W        W45793  12.718   8.138   1.143 -0.2420 -0.0698 -0.0064
30325W        W45794  11.023   7.319  13.888 -0.1335 -0.0934 -0.0159
30326W        W45795   0.993   0.429  12.264 -0.1223 -0.0205  0.1586
30327W        W45796  12.132   4.486   2.028  0.3663  0.2375 -0.0017
30328W        W45797   4.163  14.360   2.957  0.1410 -0.0253  0.1613
30329W        W45798   4.590   3.936   1.730 -0.0452  0.2724 -0.0385
30330W        W45799   3.384  17.357  15.413  0.2250 -0.0720 -0.0625
30331W        W45800  11.631   2.528   1.033  0.3051 -0.2713 -0.0243
30332W        W45801   9.406  14.450   2.730  0.0600  0.1487 -0.0424
30333W        W45802  17.167  14.947  15.604 -0.2459 -0.0441  0.3605
30334W        W45803  15.167  11.274   4.286  0.1440  0.0879 -0.0963
30335W        W45804   5.903  16.050   3.210 -0.3875 -0.3742 -0.1463
30336W        W45805   1.163   6.737  12.085  0.4809 -0.1915  0.2544
30337W        W45806  16.164   3.767   0.279  0.1325  0.1330 -0.2090
30338W        W45807  13.905   5.103  15.740  0.0110 -0.0735  0.1724
30339W        W45808  10.880   9.882   5.201  0.2347  0.0313 -0.1438
30340W        W45809  17.608   1.989   1.788  0.2328  0.0116 -0.5252
30341W        W45810  14.963   7.626  15.061  0.0632 -0.1051 -0.2202
30342W        W45811   0.985  16.182   0.446  0.0383 -0.0262 -0.0046
30343W        W45812   6.227   7.235  11.684  0.1789 -0.0335  0.0153
30344W        W45813   6.490   8.901  12.502  0.1134 -0.0536  0.3276
30345W        W45814   7.339   8.244   5.179 -0.0215  0.1830 -0.0936
30346W        W45815   6.939   7.128   5.471 -0.1686 -0.1423 -0.1157
30347W        W45816   9.615   0.346  14.077 -0.1246 -0.0395 -0.1274
30348W        W45817  13.237   9.266   1.128 -0.2769  0.2228  0.3445
30349W        W45818   2.220   4.861   0.332 -0.1856  0.1300 -0.0058
30350W        W45819  17.806  15.714   5.182 -0.0175  0.1691 -0.1554
30351W        W45820  17.755   5.466   2.181 -0.0922  0.1321  0.1639
30352W        W45821   7.739   4.150  14.833 -0.1566 -0.1449 -0.2217
30353W        W45822   8.407   5.996   4.205 -0.0456 -0.3374  0.3284
30354W        W45823   7.279   3.813  12.878 -0.1526 -0.1327  0.2271
30355W        W45824   0.907  11.139  14.794  0.4849  0.0629 -0.2078
30356W        W45825   1.591  16.670   2.654 -0.0292 -0.1905 -0.0343
30357W        W45826  10.615  18.078   0.574 -0.1344 -0.0768 -0.2527
30358W        W45827   6.554  17.966   2.521 -0.0029 -0.3112  0.1165
30359W        W45828  17.564  12.063   2.840  0.1030 -0.1006  0.1324
30360W        W45829  14.274   8.418   3.430  0.0295 -0.0703 -0.0396
30361W        W45830   0.352  11.495   2.880  0.0642  0.0512  0.0409
30362W        W45831   4.363   3.777  12.845 -0.4509  0.3107  0.4603
30363W        W45832  16.538  11.924   4.183 -0.0228  0.0649 -0.1661
30364W        W45833  12.781   9.888   2.341  0.5891 -0.0115 -0.1410
30365W        W45834   5.448   2.378   1.895 -0.1973 -0.3849  0.1992
30366W        W45835   6.092   0.814   2.476 -0.0570  0.1384 -0.1375
30367W        W45836   6.699  17.126   3.720  0.1025  0.0730 -0.3154
30368W        W45837  17.950  17.633  13.865  0.1225  0.0413  0.0973
30369W        W45838   9.014   5.352   1.232 -0.1817  0.1237 -0.0170
30370W        W45839  16.413   5.515   4.225  0.0192  0.2338  0.3339
30371W        W45840   5.844  11.556  15.765  0.0004  0.3616  0.0920
30372W        W45841   0.456  17.103   2.230  0.2454  0.2663 -0.0290
30373W        W45842  11.506   5.466   3.942 -0.0590 -0.2675 -0.3614
30374W        W45843  18.333  14.884   3.044  0.0909 -0.3553 -0.0336
30375W        W45844  15.784   9.922   1.029 -0.0353  0.1636 -0.2536
30376W        W45845   2.539   2.689   3.582  0.0306 -0.0212 -0.0623
30377W        W45846  16.609  16.104   4.759  0.2753 -0.0646 -0.0905
30378W        W45847   8.592   1.674   9.594  0.0390 -0.1582 -0.0079
30379W        W45848   7.100   9.198  12.321  0.0094 -0.0990 -0.2428
30380W        W45849  16.003   7.872  15.334 -0.1024 -0.0542  0.0479
30381W        W45850  17.322   7.301  14.628 -0.0487 -0.0931 -0.1141
30382W        W45851   7.231   8.824  12.067 -0.1662  0.0056  0.0141
30383W        W45852   6.615   4.007  12.065 -0.1318 -0.0437 -0.2718
30384W        W45853   6.280   3.656  13.546  0.1979 -0.3243  0.0029
30385W        W45854  18.397   8.179  15.231 -0.0396  0.1688 -0.2208
30386W        W45855   6.408  18.150  13.912 -0.0823 -0.2393 -0.0930
30387W        W45856  11.270  15.237  15.456  0.3013  0.4880  0.0252
30388W        W45857  16.997   8.145   4.698  0.0149 -0.2655 -0.0622
30389W        W45858  15.718  18.501   2.407  0.1203 -0.1338  0.0247
30390W        W45859   4.731  17.325   1.336 -0.1210 -0.0449  0.1250
30391W        W45860  12.799   5.162   0.270 -0.0687 -0.1266 -0.0096
30392W        W45861   5.526   2.661  13.931  0.0364  0.0084 -0.2260
30393W        W45862  14.123   2.044  13.976  0.0949 -0.0555 -0.0238
30394W        W45863  16.328   0.437   2.442 -0.0189 -0.0922 -0.0733
30395W        W45864   1.999  17.824   0.744  0.0830  0.0193 -0.2534
30396W        W45865  10.303  10.024  12.228 -0.0417 -0.0259  0.1102
30397W        W45866   1.430  17.097   3.323 -0.0256 -0.1900  0.1147
30398W        W45867  12.837   9.766  11.804 -0.0696  0.1267  0.2230
30399W        W45868  16.617   2.827  14.598 -0.2454  0.2027 -0.0536
30400W        W45869   6.141  11.054   0.639  0.0307 -0.1322 -0.3476
30401W        W45870   1.710  10.433   2.436 -0.1603  0.3181 -0.3192
30402W        W45871  13.928   4.662   3.107 -0.0307 -0.4186  0.0990
30403W        W45872   1.258   1.006   0.023  0.2404  0.1308  0.0279
30404W        W45873  17.834  12.578   5.369 -0.1220  0.0654 -0.1406
30405W        W45874  12.363   5.268  14.494 -0.0231 -0.0227 -0.4641
30406W        W45875   8.269  12.292   0.436  0.2520  0.0308 -0.3358
30407W        W45876  14.320  15.856  12.142  0.2463 -0.0750 -0.2306
30408W        W45877   5.166  16.283   1.132  0.0007  0.1481 -0.3402
30409W        W45878  10.419   2.316   3.416 -0.1327 -0.2524 -0.0778
30410W        W45879  14.436  16.772  15.036 -0.2064 -0.0915 -0.1750
30411W        W45880   4.443   9.976   5.119 -0.1262  0.2141 -0.1166
30412W        W45881   7.378   6.803  11.781  0.1728 -0.0894  0.2154
30413W        W45882   8.026  11.025  11.050  0.1103 -0.0033  0.1180
30414W        W45883   4.307  11.571   6.079 -0.0697  0.1271 -0.1086
30415W        W45884  14.885   1.060   0.028  0.0730  0.0191  0.2212
30416W        W45885  15.826   0.258   0.881 -0.4180  0.0405 -0.0678
30417W        W45886   5.671   2.507  12.500 -0.0991 -0.0971  0.0285
30418W        W45887   2.803  11.184   0.718 -0.0947 -0.0470  0.2395
30419W        W45888   2.584  11.580   0.921 -0.0724  0.2912  0.0322
30420W        W45889   8.760   0.334  11.793  0.0915  0.3597 -0.0815
30421W        W45890  11.523   6.009  10.208 -0.4160  0.2106  0.0710
30422W        W45891   6.625  15.764  11.273  0.1866  0.0525  0.1592
30423W        W45892  15.838  11.763   2.159 -0.0645  0.0023 -0.2109
30424W        W45893  13.133  14.250   0.646  0.0319  0.0011 -0.0442
30425W        W45894  12.199  15.109  11.286  0.0017  0.0620 -0.0968
30426W        W45895  15.657  17.258   1.736  0.1233 -0.2305 -0.2488
30427W        W45896  13.840   3.285   5.117  0.2432  0.3032  0.1249
30428W        W45897  13.287   5.101  14.502 -0.0533  0.1682 -0.2731
30429W        W45898   5.192  12.253  12.783 -0.1154  0.0469  0.1612
30430W        W45899  14.727   7.728   4.554  0.0764 -0.0509  0.0198
30431W        W45900   2.978   1.352  13.227  0.0321 -0.2749 -0.3384
30432W        W45901   6.981   4.312   4.766 -0.0857 -0.2660 -0.1102
30433W        W45902  15.075  10.668   5.859  0.1793 -0.0630 -0.1225
30434W        W45903  17.456   6.645   1.020 -0.1942 -0.4734 -0.0594
30435W        W45904   7.213  12.455   1.602  0.1047 -0.0519 -0.0382
30436W        W45905  10.553   0.253  14.500  0.2446  0.1348  0.1017
30437W        W45906  14.810  10.659  12.090  0.0481 -0.2226 -0.2527
30438W        W45907   5.411  12.265   0.989  0.2407  0.1279 -0.0558
30439W        W45908   6.342   3.287   0.980 -0.1681  0.2062  0.2001
30440W        W45909   8.730   8.342  13.247  0.0622  0.0965  0.0261
30441W        W45910   1.573  15.106   2.493  0.1379 -0.1122  0.1295
30442W        W45911  10.379  16.016   3.413 -0.1695  0.1612  0.0034
30443W        W45912  15.536   7.528   1.065 -0.0830  0.1155 -0.0471
30444W        W45913  13.295  10.059   0.891  0.1403 -0.0151 -0.0319
30445W        W45914  16.988   0.325   1.250 -0.0682 -0.0808  0.1428
30446W        W45915   8.558   1.273   4.557  0.1124 -0.0014  0.0094
30447W        W45916   8.588   3.787  10.996 -0.1551  0.0592  0.0379
30448W        W45917   8.548   0.063   4.487 -0.2801 -0.1110  0.0786
30449W        W45918   0.873   1.910  11.680  0.0894  0.1736 -0.1584
30450W        W45919   9.376  12.905  14.096  0.1187 -0.0241 -0.2701
30451W        W45920  17.785  17.404  15.450 -0.0256 -0.0105 -0.4108
30452W        W45921  11.018  14.698   3.143  0.0153  0.1968 -0.0835
30453W        W45922  16.114  12.408  12.325  0.1573  0.2832 -0.1563
30454W        W45923   3.410  10.340  15.239  0.2365 -0.0858 -0.2048
30455W        W45924   2.137  10.225   2.419  0.1252  0.0907  0.1331
30456W        W45925  15.712   1.797   2.239 -0.1358  0.2361 -0.2714
30457W        W45926   9.432  17.554   0.677 -0.0929 -0.0018 -0.0678
30458W        W45927  11.432   4.505  12.928  0.2880  0.1451 -0.1996
30459W        W45928   9.707   6.743  13.833 -0.3203  0.0975  0.0069
30460W        W45929  13.249  17.784   0.018  0.0772  0.0426  0.3416
30461W        W45930   6.245   4.632   3.937  0.0928  0.0130  0.0093
30462W        W45931  12.342   5.335   0.521 -0.1424 -0.0342 -0.0405
30463W        W45932   1.968  14.333   2.959  0.1470 -0.0849 -0.2862
30464W        W45933   8.745   7.114   9.783  0.1111 -0.2124  0.1202
30465W        W45934   0.574  12.737  11.999 -0.2759 -0.0060 -0.0585
30466W        W45935   5.375  18.443  15.321 -0.0244  0.2170 -0.0023
30467W        W45936  16.997  14.762  11.300 -0.1860  0.1816  0.0388
30468W        W45937   5.347  18.657   2.414  0.2576  0.1289  0.0991
30469W        W45938  14.434   1.977  11.799  0.4067 -0.1360  0.0227
30470W        W45939   5.269   8.124  13.555 -0.2716  0.2394  0.3653
30471W        W45940  16.281  18.297   2.247 -0.1555 -0.1589  0.0934
30472W        W45941   8.020   4.717  10.201 -0.1629  0.0335 -0.3611
30473W        W45942   1.181   4.200  11.143 -0.2994  0.1835  0.0022
30474W        W45943  12.325  15.388  15.779  0.1945  0.0851  0.1822
30475W        W45944   5.066  13.181   2.781  0.1467 -0.1747  0.1018
30476W        W45945   5.799  10.830  11.097  0.1608 -0.2637  0.4096
30477W        W45946   5.715   7.745  11.597  0.1885  0.0209 -0.0970
30478W        W45947  18.107  18.308   2.349  0.1162 -0.1091  0.1781
30479W        W45948   1.205  11.598   2.485 -0.2275  0.1360 -0.2711
30480W        W45949  12.633   0.057  11.519  0.2039  0.0700  0.3372
30481W        W45950  13.553  17.865  10.802 -0.0771  0.1835 -0.2743
30482W        W45951  16.131  17.962  14.422 -0.0385 -0.1619  0.0950
30483W        W45952   9.950   5.093  15.441  0.4637  0.1501  0.0671
30484W        W45953  17.043  12.308  13.793 -0.2364  0.0711  0.1432
30485W        W45954   4.959   0.986  15.700 -0.1717 -0.4551  0.0062
30486W        W45955  18.196   4.306   0.101 -0.0989  0.4297  0.0532
30487W        W45956   3.039   8.961   5.347  0.1784 -0.2701 -0.1413
30488W        W45957   0.128  10.531   3.451  0.2771 -0.0502  0.1093
30489W        W45958   0.677  17.719  12.999 -0.1165  0.0204 -0.1485
30490W        W45959   4.256   7.873  14.890 -0.3418 -0.1713 -0.3320
30491W        W45960  12.263   5.750   1.888 -0.1418 -0.1425 -0.2383
30492W        W45961   4.853   2.891   0.163  0.0199  0.1555  0.1667
30493W        W45962  16.765   4.529  14.462  0.3193 -0.2131 -0.0629
30494W        W45963   5.845  18.540   4.028 -0.1025  0.1005  0.0873
30495W        W45964   8.567   2.426   2.943 -0.1330 -0.0159  0.2657
30496W        W45965   2.607  17.559  12.118  0.2084  0.3754  0.1780
30497W        W45966   2.082   5.196  11.379  0.3061  0.0233  0.2944
30498W        W45967   8.162   7.197   3.855 -0.0910 -0.1378 -0.1471
30499W        W45968  11.162  15.420   3.385  0.3427 -0.1584 -0.1101
30500W        W45969   5.088  13.235   3.258 -0.1074  0.1752 -0.1336
30501W        W45970   3.930   0.234  15.571 -0.0717  0.1158  0.0692
30502W        W45971   9.621   7.712  14.005  0.0342  0.0975  0.1865
30503W        W45972   5.701  11.909  12.586  0.3426 -0.1022  0.0770
30504W        W45973  16.525   6.334   2.309  0.1072 -0.1396  0.2572
30505W        W45974  13.684  17.385   0.311 -0.2595  0.0541  0.3490
30506W        W45975  11.511  17.809   1.929 -0.0970 -0.0609  0.2383
30507W        W45976   7.224   7.711   0.867  0.4999  0.1144 -0.0432
30508W        W45977   2.284   6.414   1.055  0.1773  0.1960 -0.3323
30509W        W45978  13.120   2.257  13.855  0.1127  0.0313  0.3364
30510W        W45979  10.147   7.217  13.436  0.1011 -0.1328 -0.0347
30511W        W45980  11.736   7.092  15.507 -0.0772  0.2338 -0.0489
30512W        W45981   9.392  11.678   0.989  0.0629  0.0273 -0.0916
30513W        W45982  15.617   5.802   3.950  0.1476  0.0127 -0.1961
30514W        W45983   8.503   9.032   2.781 -0.0016 -0.0377 -0.0011
30515W        W45984  12.425  16.364   3.906 -0.3400 -0.1346  0.0169
30516W        W45985  18.408   5.320   3.839  0.1867 -0.0381 -0.3963
30517W        W45986   1.120   5.529  14.505  0.0889  0.3729 -0.2258
30518W        W45987   1.955  11.956   0.192 -0.2817  0.1369  0.0044
30519W        W45988  12.365   7.182   5.140  0.2197  0.0758  0.1756
30520W        W45989   3.028   9.449  12.994  0.2015 -0.4309 -0.1840
30521W        W45990   1.526   5.457   3.142  0.1356 -0.1572 -0.2427
30522W        W45991  16.093  12.369  13.766  0.2014  0.1261  0.1295
30523W        W45992   8.621  17.692  13.568 -0.0951 -0.2784  0.0559
30524W        W45993   0.494  13.612   1.599 -0.0150 -0.4189  0.2890
30525W        W45994  12.105   6.936  11.818  0.3961  0.0693  0.1011
30526W        W45995  11.213  16.051   5.971  0.0091 -0.3486  0.2642
30527W        W45996  12.266  13.925   3.801 -0.2185  0.3206  0.2282
30528W        W45997   6.243   8.891   1.088  0.1405 -0.1889  0.2270
30529W        W45998   9.871   1.529  11.161 -0.0986 -0.1467 -0.0775
30530W        W45999   5.358  15.812   4.946 -0.2406 -0.2188 -0.0856
30531W        W46000  10.179   5.601   5.739 -0.0331  0.1169  0.2331
30532W        W46001   8.426   6.795   4.294 -0.0593 -0.0005  0.0377
30533W        W46002  14.914   5.825  11.590  0.3869 -0.2209  0.1293
30534W        W46003   8.365   1.633  13.673 -0.1531 -0.0543  0.3814
30535W        W46004   6.416   0.830   3.432  0.0299  0.1968 -0.1747
30536W        W46005   5.316   8.021  14.835 -0.1821 -0.0962 -0.1541
30537W        W46006   5.597  15.922   1.742 -0.0555  0.0250  0.0564
30538W        W46007  14.564  11.267  11.515  0.1477  0.2333  0.3507
30539W        W46008   8.632   6.622   1.050 -0.2155  0.1436 -0.0053
30540W        W46009  11.439   1.839   2.576  0.0094 -0.1960  0.0054
30541W        W46010  11.033   4.976  14.246 -0.3405  0.1993 -0.1542
30542W        W46011  13.368  11.129   1.594 -0.0321  0.1660 -0.0908
30543W        W46012  16.075  17.556  12.608  0.5516 -0.2103  0.0015
30544W        W46013   3.255  16.551  11.189  0.1929  0.2206  0.2261
30545W        W46014   8.127  18.651   1.906  0.0580 -0.0900  0.2133
30546W        W46015  18.536  14.116   4.551 -0.1965 -0.3051 -0.1686
30547W        W46016  10.230  15.601   1.921  0.2688 -0.0340  0.0268
30548W        W46017  11.340  14.666   0.380  0.0666 -0.2231  0.1143
30549W        W46018   5.792   5.462   5.479 -0.0740  0.2642 -0.3269
30550W        W46019   6.116   2.742  13.783  0.4607  0.3147  0.1767
30551W        W46020   7.676  15.887   1.895 -0.0565  0.2822  0.0708
30552W        W46021   4.442  10.764  11.661 -0.1335 -0.1537  0.0965
30553W        W46022   9.238   5.330   0.753 -0.1142  0.0180 -0.2002
30554W        W46023   6.048   8.165   4.334 -0.1548  0.2172 -0.0537
30555W        W46024  16.523  15.512  14.445  0.0278  0.1511  0.1341
30556W        W46025  16.648  17.953   2.296 -0.1933 -0.0198  0.1675
30557W        W46026   7.567  13.057   1.519 -0.4221 -0.0667 -0.0584
30558W        W46027  12.712   8.242  14.669  0.0230  0.1812 -0.2370
30559W        W46028   6.922   7.223   3.045 -0.3107 -0.1143 -0.0540
30560W        W46029  14.104   4.336   4.494 -0.4964  0.3161  0.1846
30561W        W46030   9.813  12.297  10.883  0.0574  0.1860  0.1233
30562W        W46031   3.100  17.670  12.017 -0.0813  0.3384 -0.1070
30563W        W46032   0.106   5.526  13.667 -0.3786  0.0139  0.1854
30564W        W46033  15.560   4.730  14.177 -0.0371  0.0971 -0.0870
30565W        W46034   9.752  17.214  12.820 -0.0191 -0.2205  0.0421
30566W        W46035  14.749  14.249  14.699 -0.3987  0.0606 -0.1533
30567W        W46036   0.489  16.014   4.347 -0.0762 -0.1504 -0.0454
30568W        W46037   5.881   8.843  15.636  0.3248  0.3255 -0.1984
30569W        W46038   4.225  13.996   4.176 -0.1020  0.1259 -0.0766
30570W        W46039  11.458   9.540  12.603 -0.0203  0.4027 -0.3517
30571W        W46040   8.014  17.196   0.914 -0.1291 -0.4647 -0.1657
30572W        W46041  12.065   2.990   2.466  0.4672  0.0753  0.2356
30573W        W46042  10.591  17.206   3.235  0.2993  0.2853  0.1673
30574W        W46043   1.660   6.033  11.625  0.0150  0.0186  0.3009
30575W        W46044  15.073   2.836   1.578  0.2442  0.0424 -0.0108
30576W        W46045  18.365   5.583  13.931 -0.1907  0.2860  0.1110
30577W        W46046  10.433   2.944  12.159 -0.0660  0.0240  0.1034
30578W        W46047  10.353   6.923  15.268  0.0479 -0.1555 -0.1614
30579W        W46048   6.795   1.086  11.262  0.1808  0.2656  0.1393
30580W        W46049   8.624   3.881  12.682 -0.1071 -0.2530 -0.2113
30581W        W46050  15.066  10.323  11.901 -0.4441  0.1797  0.4601
30582W        W46051  12.946   1.087   4.596  0.0176  0.2046  0.0252
30583W        W46052   9.490   3.013   0.867  0.0962 -0.0564  0.1599
30584W        W46053   6.858   8.520   4.628  0.0370 -0.0256 -0.0910
30585W        W46054   1.522   6.950  13.236 -0.0873 -0.3167 -0.1630
30586W        W46055  13.585   6.734   4.981 -0.0076 -0.3427 -0.3400
30587W        W46056   3.464   0.499  15.735 -0.2928 -0.0150  0.1667
30588W        W46057  17.549   9.287   1.737  0.3199 -0.1701  0.1966
30589W        W46058  11.197  16.200  14.681  0.5702  0.0406  0.1229
30590W        W46059   8.044   6.083   3.255  0.3369 -0.0417  0.1167
30591W        W46060  15.807  16.453  14.769 -0.0092  0.1389 -0.1076
30592W        W46061   1.693  13.831   3.204  0.0994  0.2497  0.0503
30593W        W46062  18.580   9.533  15.173 -0.3491 -0.0712 -0.2150
30594W        W46063  14.046   7.893  13.316 -0.0793  0.0819 -0.0950
30595W        W46064  12.871   4.427  14.119 -0.0198  0.1653  0.0926
30596W        W46065  14.306   2.956   4.165 -0.1435 -0.0673  0.2007
30597W        W46066   7.370   7.365   0.322 -0.1722 -0.1882 -0.1920
30598W        W46067  13.533  11.230   0.063  0.0491 -0.1424 -0.6710
30599W        W46068  17.522   9.944  12.944 -0.0668  0.0746 -0.3469
30600W        W46069  12.791  16.516  13.369  0.0340 -0.2323  0.0961
30601W        W46070   6.074  13.963   1.878 -0.0922 -0.1071  0.2564
30602W        W46071   9.072   4.765   2.445  0.1590  0.5052 -0.1696
30603W        W46072  10.275   7.052   0.297 -0.4134 -0.0901 -0.0394
30604W        W46073  12.150   7.872  14.214  0.3119 -0.1443  0.1625
30605W        W46074  16.457  17.417   0.050 -0.1098 -0.2060 -0.2995
30606W        W46075  12.135   0.790   0.288  0.0459 -0.0613 -0.2838
30607W        W46076  11.335   1.177  13.793  0.1951 -0.0851  0.0768
30608W        W46077  18.658  12.795   2.498  0.2278 -0.0732 -0.4530
30609W        W46078   4.573   0.086   3.088  0.0529  0.0649 -0.1235
30610W        W46079  17.877  17.548   2.177 -0.2236  0.0501  0.0543
30611W        W46080  13.017   8.314  15.184 -0.0233 -0.0218 -0.0339
30612W        W46081  18.507   4.322   5.402  0.0844  0.2191 -0.0214
30613W        W46082  17.361   2.144   4.757 -0.1617  0.0408  0.0051
30614W        W46083  17.066  18.575   2.671  0.1668 -0.1323 -0.1375
30615W        W46084  14.564   5.598   1.551 -0.0417 -0.0977  0.0894
30616W        W46085  10.754   2.129  13.583  0.1248  0.3459  0.0758
30617W        W46086   9.898  13.432  11.588 -0.0847  0.1900  0.1790
30618W        W46087  14.972  16.639   3.038  0.1343  0.2172 -0.0110
30619W        W46088  10.622   1.383  11.152 -0.0626 -0.0202  0.1359
30620W        W46089   4.512  14.828  13.853 -0.4236  0.2017  0.0462
30621W        W46090   1.230   6.713  12.554  0.0276 -0.0955 -0.1739
30622W        W46091  12.029   5.597   3.974  0.0863 -0.3202 -0.1423
30623W        W46092   7.737  13.368   4.750  0.0596  0.2139  0.0935
30624W        W46093   9.476   2.242  12.700  0.1906  0.0204 -0.2121
30625W        W46094  10.188   0.074  13.122 -0.0816  0.3534  0.0497
30626W        W46095   3.079  18.429  13.356 -0.0993 -0.1785  0.1950
30627W        W46096   7.910  12.514   4.623 -0.0629  0.2977 -0.0855
30628W        W46097   1.917  13.374  12.848  0.0169  0.0998 -0.1131
30629W        W46098  17.025  16.431   2.955 -0.2936 -0.0133  0.0464
30630W        W46099   3.112  14.425   2.047 -0.1676  0.1911  0.0678
30631W        W46100  11.905  12.345   6.168 -0.2841  0.0631  0.2883
30632W        W46101  13.633  12.607  11.019 -0.1196 -0.6037  0.1075
30633W        W46102   8.307  13.234   0.553 -0.2209 -0.3181  0.1039
30634W        W46103   9.598   4.437  14.116  0.0819 -0.2808  0.0520
30635W        W46104   0.731   9.406   4.923  0.2148 -0.1586 -0.1831
30636W        W46105  15.904  18.671  13.906 -0.0483  0.0578 -0.2495
30637W        W46106  18.148   8.768  11.767  0.1273  0.3484  0.1461
30638W        W46107   0.597   4.864   3.549  0.0150  0.1867  0.0745
30639W        W46108   6.778   8.975  15.504 -0.1611  0.0256  0.0904
30640W        W46109  13.909  10.489   0.230 -0.1161 -0.0838  0.2435
30641W        W46110  12.619   1.856   1.460 -0.0163  0.1376  0.2051
30642W        W46111  15.685  10.384   0.106 -0.3513  0.0916 -0.0490
30643W        W46112   1.530  10.920   1.357 -0.2630  0.1659 -0.0745
30644W        W46113   3.206   4.166   9.361 -0.2751 -0.0155 -0.0556
30645W        W46114  12.019  18.503  14.244  0.1997  0.1144 -0.0162
30646W        W46115  11.990   8.022  15.293  0.0320  0.0811  0.1415
30647W        W46116  13.453   6.461  12.232  0.3530 -0.1256  0.0571
30648W        W46117  12.885   0.258  10.972  0.1927 -0.0438  0.1571
30649W        W46118  13.514   7.835   5.630 -0.1104  0.0601  0.2445
30650W        W46119   4.681  14.122   0.142  0.0081  0.0406 -0.0047
30651W        W46120   1.354  12.327  11.771 -0.1234 -0.0047 -0.2926
30652W        W46121   7.396   3.626   2.562  0.1503  0.1501  0.1460
30653W        W46122  16.254  15.240   3.269  0.1371  0.1915 -0.0593
30654W        W46123  11.518   5.533   2.587  0.1731 -0.2845 -0.3140
30655W        W46124  12.637  14.529  13.295 -0.0405  0.0170  0.1024
30656W        W46125  12.506  11.167  14.374  0.0880 -0.0518  0.4179
30657W        W46126  18.497  14.421  13.927 -0.0259  0.2020 -0.1623
30658W        W46127   5.512  13.527   6.081  0.0467 -0.2961 -0.4319
30659W        W46128  13.068   0.247  12.408  0.1492 -0.0604 -0.0070
30660W        W46129   3.151   9.458  12.530  0.1174 -0.2587  0.0423
30661W        W46130  13.053  10.206  15.404 -0.1073  0.2950 -0.1007
30662W        W46131   7.524  15.509  10.787  0.1563  0.2289  0.2614
30663W        W46132  11.179   7.446   3.300  0.0139  0.0305 -0.1431
30664W        W46133  14.402  10.310   2.436 -0.2326  0.1313 -0.3093
30665W        W46134   5.728   0.825  15.152 -0.0109 -0.0078  0.3775
30666W        W46135   6.398  16.306   1.845 -0.3353  0.3641 -0.1284
30667W        W46136   4.947   8.722  12.223  0.0608  0.2217  0.2997
30668W        W46137   0.168   5.746  15.410  0.0980 -0.6140  0.0271
30669W        W46138   1.644   3.553  14.196 -0.0865 -0.0815 -0.1658
30670W        W46139   1.235   1.175   1.738 -0.0560 -0.0162  0.0936
30671W        W46140  16.709  10.599   5.329 -0.1722 -0.0678 -0.2957
30672W        W46141  14.962  13.505   0.225  0.1341  0.2087 -0.1397
30673W        W46142  15.903   7.106   5.192 -0.2180 -0.1670 -0.0501
30674W        W46143   7.248   6.686   3.558 -0.3741  0.2524 -0.1892
30675W        W46144   8.424  18.306   3.274  0.0873  0.0446  0.0910
30676W        W46145   7.518  18.015   4.003  0.1286 -0.0539 -0.1366
30677W        W46146  10.619  16.828   2.398 -0.1058 -0.3489  0.1492
30678W        W46147   0.681   1.122  10.114  0.0157  0.3615  0.0884
30679W        W46148  15.906  11.633  14.241 -0.0614  0.1220 -0.0140
30680W        W46149   0.210  12.767   2.090  0.3461 -0.1248 -0.1287
30681W        W46150  17.527   9.780  13.401  0.0657  0.2440  0.0115
30682W        W46151   0.605  16.970  13.444  0.0837  0.0511 -0.1273
30683W        W46152   9.739   6.385  14.851 -0.1130  0.0166  0.1179
30684W        W46153  11.329  12.688   1.557 -0.1682 -0.1883  0.2087
30685W        W46154  14.018   0.557   1.928  0.1008  0.0442 -0.0404
30686W        W46155   8.614   7.714   4.557 -0.2214  0.1662 -0.0275
30687W        W46156   2.508   7.537  11.187  0.4435 -0.0702 -0.0573
30688W        W46157  15.697   9.326  15.717 -0.2738  0.1224  0.1145
30689W        W46158   9.895  15.208  11.607 -0.0692  0.0293  0.3750
30690W        W46159  14.303  12.865  13.361  0.4294  0.2357  0.1856
30691W        W46160   2.411  18.630   4.272  0.4304 -0.1870 -0.1324
30692W        W46161  15.300  17.151  12.034 -0.2047  0.2479  0.0780
30693W        W46162   8.238  12.010   5.538 -0.0960 -0.3904  0.6287
30694W        W46163  17.907  17.112   9.714  0.0239  0.0817  0.0792
30695W        W46164  12.009   3.576  11.914  0.0304  0.0579  0.0523
30696W        W46165  13.689  17.692  11.963  0.0900  0.3848 -0.0878
30697W        W46166   0.126   5.804   0.692  0.1160 -0.0342  0.0327
30698W        W46167  15.164  14.885  10.943  0.0578  0.1793  0.0291
30699W        W46168  18.232   3.338  12.640 -0.0866  0.0227  0.1616
30700W        W46169   9.484  12.984  13.443 -0.1070  0.1940 -0.0529
30701W        W46170   0.888  14.219  14.101  0.2167 -0.0276  0.0895
30702W        W46171   0.654   8.747   1.945 -0.1646  0.1234 -0.1548
30703W        W46172   4.674   4.674  14.793 -0.0100  0.0737  0.0116
30704W        W46173  13.579  12.111  10.894 -0.0187  0.0240  0.0836
30705W        W46174   0.863  12.536  13.014  0.1446 -0.0771 -0.0685
30706W        W46175   8.256  14.165  13.742 -0.1596 -0.1114 -0.1852
30707W        W46176   5.213   4.116   0.720  0.0898 -0.0104  0.2031
30708W        W46177  14.117   5.592  15.727 -0.2825 -0.1229  0.1849
30709W        W46178   4.136  16.005  11.149  0.0122  0.1278 -0.1665
30710W        W46179  17.867  11.057  12.767  0.1044 -0.4236 -0.1500
30711W        W46180   7.347  13.068   1.073  0.1833 -0.1623 -0.3199
30712W        W46181  16.305  11.503   3.352 -0.1164  0.0642 -0.1168
30713W        W46182  18.017  12.458   3.018 -0.2791  0.0350 -0.0660
30714W        W46183  14.746  17.933  14.565 -0.1725  0.2810  0.1408
30715W        W46184  17.214   3.263  10.912 -0.1143 -0.1490 -0.6497
30716W        W46185   9.715  17.648   1.743 -0.0298  0.4498 -0.0550
30717W        W46186  13.993  11.972   0.584  0.3483 -0.1881 -0.0036
30718W        W46187  18.116  14.181  14.436  0.0233 -0.3666  0.0358
30719W        W46188  15.953  16.431  11.445  0.0979 -0.1852 -0.1441
30720W        W46189   0.226   8.655   2.747  0.0425 -0.0360 -0.1070
30721W        W46190   1.409  15.875   2.126  0.2426 -0.0699  0.1397
30722W        W46191  15.197  15.664   0.283 -0.3384 -0.4008 -0.2565
30723W        W46192   0.327  12.619  13.819 -0.0725 -0.0055 -0.0326
30724W        W46193   5.433   8.194   4.524  0.0466 -0.0087 -0.2408
30725W        W46194   1.911   2.354   0.396 -0.0304 -0.0790 -0.1056
30726W        W46195   1.462   5.430   2.626 -0.1083  0.0101  0.1645
30727W        W46196   1.442   3.128   9.860 -0.1004 -0.1218  0.1157
30728W        W46197   1.265  13.217  10.249  0.2367 -0.1382  0.1321
30729W        W46198  16.332   2.164  14.634 -0.1664  0.3446 -0.2474
30730W        W46199   5.044   3.898  12.157 -0.1523  0.3371  0.0656
30731W        W46200   0.589  13.281  11.771 -0.0992  0.0230  0.2759
30732W        W46201   9.427   5.854   0.681 -0.0878  0.0828  0.1555
30733W        W46202  11.300  17.079   2.422 -0.2683 -0.0433  0.0462
30734W        W46203  14.608   4.444  15.525 -0.1738  0.3080 -0.1277
30735W        W46204  13.003  12.305   2.027 -0.1268  0.2196  0.0917
30736W        W46205   3.895   8.646   4.962  0.0526  0.1502 -0.2721
30737W        W46206   2.731   1.857   3.579 -0.1886  0.1087  0.0552
30738W        W46207  16.105   2.924   3.663 -0.0073  0.0168 -0.1305
30739W        W46208   4.468  10.868   0.231  0.2023 -0.1712  0.1783
30740W        W46209   8.361   6.386  11.854  0.0689  0.0960  0.4279
30741W        W46210   6.199  13.142   4.515  0.0509  0.2501 -0.0086
30742W        W46211   7.878   9.552   2.855 -0.1675  0.0231  0.0320
30743W        W46212  14.005  17.117   2.878  0.2726 -0.1155  0.0068
30744W        W46213   3.460  13.272  13.390  0.0345  0.3870  0.3572
30745W        W46214   5.226  13.755   3.029  0.0350 -0.3726  0.1393
30746W        W46215  11.056  13.559  11.451  0.1424  0.0275  0.1252
30747W        W46216   7.570   6.784   3.213  0.1644 -0.0916 -0.1097
30748W        W46217  14.840   3.145   2.889 -0.4186 -0.0228 -0.3427
30749W        W46218  10.909  12.615   0.797 -0.1482  0.2068 -0.2491
30750W        W46219   8.779  18.333  12.762  0.2039  0.3828  0.1088
30751W        W46220  12.895   0.366   0.965 -0.1648  0.1969  0.1998
30752W        W46221  13.661   2.648  11.589 -0.1566 -0.0487 -0.1350
30753W        W46222  14.170   9.708   4.306 -0.3622 -0.2491 -0.1550
30754W        W46223   9.827   6.219  12.051  0.0254  0.1667 -0.1036
30755W        W46224   8.316  11.880   6.138  0.2238 -0.1877 -0.0482
30756W        W46225  14.552   0.921  13.605  0.4175  0.0997  0.0175
30757W        W46226   4.898  10.217   4.121 -0.1135 -0.0440  0.0949
30758W        W46227  13.139   8.762   0.255  0.0086  0.1355  0.0496
30759W        W46228   0.643   6.451   1.379  0.1014 -0.3725  0.0702
30760W        W46229  12.040   0.407  15.678  0.0137  0.0863  0.1403
30761W        W46230   1.111   4.121  14.642  0.4578  0.1085 -0.0545
30762W        W46231  15.119  17.764   3.441 -0.1282 -0.1167 -0.0464
30763W        W46232   2.964   7.880  14.062 -0.2297  0.3820  0.1125
30764W        W46233   7.771   3.883   1.605 -0.3506  0.0685 -0.0689
30765W        W46234  14.034   7.343  15.018  0.1040 -0.0841 -0.0822
30766W        W46235   2.504   3.250   9.640 -0.0774  0.1550 -0.3028
30767W        W46236  10.770   0.831  14.328 -0.0589 -0.0658 -0.1946
30768W        W46237  16.603  11.187   2.028 -0.1913 -0.0710  0.2772
30769W        W46238   5.695  13.889  12.832  0.1574 -0.1165  0.0535
30770W        W46239   6.819  12.767  14.436 -0.1756  0.1436 -0.0520
30771W        W46240   5.946  11.784   1.260  0.3276  0.3680 -0.1725
30772W        W46241  15.066  16.613   5.510  0.2267  0.2894  0.0721
30773W        W46242   8.483   6.813  10.300 -0.0986 -0.0907  0.3416
30774W        W46243   6.003   1.231  13.226 -0.0274 -0.0306  0.2106
30775W        W46244   6.077   4.499  12.680  0.0518 -0.1463  0.2053
30776W        W46245   1.496   4.571  11.116 -0.0301  0.2104 -0.0808
30777W        W46246  13.566   0.847   4.215  0.3128 -0.0193 -0.0129
30778W        W46247   0.859  10.656   0.686  0.0879  0.3725 -0.1807
30779W        W46248   7.463   3.514   5.015  0.1457  0.4690 -0.0534
30780W        W46249  14.719   1.683   1.019  0.2547 -0.2494  0.1180
30781W        W46250   4.812   9.195  13.481 -0.2598  0.0276  0.1260
30782W        W46251   5.784   2.149   4.738  0.2236 -0.1222 -0.0606
30783W        W46252   5.008  14.591  12.266  0.1341  0.3550 -0.1956
30784W        W46253   2.613  15.758   1.273  0.0169  0.0243  0.0126
30785W        W46254  18.633  17.013   4.296 -0.1200  0.3958  0.1492
30786W        W46255  18.366  15.042   2.213  0.1650  0.1901 -0.1494
30787W        W46256   1.339  12.800  11.592 -0.3807  0.0779  0.1114
30788W        W46257  16.983  15.226   0.277 -0.0589 -0.0850 -0.1608
30789W        W46258  15.709   6.362   0.389 -0.1756 -0.0596 -0.0195
30790W        W46259  12.120   5.097  13.131  0.0029  0.3870 -0.0683
30791W        W46260   0.933   5.819  11.435  0.1783 -0.1779 -0.1592
30792W        W46261  17.437  10.337   2.606  0.1353  0.0018  0.0240
30793W        W46262  15.438   8.959  12.334  0.0779  0.1569  0.0508
30794W        W46263  11.933   3.502  13.716 -0.1365  0.2455  0.4422
30795W        W46264  13.838  18.582  10.407  0.0502  0.0779  0.3465
30796W        W46265  15.552  17.699   4.514  0.1544 -0.2490  0.0212
30797W        W46266  13.184   5.207   1.974 -0.0414 -0.0588  0.1528
30798W        W46267  12.000  15.854  11.109 -0.1517 -0.0670  0.0398
30799W        W46268   8.742   8.070   0.312 -0.1617 -0.1771 -0.0161
30800W        W46269  12.739   5.558  12.663  0.2266  0.2587 -0.0660
30801W        W46270  10.799  12.278   4.668  0.4366  0.0972  0.0547
30802W        W46271   8.452  11.076   5.558  0.0441  0.0058 -0.0187
30803W        W46272   0.531  14.567  10.013  0.0402  0.1103  0.1831
30804W        W46273   1.357  17.655   1.549 -0.0015 -0.1666  0.4342
30805W        W46274   3.962   2.471  13.879 -0.1286 -0.0801  0.1743
30806W        W46275  10.781   8.903  13.826 -0.2029 -0.0563 -0.3309
30807W        W46276   7.353   7.913  11.525 -0.0650  0.0252 -0.2575
30808W        W46277   9.640  18.589   1.712  0.0871  0.0730  0.2235
30809W        W46278  14.195  16.600   4.877 -0.3655 -0.0499  0.0820
30810W        W46279   4.293  16.783   1.103 -0.0007  0.1269 -0.1698
30811W        W46280   0.294  11.437  15.779 -0.1679 -0.1159 -0.2508
30812W        W46281  15.802  10.518  11.086 -0.1137 -0.1285  0.2783
30813W        W46282   9.357   8.701   5.183  0.1350 -0.0112 -0.1074
30814W        W46283   9.692   1.866  15.677 -0.1290  0.2660 -0.1369
30815W        W46284  16.779   6.584  12.116 -0.0828 -0.0806 -0.0179
30816W        W46285   7.632  18.499  10.730 -0.0402 -0.0957  0.1525
30817W        W46286  15.608  14.798  10.729 -0.1633 -0.0090 -0.0555
30818W        W46287   6.263  10.495   5.050 -0.0650  0.0450 -0.3027
30819W        W46288   0.523  10.683  12.905  0.1100 -0.1738  0.0147
30820W        W46289  15.639   2.912  11.358 -0.1047  0.1897 -0.1269
30821W        W46290  10.938   6.764   2.752 -0.2845  0.0237 -0.2694
30822W        W46291   0.128   4.028   3.994  0.2620 -0.1392  0.0842
30823W        W46292   6.749   1.865   5.475  0.0076 -0.0701  0.1211
30824W        W46293   9.674  10.690  12.276 -0.2908  0.0835  0.0834
30825W        W46294   1.524  14.718   4.828 -0.1492  0.0401 -0.0077
30826W        W46295  13.319  16.567   1.917 -0.0554 -0.3002 -0.0244
30827W        W46296   5.949  16.269   2.487 -0.0777 -0.0447  0.0312
30828W        W46297   7.139   8.992  10.662 -0.1249 -0.0547 -0.1594
30829W        W46298   9.724   8.970   1.471  0.1074 -0.2661 -0.0615
30830W        W46299  14.378  14.408   4.315  0.2153  0.1708  0.0372
30831W        W46300   3.166   9.959  15.472 -0.0780 -0.2938 -0.0262
30832W        W46301  11.842   5.392   4.896 -0.1109 -0.1781  0.1952
30833W        W46302  10.021   0.283  14.329  0.0463  0.6490 -0.0707
30834W        W46303   2.335   9.416   4.877  0.1088 -0.1180  0.0515
30835W        W46304  13.488   9.703  14.864  0.0786 -0.1025 -0.0642
30836W        W46305   6.632   0.926   0.358  0.2632 -0.3552  0.0857
30837W        W46306  11.514  15.579   1.655 -0.3309 -0.1152  0.1236
30838W        W46307  10.866   1.781   2.570  0.1927  0.0273 -0.2275
30839W        W46308   2.208  13.482   5.537 -0.1975 -0.0683  0.5247
30840W        W46309  10.883  11.961   1.401 -0.0192 -0.0044 -0.1850
30841W        W46310  12.331  11.347  14.891  0.0468 -0.0788 -0.0221
30842W        W46311   1.627   9.684   0.913 -0.0129  0.3633  0.0463
30843W        W46312   1.456   9.685   1.772  0.0888  0.0995  0.2954
30844W        W46313  16.846   2.075  11.001  0.1244 -0.0160  0.1865
30845W        W46314   8.957  15.845  12.927 -0.1641 -0.0377 -0.3456
30846W        W46315  13.913   4.332   0.755 -0.1092 -0.1739 -0.0826
30847W        W46316   0.196  10.104   4.191  0.2624  0.0717  0.1446
30848W        W46317   4.078   9.844   4.129 -0.1340 -0.1406 -0.1710
30849W        W46318  15.501   6.335   3.494  0.0236  0.2093  0.3164
30850W        W46319   9.275   1.938  11.711  0.0916  0.0949 -0.1399
30851W        W46320   2.311   7.050  11.041  0.1737  0.1038  0.2400
30852W        W46321   2.372  14.203   1.672 -0.1404 -0.2942 -0.2568
30853W        W46322   8.285   6.001   2.223 -0.0687  0.3629 -0.0351
30854W        W46323  15.295   7.761  14.626  0.0263 -0.0723  0.0322
30855W        W46324  14.993  17.244  15.137 -0.1286  0.0657 -0.0617
30856W        W46325  16.123   7.500   2.385  0.2436 -0.0386 -0.0827
30857W        W46326  12.324   6.410  11.894 -0.0982 -0.1720  0.1827
30858W        W46327   1.481  13.648  10.251 -0.1494 -0.1575  0.2709
30859W        W46328  15.421  14.522   3.116  0.0547 -0.0194  0.1321
30860W        W46329  10.270  15.851   1.268  0.0748  0.3162  0.2665
30861W        W46330  18.409   4.436   3.618 -0.2067 -0.0592  0.0062
30862W        W46331   0.975  15.843   2.746  0.1294 -0.1916 -0.2989
30863W        W46332   2.925  10.825   9.976  0.3639  0.0305  0.1067
30864W        W46333   0.807  18.353  14.101 -0.2026 -0.3378  0.0689
30865W        W46334   4.750  16.561  12.892  0.0812 -0.4933  0.2017
30866W        W46335  12.271  16.220   0.317 -0.0548 -0.1652  0.1666
30867W        W46336  15.529   4.707  11.476 -0.1469  0.0842 -0.0307
30868W        W46337   0.525   1.855  10.616  0.2802  0.2808 -0.0310
30869W        W46338  14.207  16.047   0.977  0.1436  0.3908  0.1041
30870W        W46339  18.214   5.911   0.508  0.0335 -0.1196  0.4157
30871W        W46340  15.936   9.527   0.704 -0.0751 -0.0583  0.1496
30872W        W46341   6.813   3.921  10.255 -0.0459  0.0498 -0.5197
30873W        W46342  14.963   7.870  12.449 -0.0238 -0.1806 -0.1508
30874W        W46343   7.649   4.503  13.456  0.2199 -0.0675  0.0629
30875W        W46344   3.716  12.231   2.474  0.1354 -0.0034  0.1575
30876W        W46345   1.376   5.272   4.559 -0.2864  0.0012 -0.0834
30877W        W46346   9.833   6.181   5.716 -0.0828 -0.1376  0.0625
30878W        W46347   4.949  18.005   2.507 -0.1612  0.0553  0.0454
30879W        W46348   3.039  16.961  10.225 -0.1291  0.0521 -0.0880
30880W        W46349  10.100  13.487   0.923 -0.0291 -0.0332 -0.1233
30881W        W46350   5.766  13.769   4.601 -0.0004 -0.1496 -0.1214
30882W        W46351   3.096   0.290  11.759 -0.1295  0.0184  0.2350
30883W        W46352   1.699   0.510   4.262  0.1753  0.1165 -0.1865
30884W        W46353   9.254  12.644  11.523 -0.0511 -0.2039  0.4116
30885W        W46354   2.851   1.794   0.522  0.3976  0.3389  0.1090
30886W        W46355  14.760  16.687   4.398  0.0875  0.4593 -0.0914
30887W        W46356  11.503   0.058  15.492  0.1391  0.0334 -0.0536
30888W        W46357   7.589   0.992  13.609  0.0120  0.3073  0.2898
30889W        W46358  16.420   1.531   0.505  0.0701  0.0234  0.1473
30890W        W46359  17.104   9.905   1.714  0.0696 -0.0014 -0.4687
30891W        W46360  17.529   1.660   2.568  0.0029 -0.2084  0.3953
30892W        W46361   6.372   5.473  15.704  0.1192  0.1017  0.2416
30893W        W46362  14.706  10.728  13.425 -0.0239 -0.0476  0.1672
30894W        W46363  16.881  11.829  13.180  0.0946 -0.0795 -0.0754
30895W        W46364   2.174   5.964   2.015 -0.0900 -0.1937 -0.0022
30896W        W46365   8.145   1.501  10.378 -0.3103 -0.1734  0.2212
30897W        W46366   3.287   6.097   1.419 -0.3440 -0.0818 -0.2159
30898W        W46367   0.982  12.423   2.038 -0.0851 -0.5339  0.6286
30899W        W46368  15.115   1.149   5.723  0.1646 -0.4204  0.1243
30900W        W46369   5.511   6.788   1.906  0.1134  0.0438 -0.3085
30901W        W46370   0.620   5.467   4.271  0.2093  0.0378  0.0402
30902W        W46371   0.338  13.447  10.697  0.3175  0.0989  0.2115
30903W        W46372   9.465  10.867   0.286  0.1801 -0.2246  0.0276
30904W        W46373  11.700   8.385   3.616 -0.0779 -0.1239  0.1676
30905W        W46374  11.297   4.911  12.608 -0.2599  0.0721 -0.0662
30906W        W46375   4.930  10.018   6.094  0.2343  0.1976  0.0503
30907W        W46376  12.627  17.427  11.638  0.0340  0.1434  0.1434
30908W        W46377   1.021   8.101  13.499  0.3672 -0.0946 -0.2600
30909W        W46378  14.235   5.551   2.410 -0.2307  0.0652 -0.0210
30910W        W46379  15.413   2.098  11.796  0.1082  0.1244  0.0428
30911W        W46380   9.388  12.278  15.024  0.0385  0.3070 -0.3396
30912W        W46381  13.376   9.921   5.044  0.0736  0.3244  0.2761
30913W        W46382   7.665   4.292  11.498  0.3223 -0.2573  0.0289
30914W        W46383  12.323  15.917  11.553 -0.1910 -0.0544 -0.0043
30915W        W46384   2.342   2.452   0.561 -0.0551  0.0766 -0.0837
30916W        W46385   8.762   7.942  12.409 -0.0421  0.0431 -0.1521
30917W        W46386   2.699   7.017  13.395  0.1532 -0.0270 -0.2387
30918W        W46387   9.675   2.541   4.490 -0.1373 -0.2097  0.0610
30919W        W46388  11.867   7.637   3.882  0.4735  0.1297 -0.2134
30920W        W46389   6.176   4.837   2.673 -0.0419  0.3587 -0.0686
30921W        W46390  10.416  10.418   5.738 -0.1044 -0.1482  0.0641
30922W        W46391  16.804   8.222   6.142 -0.1607  0.0112 -0.0914
30923W        W46392  17.370   0.596  10.629  0.0590  0.0559  0.1937
30924W        W46393  11.883  17.242  14.145  0.2168 -0.1831 -0.0144
30925W        W46394   3.251   4.880  14.073 -0.1078 -0.1260 -0.0234
30926W        W46395  18.637   5.367  11.940  0.0071 -0.3952  0.1702
30927W        W46396  11.664   2.091   2.948  0.2892  0.0536  0.2603
30928W        W46397   4.945   3.916  14.020 -0.1933  0.2223  0.1154
30929W        W46398   4.501   3.629   2.129  0.3131  0.0543  0.1167
30930W        W46399   6.041  15.029  14.990  0.0869  0.2176  0.2859
30931W        W46400   8.596   2.226   3.468  0.2881 -0.3461  0.2711
30932W        W46401  12.493  18.101  14.651 -0.0779 -0.2815 -0.0294
30933W        W46402   5.607  11.795   6.320  0.1215  0.0202 -0.1524
30934W        W46403  18.231   2.936   3.646 -0.2235 -0.1561 -0.4329
30935W        W46404   8.127   5.481   0.078 -0.0088  0.0119 -0.1034
30936W        W46405   1.823   3.447   4.287  0.0290  0.3056  0.2141
30937W        W46406   9.489   2.736  13.532 -0.2596  0.1363 -0.1171
30938W        W46407  14.819  13.509   2.283  0.3367  0.3637 -0.3034
30939W        W46408   9.311  10.484   3.538  0.0399 -0.1479 -0.1383
30940W        W46409  18.312  13.199  12.480 -0.2572 -0.0464  0.0615
30941W        W46410   2.453   8.099   3.015  0.1094  0.1396  0.1459
30942W        W46411   1.297  13.638  11.392 -0.0387  0.0113  0.1031
30943W        W46412   4.059  14.708   9.874  0.2116 -0.3347  0.2725
30944W        W46413  16.106   5.008  14.276  0.0338  0.1664  0.0668
30945W        W46414   0.767  16.618  13.840  0.2282  0.0496  0.3368
30946W        W46415  11.236   4.104  13.951 -0.3728  0.1264  0.3762
30947W        W46416   6.991   9.896   2.481 -0.2455  0.0477 -0.3535
30948W        W46417   9.145   0.212   3.713  0.1249 -0.0364 -0.1511
30949W        W46418   4.896   8.510   2.427  0.2574 -0.2611  0.0134
30950W        W46419   4.384   2.925  11.394  0.1492  0.0518  0.1171
30951W        W46420   3.689   7.193  15.585 -0.0877  0.2250  0.1296
30952W        W46421  12.019  12.525  11.670  0.0256 -0.0058  0.3354
30953W        W46422  15.585  17.824   5.144 -0.1620  0.0573  0.2751
30954W        W46423   7.071   7.037  14.943  0.0903  0.1368 -0.1364
30955W        W46424  13.712   9.608  14.324 -0.0427 -0.3103  0.5091
30956W        W46425  14.970  14.017  11.904  0.1752  0.2668 -0.2204
30957W        W46426   9.521   5.742   1.842  0.2087 -0.1972  0.2884
30958W        W46427  14.740   4.995   4.334 -0.1710  0.1919  0.2162
30959W        W46428   9.732   9.281  12.179  0.4355  0.1301 -0.2962
30960W        W46429  14.316   7.018  11.998 -0.1751 -0.0111 -0.2363
30961W        W46430  12.091   7.445  12.666  0.0391  0.0092  0.4043
30962W        W46431   3.207   0.569   1.893  0.1271  0.0092 -0.1897
30963W        W46432   4.217   8.426   5.709  0.2024 -0.1955  0.0027
30964W        W46433  13.107   7.346  14.286 -0.4230 -0.2187  0.0400
30965W        W46434  18.637  13.321  13.656 -0.3436 -0.1292  0.2761
30966W        W46435  18.310  16.087  15.724  0.0365 -0.0669  0.0138
30967W        W46436   8.173  14.128   0.612  0.0105 -0.2551  0.1604
30968W        W46437  13.471  15.779   3.134  0.1452 -0.0041 -0.0595
30969W        W46438   5.246   8.457   0.396 -0.2177 -0.0023 -0.1922
30970W        W46439  11.674   4.939   0.338 -0.2121  0.2847 -0.1769
30971W        W46440   3.652   1.826  12.908 -0.0302 -0.0079 -0.2462
30972W        W46441   1.132   0.402   2.112  0.1092 -0.2521  0.1135
30973W        W46442   0.942   4.310  13.862  0.0953  0.0788 -0.0364
30974W        W46443   0.272  10.349   1.793  0.0609 -0.0162  0.2434
30975W        W46444   1.028   6.304  12.285  0.4886  0.2590  0.0486
30976W        W46445   4.222  15.157   2.607 -0.1971  0.0928  0.0291
30977W        W46446   3.284   0.744  11.023 -0.1046  0.2310  0.1563
30978W        W46447  16.064   3.495   3.437 -0.2776  0.0682 -0.2354
30979W        W46448   0.676   0.645  11.718 -0.2260  0.4457 -0.2518
30980W        W46449   9.848  13.887  14.223 -0.0165  0.0007  0.0821
30981W        W46450  11.381   1.973   4.473  0.1616 -0.0951 -0.5290
30982W        W46451  14.469   3.547  14.004 -0.3212  0.2780  0.5136
30983W        W46452   0.955   6.787   4.851  0.4241  0.2533  0.2451
30984W        W46453  11.920  10.380   0.983 -0.2914 -0.0435  0.3401
30985W        W46454   7.198  15.956  10.047 -0.0792  0.1811  0.3151
30986W        W46455   0.343  10.217  10.621  0.3781 -0.0332  0.1235
30987W        W46456  17.123   3.095  15.587 -0.2290 -0.1172 -0.4316
30988W        W46457   1.648   5.411  12.301 -0.0503 -0.0711  0.1245
30989W        W46458  11.089   4.581   1.286  0.2336 -0.2674 -0.1446
30990W        W46459   9.150  14.697  12.263  0.2268  0.4077 -0.4325
30991W        W46460   3.389   9.473  14.640  0.0944  0.1103  0.0626
30992W        W46461   8.784  11.728   2.224 -0.1251 -0.1974 -0.2669
30993W        W46462   5.233   0.245   4.723  0.2202  0.2771 -0.0648
30994W        W46463   1.945   3.871   2.656 -0.0031 -0.1985  0.3405
30995W        W46464  18.259   6.560  11.513  0.2030  0.0249  0.2322
30996W        W46465   2.787  12.953   0.297  0.1404 -0.1174  0.0708
30997W        W46466  10.766   7.863  13.334  0.0629  0.3923 -0.2248
30998W        W46467   0.651  18.136   3.137  0.0156 -0.3174 -0.2376
30999W        W46468  11.575  10.719  12.008  0.0177  0.1546  0.1140
31000W        W46469   0.950  12.295  10.718 -0.2271  0.0327  0.0580
31001W        W46470   7.186  14.947  11.582 -0.2873 -0.0795  0.0708
31002W        W46471  16.659  12.951   1.123 -0.0703  0.1982 -0.4379
31003W        W46472   3.633  16.739   0.839  0.0679  0.4596 -0.0731
31004W        W46473   8.645   7.943  13.554 -0.0769  0.0672 -0.0720
31005W        W46474   1.425   6.026  13.702 -0.1690  0.0353 -0.0340
31006W        W46475  14.728   6.408   1.903  0.1605 -0.0130 -0.0150
31007W        W46476  13.731  14.676  13.253  0.1249 -0.0284 -0.0701
31008W        W46477   8.003  17.603  13.288  0.2993 -0.0326 -0.1156
31009W        W46478   3.809  18.226  11.827 -0.2077 -0.2356  0.0145
31010W        W46479   1.671   6.913   0.590  0.0555 -0.1246 -0.1535
31011W        W46480   6.548  10.274  11.148  0.2773  0.0964  0.3272
31012W        W46481   6.022   9.008   1.578 -0.1219 -0.4040 -0.2433
31013W        W46482   7.292   9.670  11.050  0.0765  0.1232  0.1264
31014W        W46483  13.468   2.118   3.202  0.3519 -0.1395  0.0586
31015W        W46484  15.589   9.562   2.047  0.0737 -0.4596  0.0200
31016W        W46485  18.485  17.520   3.067 -0.0308  0.4280  0.2217
31017W        W46486  15.152  14.225   1.233  0.0257 -0.1799 -0.2111
31018W        W46487  18.037   9.693  12.213  0.2753 -0.3424 -0.0002
31019W        W46488  16.541   3.175  15.319  0.1716 -0.3419 -0.0412
31020W        W46489  12.917   8.123  13.565  0.1260  0.1398 -0.1195
31021W        W46490   0.574  17.342   2.855  0.0049 -0.4644 -0.3078
31022W        W46491   8.361   2.963   0.348  0.0443  0.1928  0.1804
31023W        W46492   0.347   4.769   2.211 -0.1471 -0.1790  0.1819
31024W        W46493   3.679  10.923   0.719  0.0178  0.4080 -0.0759
31025W        W46494   7.923  13.309   4.044  0.0780 -0.1678 -0.1194
31026W        W46495   7.325  10.190   1.951  0.0091  0.1821 -0.2077
31027W        W46496  15.004   1.744  10.709 -0.0643 -0.1080  0.1760
31028W        W46497  15.016  13.286   4.972  0.0427 -0.0624  0.5443
31029W        W46498   2.714   3.639   5.809 -0.1042  0.0797  0.1502
31030W        W46499  10.900  11.416  14.919  0.0224  0.0466  0.3359
31031W        W46500   9.575  11.417  12.683  0.0407  0.3994 -0.2731
31032W        W46501  17.377  14.518   2.134 -0.4390  0.0034  0.0644
31033W        W46502  12.180   8.242   5.963  0.1992  0.2046  0.2548
31034W        W46503   0.772  11.508  12.672  0.1959 -0.0837  0.0288
31035W        W46504   3.063   9.505   1.280  0.0320  0.1969  0.0404
31036W        W46505  13.353  14.782   0.497 -0.1421  0.1380  0.2813
31037W        W46506  12.585   0.653   0.150 -0.3472  0.1309  0.0948
31038W        W46507   3.405  18.693   1.007 -0.0684 -0.1934  0.2703
31039W        W46508   2.869  10.994   2.686  0.0910 -0.0542 -0.2427
31040W        W46509   0.818   4.992   2.990 -0.2144  0.0695 -0.3119
31041W        W46510   1.522  11.612   0.043 -0.0019  0.3046  0.1463
31042W        W46511  15.720  16.443   2.477 -0.3319 -0.2956  0.0191
31043W        W46512  17.745  16.278  12.222 -0.0800  0.1063 -0.0744
31044W        W46513  12.031  15.611  13.372  0.2149 -0.1340  0.1325
31045W        W46514  15.846  10.533  11.898  0.1118  0.1924 -0.2923
31046W        W46515   8.693   9.961   2.494 -0.1543  0.0682 -0.0958
31047W        W46516   3.308   9.586  12.042  0.0182  0.0433  0.2982
31048W        W46517   0.437  13.198  14.983 -0.2584  0.4539  0.0067
31049W        W46518   9.523   8.071   3.142 -0.1509  0.1878 -0.0823
31050W        W46519   5.176  15.779   0.465 -0.0891  0.2211  0.4420
31051W        W46520   7.594   5.919  12.330 -0.3533 -0.0843 -0.0743
31052W        W46521   2.859   8.578  13.325  0.0885 -0.1171  0.0073
31053W        W46522   8.875   7.261   3.027  0.0323 -0.2007 -0.0772
31054W        W46523  16.906  14.449  11.699  0.2637  0.0551 -0.0143
31055W        W46524   0.850   2.022  12.382 -0.0920  0.1881  0.4096
31056W        W46525   7.953  13.804   5.863  0.1918  0.6029 -0.1514
31057W        W46526  10.003   5.884   3.295 -0.0847 -0.3724  0.1535
31058W        W46527   5.146   8.090   1.793  0.0913  0.0089 -0.4325
31059W        W46528  13.084   2.242  15.392 -0.1647  0.1998  0.1570
31060W        W46529  10.766  13.170   0.820 -0.0979 -0.0119  0.0806
31061W        W46530  13.164  13.984   0.153 -0.1694 -0.1924  0.1905
31062W        W46531  17.827  18.296  10.657  0.1978 -0.0513 -0.1012
31063W        W46532   6.722  11.297  15.570 -0.1236 -0.1444 -0.1017
31064W        W46533  18.058  16.056   0.398  0.2976 -0.0871 -0.0097
31065W        W46534   1.572  10.350  13.390 -0.0767 -0.2062 -0.1559
31066W        W46535   9.373   8.303   5.542  0.0220 -0.1372 -0.2833
31067W        W46536  11.469   0.672  14.620 -0.3780 -0.0834  0.0012
31068W        W46537   1.154   9.978   1.444 -0.0732  0.0755  0.0261
31069W        W46538   8.176   4.547   1.012 -0.0076  0.0269  0.2513
31070W        W46539  18.332   9.024  12.680 -0.2824 -0.0866  0.1713
31071W        W46540  18.238  15.596   3.550  0.1428 -0.2824 -0.0258
31072W        W46541   8.114   3.128  15.579 -0.1318  0.4111 -0.1502
31073W        W46542   5.751  18.070  10.416 -0.0148  0.2954  0.1163
31074W        W46543   5.641   5.695   4.343  0.0296  0.2376 -0.0887
31075W        W46544  16.225   8.919   3.847  0.5510 -0.2033 -0.0481
31076W        W46545  10.066   7.141   4.412 -0.3913 -0.0963 -0.0102
31077W        W46546   1.649   2.922   1.678 -0.0993 -0.0580  0.1693
31078W        W46547   0.155   7.162   5.366 -0.1283 -0.1863  0.4419
31079W        W46548  16.516   8.686   5.209 -0.2783 -0.1676 -0.1922
31080W        W46549  10.272   5.155   0.011  0.0030 -0.2021  0.2254
31081W        W46550  14.317  10.820  12.179 -0.2650  0.2177  0.0565
31082W        W46551   5.626   7.302   4.317  0.1588 -0.3553  0.0285
31083W        W46552  12.043   4.431  12.169  0.2242 -0.1551 -0.4066
31084W        W46553  12.810  12.751   1.299 -0.1025  0.0626 -0.2071
31085W        W46554   9.033  10.858  13.683  0.0725 -0.2126 -0.0000
31086W        W46555   0.114  13.317  11.520 -0.0753 -0.0161 -0.1418
31087W        W46556  11.751  16.138  12.126 -0.2853  0.1881 -0.3269
31088W        W46557   0.288   1.456  14.488 -0.1373 -0.3258 -0.1395
31089W        W46558   8.436  10.270   3.996  0.2081  0.0871 -0.1667
31090W        W46559  16.243   3.521  13.484  0.5620 -0.1005  0.1606
31091W        W46560   2.643  12.555  11.263 -0.2559  0.1217  0.0966
31092W        W46561   3.053   8.296   4.447 -0.2142  0.1096 -0.2769
31093W        W46562  10.216   7.672   2.980 -0.0880  0.0566 -0.1494
31094W        W46563   7.507   8.591  11.560 -0.0923  0.0210 -0.2001
31095W        W46564   6.423   8.051   0.583  0.0976 -0.1534 -0.1607
31096W        W46565  14.004   3.801  11.027  0.0013  0.0359 -0.1122
31097W        W46566   9.450   9.997   0.765 -0.0198  0.1490  0.0437
31098W        W46567   7.121  16.495   4.270  0.1961  0.0315  0.0437
31099W        W46568   9.321  15.826   4.913 -0.2736  0.0581 -0.3933
31100W        W46569  11.246  13.022   4.849  0.0499 -0.2501 -0.1915
31101W        W46570   2.610   0.683  13.059  0.2549  0.1068 -0.2610
31102W        W46571   1.841  12.934   1.102  0.2087 -0.2502  0.0812
31103W        W46572  16.708   7.269  12.261  0.1347 -0.0621  0.1862
31104W        W46573  17.107  15.854  10.829 -0.2922 -0.0360 -0.1245
31105W        W46574   5.384   1.705  13.566  0.2982 -0.2810 -0.2289
31106W        W46575  16.510  13.420   0.217 -0.0061 -0.0555 -0.0200
31107W        W46576   4.782   3.525   4.934 -0.0810  0.2234 -0.0696
31108W        W46577   0.659   8.481   1.386 -0.3747  0.1362  0.0054
31109W        W46578  10.608   9.328   4.262  0.1083 -0.1852  0.3171
31110W        W46579   8.766   3.680   3.956 -0.0494  0.0461 -0.2060
31111W        W46580  15.638  17.048   4.546 -0.2427  0.3713  0.1000
31112W        W46581   8.448  15.904  11.957  0.1672  0.2868 -0.2150
31113W        W46582  13.799  10.138   4.617 -0.0919 -0.0191 -0.1595
31114W        W46583   3.485   9.609  12.963  0.0826 -0.2745  0.0112
31115W        W46584  10.675   2.502  14.452  0.0526 -0.1281 -0.0694
31116W        W46585   9.349   8.062  11.575  0.1924  0.1286 -0.0420
31117W        W46586   7.753   4.274   1.314  0.2456 -0.0638 -0.2047
31118W        W46587   3.953  16.734   1.568 -0.0191  0.2356 -0.1123
31119W        W46588  12.155   2.641  14.763 -0.0444  0.2586 -0.3747
31120W        W46589   1.224  14.701   1.923 -0.0343 -0.3429 -0.0266
31121W        W46590  18.170  13.274  14.687  0.0170  0.2049  0.3565
31122W        W46591  16.571   5.741   0.248  0.3151  0.2524  0.2241
31123W        W46592   2.170  11.579   4.745  0.1162  0.1844 -0.0824
31124W        W46593   2.459  16.147   0.994  0.2027  0.1746  0.4172
31125W        W46594   3.950  16.538  10.656  0.1314 -0.0564 -0.0121
31126W        W46595   1.738  18.321   9.964  0.1359 -0.3002 -0.1968
31127W        W46596  15.172   1.222   5.086 -0.1277  0.2384  0.0361
31128W        W46597  12.738   3.626   0.046  0.0839 -0.0536  0.3861
31129W        W46598  13.604  13.042  11.885  0.0825 -0.2280  0.3386
31130W        W46599  10.277   0.694   4.156  0.2588  0.2400 -0.1324
31131W        W46600   5.649  17.104   2.285  0.2358  0.1232  0.1540
31132W        W46601   4.372  13.757   0.851 -0.1544  0.1554 -0.0759
31133W        W46602  11.954   1.764  12.510 -0.0447  0.0139  0.2940
31134W        W46603  15.676   5.099   1.590  0.2228  0.1493  0.3941
31135W        W46604   6.761   5.828  12.701 -0.2807  0.1182 -0.1205
31136W        W46605   5.266  16.785   3.603  0.0825  0.3873 -0.2608
31137W        W46606   8.010   0.849  12.004 -0.0373  0.1068 -0.1694
31138W        W46607  13.901   9.689   4.751  0.2332  0.1337 -0.0563
31139W        W46608  10.054  17.248  10.606 -0.1236  0.0813  0.3011
31140W        W46609   8.617   8.479   2.052  0.1981  0.0015  0.0198
31141W        W46610  16.552   7.767  15.202  0.3660  0.1177  0.3521
31142W        W46611   6.858  13.524   4.641 -0.2236  0.3124 -0.0037
31143W        W46612   9.825  18.119   2.044 -0.1227 -0.2851  0.1143
31144W        W46613  14.393   5.673  15.245 -0.1477  0.1251  0.2512
31145W        W46614  14.240   0.481  10.454  0.0112  0.1055  0.2287
31146W        W46615   2.844  11.594   0.402  0.1123 -0.2397  0.2787
31147W        W46616   6.710  11.104   6.374 -0.0037  0.1180  0.0725
31148W        W46617   0.934   9.996  14.978  0.0551 -0.0497  0.2475
31149W        W46618   5.946   1.896  14.094 -0.0571 -0.2500  0.1426
31150W        W46619   7.349  11.220   2.449 -0.0600 -0.6077 -0.3805
31151W        W46620  13.860  17.771   4.719  0.0760  0.0960 -0.0614
31152W        W46621   5.426   1.649   2.705 -0.1296 -0.2291 -0.1635
31153W        W46622   2.767   2.130   0.187  0.1393  0.2659 -0.1814
31154W        W46623  18.224   5.947  11.214  0.2013  0.1259 -0.0501
31155W        W46624  15.880   2.637   1.614 -0.0153  0.0063 -0.0062
31156W        W46625   6.193  12.314   0.577  0.1575  0.1658  0.3021
31157W        W46626   1.933  11.283   5.149  0.3791 -0.3582  0.0648
31158W        W46627   6.877   6.562  13.926  0.2692  0.2094  0.0295
31159W        W46628   4.882  15.105  15.566 -0.1796 -0.2474 -0.1132
31160W        W46629   2.497  16.316  14.823 -0.0681  0.4275 -0.4726
31161W        W46630   9.437   8.682   3.759 -0.3733 -0.0174  0.2316
31162W        W46631   8.218   5.117   2.596  0.1654 -0.0134  0.1616
31163W        W46632  11.770  12.877   0.616  0.0655 -0.0674  0.0761
31164W        W46633  12.110   8.326  12.999 -0.2489 -0.1562  0.2384
31165W        W46634   9.152   8.203   2.850 -0.3823 -0.0068 -0.0839
31166W        W46635  15.981   3.890  12.286  0.0861  0.1361  0.1503
31167W        W46636  14.464   8.866   4.324  0.4176 -0.1814  0.1259
31168W        W46637   4.523  13.860  12.046  0.0622  0.0145 -0.0088
31169W        W46638  10.861   7.903  12.391 -0.2245  0.2480 -0.2385
31170W        W46639  13.052  14.619  15.212  0.1429 -0.0313  0.3381
31171W        W46640   4.580   0.194  12.176 -0.0812  0.1904 -0.0600
31172W        W46641  17.715  14.595  12.832  0.4820 -0.0860 -0.2885
31173W        W46642  17.834   4.843   5.648 -0.1935 -0.2400 -0.0620
31174W        W46643  11.075  12.423   4.250 -0.3604 -0.1483  0.0321
31175W        W46644   6.314   9.592   3.976  0.1833 -0.0392 -0.3574
31176W        W46645  15.807   7.670   0.621 -0.4440 -0.0523 -0.2094
31177W        W46646   5.836   9.388  14.132  0.0320 -0.0441 -0.1179
31178W        W46647   6.063  14.516   0.095  0.4033 -0.2954  0.0083
31179W        W46648  15.300   3.298  15.586 -0.1868  0.1922 -0.4328
31180W        W46649   8.029  18.614   0.934 -0.2066 -0.0355 -0.2253
31181W        W46650  15.921   0.852  14.364 -0.2959 -0.1095 -0.2105
31182W        W46651  11.764   4.064   2.696  0.3116  0.0267  0.0099
31183W        W46652  16.138  17.091  12.634  0.3157 -0.1035 -0.1766
31184W        W46653  17.780   1.995  12.431  0.1236  0.1353  0.2975
31185W        W46654  14.055  16.571   2.911 -0.0387  0.3750  0.1740
31186W        W46655   3.600   6.995   0.626 -0.2340  0.2252 -0.0056
31187W        W46656   8.378   3.141  11.838 -0.1347  0.1498  0.0990
31188W        W46657  10.511   9.989   0.507  0.0774  0.2366  0.0348
31189W        W46658   9.467   8.841   2.722  0.1833 -0.0044  0.0905
31190W        W46659   0.177  11.452  12.733 -0.1399  0.2390 -0.3224
31191W        W46660   8.810   4.284   2.717 -0.3156 -0.1930  0.1764
31192W        W46661   1.872  13.825  13.693  0.1373  0.0703 -0.2691
31193W        W46662  15.034   6.762   4.744 -0.1039 -0.0790 -0.1958
31194W        W46663  15.418   3.753  14.337 -0.1663 -0.1038  0.1506
31195W        W46664  10.001   4.925   4.579 -0.0434 -0.2274 -0.1745
31196W        W46665  12.448  10.902  12.601 -0.0442  0.0578  0.1714
31197W        W46666  12.588  15.886   0.024  0.0671 -0.0294 -0.0045
31198W        W46667  16.175  13.254  12.467 -0.0362 -0.0842  0.0240
31199W        W46668   3.528  18.230  15.621  0.0792  0.2953  0.0161
31200W        W46669   9.507  15.890  15.563  0.2317 -0.2723  0.3800
31201W        W46670   6.058  16.548  11.683  0.1241  0.1007 -0.3908
31202W        W46671   4.802  16.840  12.413 -0.0706  0.3840  0.0476
31203W        W46672   5.516  15.070   4.423  0.1126  0.1632  0.1100
31204W        W46673  18.231  14.382   2.810 -0.0103  0.2954 -0.3143
31205W        W46674  10.840  14.625  10.365 -0.2740 -0.3809 -0.2132
31206W        W46675  10.749   8.505  12.654  0.2779 -0.0979  0.2852
31207W        W46676   6.450  18.676   2.917  0.1498  0.1604  0.1389
31208W        W46677  17.686  12.499   0.461 -0.3637 -0.2228 -0.2095
31209W        W46678  17.903  10.804  11.402  0.2186 -0.1654 -0.3456
31210W        W46679   9.635   3.224  14.790 -0.0663 -0.1978  0.2972
31211W        W46680  13.665   6.333  14.743  0.2270 -0.1001 -0.0137
31212W        W46681   4.594   3.090   2.948  0.1848 -0.4488  0.1974
31213W        W46682  12.254  18.253   0.143  0.3158 -0.1371  0.0568
31214W        W46683  14.568   0.507   9.992 -0.1773  0.0956  0.6352
31215W        W46684  12.322  16.589  14.425 -0.1796  0.1909 -0.4919
31216W        W46685  13.943   5.055  15.218 -0.0921  0.0761  0.3090
31217W        W46686   0.035  13.549  12.508 -0.4271  0.2375  0.2943
31218W        W46687   9.893  16.153   0.026 -0.1707 -0.1859 -0.0286
31219W        W46688  16.264   7.209  12.753  0.1832 -0.0012  0.3224
31220W        W46689  17.123   0.245   3.515  0.2268 -0.1549 -0.1699
31221W        W46690   7.203   5.768  15.277  0.2171  0.1970 -0.0518
31222W        W46691   5.903  17.198  13.949 -0.2243 -0.1197  0.1212
31223W        W46692  17.035   0.991  12.346  0.1666 -0.0372  0.2775
31224W        W46693  17.687   5.698  12.568 -0.1615 -0.1048 -0.1724
31225W        W46694  12.933   7.023   3.700  0.2061 -0.1988 -0.0500
31226W        W46695  13.867   7.850   2.988  0.0556 -0.1640 -0.1539
31227W        W46696  13.322   8.243  12.132 -0.1001 -0.2103  0.1230
31228W        W46697   7.258   1.260   4.596  0.0828  0.4599  0.0451
31229W        W46698  16.021  16.919  15.029 -0.1140  0.0011 -0.3507
31230W        W46699  13.787   4.473   4.893  0.0249  0.0347 -0.1621
31231W        W46700  14.444   0.417  15.088 -0.0616  0.0736  0.1476
31232W        W46701   8.679   9.801   4.082 -0.2308 -0.2805  0.0314
31233W        W46702   8.482   5.966  14.804 -0.1713 -0.0935 -0.1826
31234W        W46703  18.524   9.163   5.136  0.1300  0.0716  0.1232
31235W        W46704   7.614   4.922   3.156 -0.5080 -0.0374 -0.1335
31236W        W46705   2.073  16.032  10.829 -0.0863  0.1231 -0.0171
31237W        W46706   8.528  18.070  14.608  0.1155 -0.0602 -0.0233
31238W        W46707   4.077   4.050  11.861 -0.3605  0.4174 -0.2174
31239W        W46708   0.663   2.783  14.461  0.2633  0.2111  0.0909
31240W        W46709   7.339   8.435   3.343  0.1778  0.3015  0.0416
31241W        W46710  13.007  13.292  14.844  0.1643  0.1577  0.0015
31242W        W46711   3.963   6.468   3.591 -0.0973 -0.0658  0.0583
31243W        W46712   8.886   3.197  11.770 -0.0428  0.0823  0.3111
31244W        W46713   3.182   8.673   0.520  0.1031 -0.1741 -0.1525
31245W        W46714  13.541  18.560  11.212 -0.5587  0.0029 -0.1323
31246W        W46715  18.602   5.151  10.396  0.1734  0.3897  0.2014
31247W        W46716   7.736   8.849   0.626 -0.3589 -0.1737 -0.4565
31248W        W46717  13.371   0.264   0.888 -0.1794  0.2934 -0.1348
31249W        W46718   0.601  11.195  13.013 -0.2817  0.2259  0.0436
31250W        W46719   8.334  16.098  11.461 -0.3047  0.0656 -0.1309
31251W        W46720   6.436   6.552  15.287  0.2884 -0.0654 -0.2848
31252W        W46721  12.712   4.501  15.399 -0.1145 -0.2761  0.0308
31253W        W46722   6.495   5.493   1.327  0.0717  0.1032 -0.2121
31254W        W46723  14.580   6.648  15.108  0.3820 -0.1538 -0.1530
31255W        W46724   4.501   5.495  14.990  0.0574 -0.2720  0.1189
31256W        W46725  16.165   5.408  13.678 -0.0790 -0.4030  0.0327
31257W        W46726   4.958   6.899   4.965  0.2261 -0.2023  0.1636
31258W        W46727  10.306  18.450  12.717  0.0132 -0.2384  0.0413
31259W        W46728  17.162  17.185   1.819  0.2370  0.0830 -0.1032
31260W        W46729   9.228   3.778  12.655  0.0332  0.1564  0.0158
31261W        W46730   0.454   6.956  14.049 -0.6805  0.0291 -0.1449
31262W        W46731  11.019   1.938  15.260  0.4673 -0.2482 -0.3695
31263W        W46732  18.537   1.520  15.627  0.1004  0.0253  0.0036
31264W        W46733   1.638   7.742   1.019  0.0901 -0.1979  0.2340
31265W        W46734   1.305   4.394  12.894 -0.2085 -0.1550 -0.0726
31266W        W46735  13.158   3.171  13.510  0.1742 -0.1268 -0.2182
31267W        W46736   8.710  14.400  14.057  0.2907 -0.0044 -0.0460
31268W        W46737  18.063  18.152  12.324 -0.1665  0.0965 -0.0689
31269W        W46738   2.411   2.486  14.374  0.1106 -0.2336  0.0961
31270W        W46739   9.789   6.805   2.009 -0.1193 -0.0445 -0.0285
31271W        W46740   1.149   3.653  13.220  0.0071  0.2607 -0.2523
31272W        W46741   2.206  17.943  13.967 -0.5860  0.1011  0.1860
31273W        W46742   1.003  16.102   4.349  0.4106  0.2530 -0.3025
31274W        W46743   5.670   0.288  10.912 -0.0264 -0.0157 -0.2308
31275W        W46744   9.686   9.000   3.369 -0.0244 -0.1922  0.0883
31276W        W46745  12.563  10.275   4.788  0.0213 -0.1022  0.1186
31277W        W46746  12.088  17.249   3.531  0.1250 -0.3064  0.2693
31278W        W46747  10.200  16.388   3.064 -0.0998  0.1277 -0.1127
31279W        W46748  13.589   5.548  14.807 -0.0447  0.1839  0.1134
31280W        W46749  14.354   5.191   1.882 -0.4075 -0.0698  0.0061
31281W        W46750   3.312  16.570  14.907  0.1097 -0.3511  0.3930
31282W        W46751   6.760  16.307   0.428 -0.2533  0.0775 -0.1569
31283W        W46752  14.981   8.693   0.065 -0.3226  0.0565 -0.2175
31284W        W46753  12.490   0.757  14.460  0.0249 -0.3272 -0.0365
31285W        W46754  16.608  16.248  12.392  0.1777  0.0431  0.2081
31286W        W46755   7.693  15.832   0.427  0.0504  0.1133 -0.0445
31287W        W46756   2.915   3.456  11.239  0.1329  0.0233 -0.1860
31288W        W46757   3.788  11.815   2.230  0.0111 -0.1500  0.3839
31289W        W46758  14.425   1.639  15.755 -0.2561 -0.2112 -0.0376
31290W        W46759   6.354   2.883  12.805  0.0048 -0.2553  0.0481
31291W        W46760  16.487  17.012  11.263 -0.2765 -0.2269 -0.3866
31292W        W46761  15.823  16.426   3.300 -0.0546  0.1091  0.4060
31293W        W46762   2.676   9.854   1.622  0.1306 -0.0534 -0.2627
31294W        W46763   2.662  14.004  13.797  0.0784 -0.2643 -0.1388
31295W        W46764  17.962   2.514   3.024 -0.1163 -0.3120 -0.1998
31296W        W46765  11.410   5.429  14.147  0.0783  0.1612  0.3278
31297W        W46766  18.444  16.220   3.205 -0.1837  0.0089  0.1424
31298W        W46767  15.979   1.562   3.650  0.1049 -0.0055 -0.1449
31299W        W46768   1.240  15.821   4.051 -0.1254  0.1453 -0.0808
31300W        W46769  13.158  14.000  13.379 -0.0122  0.1841 -0.1229
31301W        W46770  10.937  18.482   0.705 -0.0017 -0.0895  0.3534
31302W        W46771   1.042   5.281   0.673 -0.3927  0.2210  0.1044
31303W        W46772  15.748   9.184  14.264 -0.1473  0.1748  0.1672
31304W        W46773  13.415  15.404   3.516 -0.0138  0.1702 -0.0312
31305W        W46774   9.101   1.202   1.312  0.1014 -0.5549 -0.0968
31306W        W46775  15.366   4.760  15.317  0.0802  0.0068 -0.0775
31307W        W46776   4.617   4.721   0.248  0.3519  0.0573 -0.3733
31308W        W46777   4.298  14.587  13.417 -0.0321 -0.1160 -0.3371
31309W        W46778   6.180  13.952  12.143  0.3725 -0.1780  0.0577
31310W        W46779   4.595   2.752  14.377  0.3523  0.1301  0.1153
31311W        W46780  15.082  10.899  11.654 -0.0844  0.0451 -0.0305
31312W        W46781   2.835   1.745  11.889  0.5204  0.2780 -0.0142
31313W        W46782   9.322  16.785  14.706 -0.0479 -0.0093 -0.1410
31314W        W46783   7.492   5.997   4.595  0.0494 -0.2592 -0.2905
31315W        W46784   2.726  13.502   4.900  0.0651  0.1333 -0.1961
31316W        W46785   1.730  14.049  14.706 -0.0619 -0.1970 -0.3644
31317W        W46786   8.041   0.693  15.012 -0.0109  0.2111  0.1659
31318W        W46787   3.602  10.372  12.486 -0.3937 -0.3492  0.0471
31319W        W46788  16.243  16.249  14.611  0.0427 -0.0827  0.1463
31320W        W46789   5.857  16.579   3.679  0.3298 -0.1286  0.0452
31321W        W46790   2.768   7.560   0.562  0.0916  0.3552  0.1339
31322W        W46791  17.381   9.148  11.235 -0.0594  0.3966  0.0653
31323W        W46792  16.925   4.596  11.954 -0.2456  0.0705  0.2176
31324W        W46793  18.355   2.451   3.750  0.0425 -0.1203 -0.2789
31325W        W46794   7.890  11.405   4.795  0.0746  0.0978 -0.0911
31326W        W46795   5.514  12.050  11.769 -0.3185 -0.3361  0.0336
31327W        W46796   7.873  13.250   0.829 -0.0790 -0.1468 -0.1745
31328W        W46797  17.838  13.757   3.851  0.0824 -0.1022  0.2068
31329W        W46798  10.114  12.137  12.031 -0.1199  0.1221 -0.3798
31330W        W46799  13.659   1.030   4.685  0.0074 -0.2761 -0.0938
31331W        W46800   3.791  13.036  13.935  0.3666  0.2133 -0.1453
31332W        W46801  18.451   9.031   0.935 -0.4541  0.2135  0.0973
31333W        W46802  13.256  11.741  12.308  0.4670  0.2075 -0.1595
31334W        W46803   9.017   9.745  11.930 -0.0720  0.0664 -0.1174
31335W        W46804  15.430  10.746  11.991  0.0690  0.0589 -0.0279
31336W        W46805   0.411  14.536   2.445  0.2562  0.3446 -0.0163
31337W        W46806  16.401  17.396   4.079 -0.3906  0.4787 -0.1267
31338W        W46807   3.771  14.978  12.591 -0.0273 -0.2288 -0.3375
31339W        W46808   7.134   6.652   5.386 -0.0277 -0.0192 -0.1524
31340W        W46809   5.152   2.602   2.328  0.1471  0.0050  0.0288
31341W        W46810  13.550  16.960  11.166  0.0465  0.0412  0.3037
31342W        W46811  15.174  15.749  13.803 -0.1118  0.0256  0.1160
31343W        W46812   1.790   6.287  11.029  0.0597 -0.2285  0.0418
31344W        W46813  14.374   2.351   5.501 -0.0550  0.4651  0.2660
31345W        W46814   6.287  10.713  15.697 -0.2312 -0.0751  0.0894
31346W        W46815  12.009   4.939   2.871 -0.1508 -0.0789  0.2418
31347W        W46816   0.056  13.754   1.945  0.4026  0.1193  0.1732
31348W        W46817   4.230   9.360   4.319 -0.0253 -0.1263  0.0471
31349W        W46818   1.943  18.418   3.097 -0.0824 -0.0991 -0.2616
31350W        W46819  15.196   8.853  13.284 -0.0919  0.3928  0.1252
31351W        W46820   6.624  11.483  12.825  0.1151 -0.1134 -0.4070
31352W        W46821  12.559   5.484  10.952 -0.0274 -0.3180  0.3602
31353W        W46822   0.570  11.772  11.540 -0.0869 -0.0033  0.1269
31354W        W46823  10.545   3.499   0.460 -0.0333  0.1205 -0.1597
31355W        W46824  12.119  11.471   3.796 -0.0310  0.1321 -0.0258
31356W        W46825  14.223   3.403  11.376  0.0580  0.3110 -0.0425
31357W        W46826   8.578   0.655   1.403 -0.0047 -0.2620  0.1273
31358W        W46827   2.535  16.988   2.441  0.4024  0.0215 -0.1298
31359W        W46828  16.132  17.822  11.915 -0.3758  0.0214  0.0712
31360W        W46829  16.256  10.425   5.227  0.0789  0.0396  0.0720
31361W        W46830   7.047   7.357  12.784 -0.1716  0.0373 -0.0499
31362W        W46831  16.461  13.293  14.384 -0.1214 -0.1765  0.4694
31363W        W46832  12.185  15.113  13.337  0.1630  0.1987  0.0201
31364W        W46833  18.450   9.406  13.610 -0.1480 -0.0520  0.0714
31365W        W46834  17.990   8.298   0.393 -0.2359  0.1168 -0.0467
31366W        W46835  14.177   7.222   4.897  0.0105 -0.1140 -0.0464
31367W        W46836   6.922   6.619  15.254  0.0702 -0.0363 -0.1103
31368W        W46837   6.114   3.704   0.761 -0.0611 -0.3505 -0.0202
31369W        W46838  16.866   4.892  15.568 -0.0944 -0.1749 -0.1165
31370W        W46839   9.295  16.219  15.236 -0.3399 -0.0222 -0.1872
31371W        W46840   4.946   1.012  14.630  0.0758  0.1791 -0.1730
31372W        W46841  15.592  17.104  15.253  0.2053 -0.3090 -0.2939
31373W        W46842   3.849   9.853   5.090 -0.1070  0.0002  0.1433
31374W        W46843  16.718  14.618  12.886 -0.0565 -0.1912  0.0178
31375W        W46844   5.822  15.220   2.893  0.1050 -0.1754  0.1902
31376W        W46845   5.234   1.214  11.086  0.1188 -0.1564 -0.1004
31377W        W46846   6.109   9.103   5.321  0.0357  0.0447  0.2199
31378W        W46847   1.819  15.476  13.014  0.1319  0.0693  0.1896
31379W        W46848  18.103  11.849   3.881  0.1030 -0.2188 -0.2893
31380W        W46849   5.102   1.069   0.897  0.1253 -0.0512  0.1075
31381W        W46850  14.563  15.159  13.314  0.1460 -0.1698 -0.2105
31382W        W46851   1.898  11.213  12.599 -0.1334  0.0619 -0.0073
31383W        W46852  11.099   4.062  15.696  0.1309 -0.3119 -0.1146
31384W        W46853  14.499   1.726   3.849  0.0477 -0.0302 -0.1128
31385W        W46854  15.172  17.784  13.463 -0.3075 -0.1698  0.1154
31386W        W46855   2.566   0.797   3.452 -0.1847  0.0897  0.4990
31387W        W46856   5.045  15.271   2.738 -0.0670 -0.0360 -0.0315
31388W        W46857  13.801   1.409  14.567 -0.0680  0.0666 -0.1931
31389W        W46858  10.762  11.171   2.134 -0.1277 -0.0916 -0.1105
31390W        W46859  16.882  15.888   3.854  0.0889  0.1367 -0.1759
31391W        W46860   8.125   8.976  12.904 -0.2933  0.2386 -0.1603
31392W        W46861   0.709  12.421  14.595  0.1593  0.1493 -0.1420
31393W        W46862   6.881   3.631  13.217 -0.0777 -0.1885 -0.3414
31394W        W46863  14.205   4.734  15.609  0.3334  0.1805  0.1731
31395W        W46864   1.324   4.300  12.085  0.1997 -0.0994 -0.1098
31396W        W46865   5.471   5.550  12.225 -0.3375 -0.2541  0.1492
31397W        W46866  15.840   6.350  13.988  0.4862  0.1491  0.1680
31398W        W46867  16.482   6.857  11.234  0.2549  0.1780 -0.1728
31399W        W46868   5.587  10.160   2.921 -0.0757 -0.2915  0.1254
31400W        W46869  14.949  16.608  12.517 -0.0387 -0.2164 -0.4701
31401W        W46870  13.219   5.031  11.093  0.1961  0.3222  0.2239
31402W        W46871   1.032  13.921   0.093  0.1789  0.0308  0.0596
31403W        W46872  15.753   5.279  13.378  0.2352  0.2205 -0.0036
31404W        W46873  12.327  14.970   0.545 -0.4609 -0.1675 -0.2532
31405W        W46874   9.927   6.766   3.556  0.1025  0.2440  0.0301
31406W        W46875   7.646  16.918  11.210  0.0681  0.0087  0.1918
31407W        W46876   8.300   3.275  14.886  0.0122 -0.0623 -0.0017
31408W        W46877   3.747  16.369   1.158  0.0593 -0.0407 -0.0946
31409W        W46878   4.225  14.752  11.268 -0.2116 -0.0498  0.0870
31410W        W46879   8.507   4.736   0.566  0.0908 -0.0468  0.0119
31411W        W46880   4.281   9.608   3.036 -0.0790  0.3407 -0.1770
31412W        W46881   5.625  14.599   4.273 -0.2054 -0.0769 -0.0746
31413W        W46882   4.438   8.655  12.044 -0.1118 -0.0536  0.0212
31414W        W46883   7.606  11.351  12.514 -0.1212  0.0395  0.0253
31415W        W46884   5.385  13.804  12.432 -0.0484 -0.0948 -0.0840
31416W        W46885   7.320   0.298   0.978 -0.1136 -0.0973  0.0239
31417W        W46886   7.758   2.725  15.408  0.2807 -0.0433 -0.0399
31418W        W46887  11.552  16.953   2.868 -0.1291  0.0944 -0.1112
31419W        W46888  17.724  13.331  13.686  0.3509  0.2626 -0.1669
31420W        W46889  17.597  16.061  13.269 -0.0320  0.2678  0.1087
31421W        W46890  16.709   3.238  12.462 -0.4872  0.0818  0.2886
31422W        W46891   6.084   1.179   5.404 -0.1798  0.0942  0.0042
31423W        W46892  12.485  15.590  11.065  0.0962  0.0635 -0.0558
31424W        W46893   5.982   2.669  13.304  0.2119 -0.1792 -0.0846
31425W        W46894   0.660   9.571  14.664  0.2240 -0.1799 -0.0234
31426W        W46895   3.153  14.459   3.882 -0.0329 -0.1064  0.1564
31427W        W46896   5.960  10.545   3.068 -0.3501 -0.2070  0.0963
31428W        W46897   8.215  13.678   3.971 -0.2813 -0.2888 -0.1001
31429W        W46898   3.115  18.002  15.209  0.0935 -0.1457 -0.0332
31430W        W46899  10.395  14.815  14.828 -0.0783 -0.3222 -0.0834
31431W        W46900   1.480   3.013   3.465  0.1478 -0.3220 -0.1165
31432W        W46901  15.203  15.077  10.474  0.0222  0.1592 -0.2339
31433W        W46902  12.231   5.376   2.946  0.2299 -0.1887  0.0383
31434W        W46903   3.466   5.330  12.037 -0.0959 -0.3701 -0.0576
31435W        W46904  12.366  10.411   1.227 -0.1845 -0.2701 -0.0853
31436W        W46905   8.533  10.844  12.635  0.1633 -0.2107 -0.2414
31437W        W46906  17.339   2.039  12.292  0.1486  0.2128  0.2522
31438W        W46907  16.692  15.076  13.287  0.2046 -0.0386  0.1551
31439W        W46908   5.772   1.977  10.274  0.2513  0.2378  0.0105
31440W        W46909   8.930  14.742   4.224  0.1560 -0.0676 -0.6074
31441W        W46910  14.870  11.965  15.314  0.1085 -0.0597 -0.0781
31442W        W46911  16.920  15.940   1.514  0.0786 -0.0434  0.0825
31443W        W46912  13.021  16.537   1.449  0.1847  0.1511 -0.0275
31444W        W46913  11.876   4.223  13.148 -0.1768 -0.0876  0.0325
31445W        W46914  16.230   4.111  10.826 -0.0829  0.2383  0.3154
31446W        W46915  13.272   2.854   0.283 -0.1348  0.2725  0.1453
31447W        W46916  16.614  16.577  14.318  0.4179  0.4571  0.0898
31448W        W46917  17.034   4.753  13.696 -0.0209  0.0496 -0.0164
31449W        W46918  16.006   1.943  14.091 -0.0179 -0.0950  0.0202
31450W        W46919   7.091   8.853   0.071  0.1730  0.1084 -0.0285
31451W        W46920  10.310   1.903  13.779 -0.0709  0.1685  0.0001
31452W        W46921   5.242  15.517   1.482 -0.2248 -0.0154 -0.4241
31453W        W46922   0.035   0.629   1.529  0.0953  0.0715  0.0008
31454W        W46923   0.262   5.443  13.174  0.2975 -0.0715 -0.2302
31455W        W46924  16.696   9.689   2.922 -0.2153  0.0892 -0.1550
31456W        W46925   5.050  17.999   3.094  0.2871  0.2127 -0.1913
31457W        W46926   2.227  12.772   3.985  0.0525 -0.0326  0.2660
31458W        W46927  12.258   9.921  14.075 -0.2637 -0.1367 -0.1409
31459W        W46928  15.113   5.506  12.657  0.0676 -0.1324  0.1597
31460W        W46929   8.642  17.512  15.292 -0.0642  0.0210 -0.2633
31461W        W46930   6.378   0.104  14.501 -0.4469 -0.3202  0.1016
31462W        W46931   2.504   2.134  12.110 -0.0644 -0.0957  0.0916
31463W        W46932   2.922   4.221   4.732  0.2750  0.3764 -0.1643
31464W        W46933   7.652   3.957   2.135  0.2612  0.1031 -0.0979
31465W        W46934  18.375  10.489  11.735 -0.0809  0.0148  0.1246
31466W        W46935  18.444   9.081   2.321 -0.0359  0.2375 -0.0930
31467W        W46936  18.641   5.949  12.945  0.0201 -0.1879  0.3901
31468W        W46937  11.332  13.096   3.952  0.1205  0.1215  0.2491
31469W        W46938   9.868  17.662   4.054  0.0127 -0.0515 -0.0549
31470W        W46939  13.652  12.878   4.089  0.2337  0.1724 -0.0238
31471W        W46940  13.368  10.480  11.203  0.0153 -0.0350 -0.2241
31472W        W46941  17.611   9.455  10.935  0.3166 -0.0490 -0.2005
31473W        W46942   8.964   9.322  14.208  0.1787 -0.0929  0.3187
31474W        W46943   4.358  14.631   1.487 -0.4518 -0.0964 -0.2563
31475W        W46944   2.049   5.221   1.236 -0.3520 -0.1145 -0.3993
31476W        W46945  14.243  18.279   5.444  0.0000 -0.2506  0.0351
31477W        W46946  16.604  17.747  11.985 -0.2552 -0.0014  0.1516
31478W        W46947   6.006  15.235   3.536  0.1188  0.2494 -0.1094
31479W        W46948   4.857   6.018   4.158 -0.0561  0.0275 -0.0766
31480W        W46949   2.529   7.051   4.465  0.2096  0.1522  0.0582
31481W        W46950  18.028   7.976   4.823 -0.1211  0.0684 -0.1044
31482W        W46951  11.934  15.425   1.829 -0.0396  0.2334 -0.1075
31483W        W46952   3.378  15.975   1.615  0.0176 -0.3805 -0.1996
31484W        W46953  17.415  13.670   1.467  0.4315 -0.0484  0.0951
31485W        W46954  10.715   0.542  14.900  0.1920 -0.1196 -0.0552
31486W        W46955  13.843   4.080  13.254  0.0107 -0.2168  0.0354
31487W        W46956   8.245  10.399  13.840 -0.1151  0.2289  0.3101
31488W        W46957   4.974  17.327  15.387  0.2445 -0.2097 -0.1448
31489W        W46958   8.921   7.439  13.457  0.0762 -0.0182 -0.2105
31490W        W46959  13.325  13.524   4.495 -0.1150 -0.0780 -0.0270
31491W        W46960  11.743   1.130  10.827  0.1393 -0.2196 -0.1906
31492W        W46961   6.672   4.485   3.205 -0.0421 -0.3928  0.0447
31493W        W46962   9.364  10.614   1.912  0.0714 -0.0079  0.0890
31494W        W46963   1.240  15.421  13.681  0.3158  0.0609  0.0127
31495W        W46964  16.053   7.693   1.886  0.0863 -0.0352 -0.2489
31496W        W46965   9.015   2.887   1.074 -0.1567  0.0782  0.2058
31497W        W46966  18.346   5.097   4.307 -0.0553 -0.2665  0.2623
31498W        W46967   8.184  14.096   4.451 -0.1215  0.0702 -0.0435
31499W        W46968  17.704  18.032   4.211  0.5660 -0.3019  0.0784
31500W        W46969  14.707   8.587   1.719 -0.1429  0.3904  0.2812
31501W        W46970   0.719   1.163   4.011  0.1298  0.1707 -0.2096
31502W        W46971   4.716   4.172   3.746  0.3106 -0.0661 -0.1625
31503W        W46972  11.302   4.533   3.887 -0.1872  0.1332  0.3814
31504W        W46973  11.998   4.109  13.634 -0.2855 -0.0735  0.1061
31505W        W46974   6.108   7.848   3.348 -0.1856  0.1694  0.1724
31506W        W46975  10.601  14.776   2.169 -0.1599 -0.0204  0.1149
31507W        W46976   4.452  17.207   0.938 -0.0235 -0.2044 -0.2230
31508W        W46977   4.234  13.896  13.536  0.1779 -0.2334  0.1239
31509W        W46978   9.199   3.972   3.718  0.0526  0.0652  0.3391
31510W        W46979  11.176   5.449  14.933 -0.1015  0.0910 -0.0073
31511W        W46980  18.506  16.485   2.131  0.0127 -0.2190 -0.2300
31512W        W46981   6.316  14.350  13.441  0.0221  0.1320 -0.0575
31513W        W46982   3.168  18.195  14.751  0.0751 -0.3318  0.4283
31514W        W46983   5.312  18.297  12.930  0.0779  0.4273 -0.0259
31515W        W46984  17.037  12.624   0.584  0.2463 -0.2392  0.0259
31516W        W46985  12.686   2.912  10.715 -0.1958 -0.0413  0.1497
31517W        W46986   0.565   4.404   1.524 -0.0848 -0.3585  0.0190
31518W        W46987  13.619   5.176  12.643  0.0631  0.1413  0.1595
31519W        W46988  10.001  14.280   5.346 -0.0836 -0.0594  0.0273
31520W        W46989   3.418   7.297  10.592 -0.2981 -0.0425 -0.1076
31521W        W46990  12.696  17.399  13.422  0.0702 -0.0932 -0.3648
31522W        W46991   2.504   7.240  12.489 -0.0251 -0.0297  0.2311
31523W        W46992  12.540  18.535  14.446 -0.0318 -0.0110  0.1976
31524W        W46993   8.012  12.042  14.168 -0.0702  0.0877  0.1005
31525W        W46994   3.669   2.351   2.008  0.1144  0.0202  0.1543
31526W        W46995   8.559  11.277  15.373  0.0689  0.0939 -0.2702
31527W        W46996   4.774   3.849  12.595 -0.1252  0.1292  0.0650
31528W        W46997   9.756   1.200  10.720 -0.0155 -0.2003  0.0755
31529W        W46998   7.418   4.082  15.270  0.0123  0.1628  0.0003
31530W        W46999  13.893  11.371  15.541  0.1765 -0.0475 -0.1645
31531W        W47000   8.010  16.088   5.559  0.1547 -0.0655  0.2042
31532W        W47001   6.248  15.325   1.269 -0.3680  0.1702  0.2328
31533W        W47002  14.037   3.378  14.279  0.0785  0.1427 -0.2274
31534W        W47003   4.427  12.243  14.276 -0.3716  0.2194 -0.3459
31535W        W47004   5.113  10.054  15.635  0.3060 -0.0291 -0.2485
31536W        W47005   9.669  13.413  10.234  0.0058 -0.2499 -0.1052
31537W        W47006  13.894  16.592  11.862 -0.2686  0.0407  0.2393
31538W        W47007  15.952   5.741  15.694 -0.0466 -0.0326 -0.0872
31539W        W47008   5.934   8.214   2.958 -0.1010 -0.3961 -0.1921
31540W        W47009  11.362   5.903   4.327 -0.1876  0.0235  0.4422
31541W        W47010   4.402   1.760  15.283  0.3167 -0.0492  0.1747
31542W        W47011   4.901   4.267   0.084  0.0748  0.3885  0.0975
31543W        W47012   4.992   2.446   0.438  0.0827 -0.1847 -0.0888
31544W        W47013   8.742  17.483  14.759  0.1129  0.0744 -0.4771
31545W        W47014  16.343   0.645  11.413 -0.0725 -0.3394 -0.3628
31546W        W47015   9.723   8.989  13.604 -0.3742 -0.2545  0.2348
31547W        W47016  14.859  10.291   0.826  0.2417 -0.2330  0.1672
31548W        W47017   3.896   9.267  11.177 -0.0100 -0.6618 -0.3973
31549W        W47018  10.561  16.594   4.560 -0.0211 -0.0964  0.0895
31550W        W47019  18.307  17.673   1.117 -0.3332 -0.1385  0.0470
31551W        W47020  12.899  18.040  13.628  0.0642 -0.0418 -0.2127
31552W        W47021  10.428   8.383   0.190 -0.1644  0.0800 -0.1679
31553W        W47022   2.443   1.200  13.112 -0.0715 -0.2714  0.0885
31554W        W47023   4.348   8.735  15.769  0.0792  0.0476 -0.2143
31555W        W47024   0.265  18.201  11.059 -0.0232  0.2732 -0.1238
31556W        W47025   0.608   6.822   4.479  0.1096  0.2483 -0.1290
31557W        W47026   3.698  17.474   4.129 -0.1331 -0.3263  0.2067
31558W        W47027   0.035   8.780  13.822 -0.2871  0.1645  0.0978
31559W        W47028  12.179   8.007   5.495 -0.1275  0.0246  0.1415
31560W        W47029  18.616   7.641  14.477 -0.0180 -0.0975 -0.1282
31561W        W47030  13.664  15.136   0.691 -0.1433 -0.0726 -0.1668
31562W        W47031  13.752   5.932  14.428 -0.1842 -0.0229 -0.3185
31563W        W47032  15.181  16.146   0.204 -0.0194  0.0306  0.0374
31564W        W47033  10.210  11.857  11.566 -0.3293  0.1499  0.1135
31565W        W47034   9.879   2.441   5.243 -0.0246 -0.0769  0.0065
31566W        W47035   3.444  12.688   4.436  0.2528 -0.2312 -0.1822
31567W        W47036   3.674   7.837   1.963  0.0636 -0.1401  0.3049
31568W        W47037  16.826   2.326  13.388  0.1485 -0.0733  0.1174
31569W        W47038  12.848  14.598  10.353  0.2968 -0.2564 -0.1300
31570W        W47039   1.196  16.559   4.526 -0.1510 -0.4789 -0.1153
31571W        W47040   6.725   0.687  11.927  0.1826 -0.1579  0.4191
31572W        W47041   7.770  16.210  13.846 -0.1404  0.2827 -0.0018
31573W        W47042  12.448  13.394   3.478  0.0438 -0.1684  0.2184
31574W        W47043   3.770  16.723   4.603  0.0113 -0.0407 -0.0033
31575W        W47044   0.855  12.238   2.759  0.0835  0.0269  0.0698
31576W        W47045   1.117   6.689  14.575 -0.0888  0.1668  0.1815
31577W        W47046   3.661  13.367  12.339  0.1735  0.0129 -0.3952
31578W        W47047  10.218   0.483   2.593  0.0285 -0.0506 -0.0539
31579W        W47048   8.127  14.995  13.431 -0.0685 -0.1383  0.1073
31580W        W47049   0.516  16.355   1.686 -0.1626 -0.0325  0.1077
31581W        W47050  15.092   2.310   1.191 -0.1567 -0.1682 -0.2482
31582W        W47051  12.387   4.643   5.040  0.1074  0.1314  0.0934
31583W        W47052  13.319   2.980  12.071 -0.2661  0.2478 -0.1439
31584W        W47053   8.614  16.396   5.124  0.1173  0.2873  0.1926
31585W        W47054  17.865  13.214  12.321  0.0295  0.4024  0.0690
31586W        W47055   2.613  10.739  14.278  0.0438  0.0276 -0.1529
31587W        W47056   6.807   7.203   0.676 -0.4038  0.2458 -0.2168
31588W        W47057  10.897   4.000   2.455 -0.0414  0.0716 -0.2252
31589W        W47058   7.152  12.155  13.975 -0.0755  0.2023 -0.0072
31590W        W47059  13.084   2.373   4.228 -0.0024  0.2701 -0.0033
31591W        W47060   7.207  13.810  15.688 -0.0362 -0.1860  0.0779
31592W        W47061   7.042   0.501   2.584 -0.0254 -0.2503 -0.7560
31593W        W47062   1.346   5.017   3.024  0.1418  0.2508  0.0697
31594W        W47063   1.069  12.435   5.350  0.1110  0.2076 -0.0234
31595W        W47064  14.051  14.641   3.758  0.0813 -0.1020 -0.1280
31596W        W47065   3.729   4.079   3.130 -0.1114  0.0827  0.1549
31597W        W47066  11.733  16.677   0.974  0.4565 -0.0078  0.0150
31598W        W47067  17.377   7.372  12.336 -0.0852 -0.2995 -0.1512
31599W        W47068  11.768   2.021   3.925  0.0460  0.4988 -0.1688
31600W        W47069  10.203   6.025   2.774  0.1085 -0.1994 -0.0387
31601W        W47070   6.866  18.279  10.204  0.3118 -0.0756  0.0853
31602W        W47071  16.789  13.687  11.920  0.1430 -0.1626 -0.1822
31603W        W47072  11.400  18.552  12.268 -0.0079 -0.2405  0.1991
31604W        W47073   7.246   5.854   0.088  0.1409  0.0202 -0.1928
31605W        W47074   7.969   4.534   4.988  0.0673  0.1972 -0.1219
31606W        W47075  16.078   9.230  12.888 -0.0564 -0.2262  0.1420
31607W        W47076  15.032   8.621   2.862 -0.0556  0.0755  0.0195
31608W        W47077  16.795   0.903   0.045 -0.0097  0.1227 -0.0937
31609W        W47078   1.460   1.220  11.558  0.2190  0.0762  0.3670
31610W        W47079  15.873  17.688  13.135 -0.0569 -0.1336  0.0636
31611W        W47080  16.933  12.239   2.917  0.0033  0.3031 -0.1578
31612W        W47081  13.036  12.075  10.960  0.1934  0.0638  0.3314
31613W        W47082   6.345   2.023  12.813 -0.4805 -0.0237 -0.2126
31614W        W47083   3.565   4.769   3.092  0.1774  0.1762 -0.1873
31615W        W47084  16.272   7.500  12.266  0.0057 -0.2399  0.0262
31616W        W47085   4.090   7.128  14.343 -0.1696  0.2347 -0.3206
31617W        W47086   7.395  13.149  14.127  0.1625 -0.1979 -0.1570
31618W        W47087   0.004  15.131  11.370  0.0756  0.0011  0.1749
31619W        W47088  15.487  16.825  13.007 -0.2976 -0.2838 -0.1237
31620W        W47089  17.212  12.466   1.546  0.5872  0.0663  0.2752
31621W        W47090   4.451  17.119   2.732 -0.0780  0.1582  0.0882
31622W        W47091  15.633  13.898   5.302 -0.3766 -0.2382 -0.0112
31623W        W47092   8.300  13.024  15.114 -0.1330  0.1359 -0.0592
31624W        W47093  12.662   3.006  14.157  0.0021 -0.0197 -0.2657
31625W        W47094  16.308  14.967  14.734  0.1273  0.2510  0.2419
31626W        W47095   2.338  16.876  14.962 -0.0211  0.0305 -0.1520
31627W        W47096  12.772   8.655   1.078 -0.0236 -0.1420 -0.2204
31628W        W47097  12.905  17.989  12.689  0.1153 -0.0791  0.1106
31629W        W47098   5.501   6.339  10.599  0.1790  0.3340  0.4276
31630W        W47099   6.074   9.195  12.300  0.1253  0.0773 -0.2497
31631W        W47100  18.348   3.631  11.185 -0.7577 -0.0799 -0.0476
31632W        W47101  11.124   8.606   3.784  0.2738 -0.0478 -0.1085
31633W        W47102   0.066   2.657  14.796  0.0097  0.1299  0.0111
31634W        W47103  10.984   0.042   5.052 -0.0576  0.2799 -0.0722
31635W        W47104  14.080   3.402  13.136 -0.1537  0.0001  0.0822
31636W        W47105  15.240  16.377  13.436  0.1185 -0.1688 -0.1596
31637W        W47106  16.059  11.953  11.518 -0.3644 -0.1603 -0.1046
31638W        W47107   8.729  16.712   0.425 -0.1143 -0.4067  0.0383
31639W        W47108  10.834  11.573  12.558 -0.0724  0.2609 -0.1063
31640W        W47109  15.769   7.816  14.267 -0.0925 -0.1790  0.2214
31641W        W47110   2.488  12.734  14.197 -0.2151  0.2480 -0.1055
31642W        W47111  10.030   2.090   1.968  0.2045 -0.0287  0.3144
31643W        W47112   9.200  10.940  13.219 -0.1366 -0.1072  0.2002
31644W        W47113   1.611  10.218   3.437 -0.0648  0.1513 -0.3475
31645W        W47114  14.088   5.914   3.197 -0.6202  0.0804  0.1297
31646W        W47115  12.461   6.789   0.529 -0.0019 -0.2197  0.2083
31647W        W47116   8.418   9.672   2.816  0.0050  0.3361 -0.2808
31648W        W47117  17.134   7.605  11.814 -0.1426 -0.0485  0.0385
31649W        W47118   3.666   1.644   1.405 -0.0029 -0.1479 -0.1801
31650W        W47119   2.482  17.191   5.553  0.3032 -0.2058  0.5628
31651W        W47120  13.739   8.254   1.992 -0.2566  0.4042 -0.0621
31652W        W47121   1.689   2.613   2.641  0.1866 -0.6869  0.1021
31653W        W47122  16.832   2.409   1.448  0.0965 -0.1570  0.1076
31654W        W47123  14.210  18.351   3.929 -0.3393 -0.0426 -0.0778
31655W        W47124  16.587   6.631   3.503 -0.1604 -0.0778  0.1848
31656W        W47125   9.577   6.955   2.607  0.4194  0.1720  0.1715
31657W        W47126   1.013   8.077   0.706  0.1011 -0.2289  0.1554
31658W        W47127  16.038   0.702   3.395  0.3044  0.4569 -0.0318
31659W        W47128  12.106  14.548   5.878 -0.0558  0.0696  0.0287
31660W        W47129  14.057  11.178   2.344 -0.0672  0.0160  0.2298
31661W        W47130   0.893  17.159   4.980 -0.0608 -0.1710 -0.1407
31662W        W47131  12.096   9.247   0.127  0.1295  0.1958  0.0193
31663W        W47132   1.230   6.594   1.193 -0.2102  0.2075  0.1024
31664W        W47133  10.436   3.248   3.779 -0.1951  0.2197 -0.2057
31665W        W47134  13.957  13.609   3.800 -0.1621 -0.0173  0.4429
31666W        W47135  18.029  15.865   4.371 -0.1871  0.1697  0.2244
31667W        W47136  15.903  12.499   1.238 -0.0287  0.1839 -0.1100
31668W        W47137   9.283  13.192   1.472  0.1693 -0.0710  0.1328
31669W        W47138   6.281  11.670  12.077 -0.1766  0.2387  0.0931
31670W        W47139   4.848  12.902  15.604  0.0329 -0.0887 -0.3091
31671W        W47140  15.324  18.106   2.074 -0.2518 -0.0514 -0.3091
31672W        W47141  17.573   3.848   0.143  0.0874  0.0428  0.0836
31673W        W47142   5.025   8.545   1.952 -0.0540  0.2400  0.2170
31674W        W47143   3.185   9.062   0.929  0.0150 -0.1273 -0.0325
31675W        W47144   4.341  13.628  14.431 -0.0592 -0.0828  0.0952
31676W        W47145  14.457  16.539  13.036 -0.3854 -0.1556  0.2182
31677W        W47146  15.336   6.600  12.715 -0.1486  0.0765 -0.1515
31678W        W47147  10.281  16.528   0.547  0.0370 -0.3585 -0.0946
31679W        W47148   7.344   0.330  13.500 -0.0595  0.2022  0.2885
31680W        W47149  16.393  15.603  10.872  0.0231 -0.0554 -0.2437
31681W        W47150  14.131  18.686  11.795 -0.2379  0.1524 -0.2292
31682W        W47151  17.205   7.739   0.745  0.2275  0.1354  0.0667
31683W        W47152  12.162  18.411  11.686 -0.4013 -0.1306 -0.1240
31684W        W47153  14.970   2.925  13.421 -0.2734 -0.0100 -0.0182
31685W        W47154   9.136  12.985  14.493  0.1673  0.0439 -0.1911
31686W        W47155   0.323   9.058   1.793  0.1487 -0.0913  0.0101
31687W        W47156  14.799   0.020  11.108 -0.1943 -0.4494  0.2644
31688W        W47157   5.363  15.230  11.583  0.2863  0.0981  0.1545
31689W        W47158   1.073   8.773   4.163 -0.1985  0.1275  0.0357
31690W        W47159   8.863   1.247  14.896 -0.2162 -0.4769  0.3376
31691W        W47160  10.102  14.062   1.033  0.5314  0.0689 -0.3169
31692W        W47161   9.877  15.404   3.371 -0.3851  0.1070  0.1942
31693W        W47162   7.233  15.686   4.577 -0.2021  0.3598  0.2307
31694W        W47163  17.441  10.046  11.600 -0.2078 -0.0606  0.0562
31695W        W47164   3.905  17.374  10.197  0.1370  0.3024  0.0445
31696W        W47165   5.022   4.370  14.410 -0.0264  0.4821  0.4055
31697W        W47166  12.574  10.203   0.278  0.1242  0.2511  0.1731
31698W        W47167  16.709   1.013   4.043  0.1160 -0.0483 -0.0177
31699W        W47168  16.984  16.961   3.615  0.0466  0.1022  0.0128
31700W        W47169   7.743  17.446   4.927  0.1897 -0.1577  0.2360
31701W        W47170  12.752  11.956   0.930  0.2567  0.1744  0.2844
31702W        W47171   5.021   2.587  15.509  0.0436  0.1814  0.3088
31703W        W47172  17.112   0.256   0.705 -0.0331  0.2635  0.0714
31704W        W47173   7.934   4.034  15.270 -0.2213 -0.1022  0.3418
31705W        W47174   4.742   9.012  14.676 -0.1399  0.0007  0.0385
31706W        W47175   4.733   8.760   5.759  0.1318 -0.0484  0.0665
31707W        W47176  10.227   6.575  12.402 -0.2289  0.0864  0.0022
31708W        W47177  15.138   6.367   4.364 -0.1918 -0.1815  0.1653
31709W        W47178   0.404   8.509   0.420 -0.3381  0.0049 -0.1011
31710W        W47179   1.059   7.270   2.955  0.3808 -0.1011 -0.3567
31711W        W47180  11.187  10.436  14.724 -0.2559 -0.1542 -0.4731
31712W        W47181   6.075  17.277   0.751 -0.0833 -0.0420  0.3019
31713W        W47182  16.020  18.051  10.117 -0.2836 -0.2220 -0.0131
31714W        W47183   0.629  16.820  15.030  0.2279 -0.2140 -0.1662
31715W        W47184  11.998   9.272  14.070  0.0213  0.3765  0.1630
31716W        W47185  10.692  13.872   0.363  0.0169  0.0612 -0.1596
31717W        W47186  17.394   6.667  11.786 -0.2129  0.0857 -0.1638
31718W        W47187   9.232   0.623   4.985  0.0521  0.3591  0.0959
31719W        W47188  14.240   9.701  12.324  0.1135 -0.1091 -0.2647
31720W        W47189   4.646   8.825   4.060  0.0144 -0.0519 -0.2762
31721W        W47190   6.326  11.195   3.662 -0.1220  0.0902  0.1083
31722W        W47191  13.993   1.414   4.937  0.0930  0.0230 -0.1352
31723W        W47192   1.818  12.705  11.519 -0.1515  0.3513 -0.2958
31724W        W47193  18.622   5.759   4.736 -0.1770 -0.1528 -0.0297
31725W        W47194   9.461  15.768   4.445 -0.1782 -0.3633  0.0506
31726W        W47195  10.595  12.046  10.238  0.2122 -0.2613 -0.3801
31727W        W47196  16.847  14.974   4.141 -0.0415  0.2307 -0.3135
31728W        W47197   0.878  12.994   5.554  0.2597 -0.4237 -0.0412
31729W        W47198   9.475  12.309   3.671  0.0051  0.1077  0.4540
31730W        W47199  10.549  13.042   4.766  0.1181 -0.4306  0.2354
31731W        W47200  11.710  12.398  11.218 -0.3560 -0.0169 -0.2240
31732W        W47201  16.316   2.326  13.150  0.0021  0.3251 -0.2416
31733W        W47202  12.707   4.507   4.100  0.3655 -0.0938 -0.3355
31734W        W47203   9.117   2.760  10.464 -0.1706  0.1257  0.2857
31735W        W47204   9.219   1.275  13.642  0.0800 -0.1876 -0.1088
31736W        W47205  18.039  15.859   2.083 -0.3938 -0.2876 -0.2096
31737W        W47206  14.714  12.703  12.525 -0.3912 -0.2368 -0.0324
31738W        W47207   7.355   4.334  13.892  0.0159 -0.1054 -0.1601
31739W        W47208   7.971   4.267   1.893  0.0702  0.0885  0.2525
31740W        W47209   5.177   6.307   0.056 -0.0813  0.2793  0.4645
31741W        W47210   9.996  12.655   1.793 -0.0463  0.0017 -0.0568
31742W        W47211  12.141  13.028  14.671 -0.1717  0.0790  0.1088
31743W        W47212  17.038  10.950  12.058 -0.0184  0.1491 -0.1645
31744W        W47213   1.320   0.886   4.166 -0.0539 -0.3644 -0.1096
31745W        W47214   4.387   1.801   4.714  0.1127  0.1416 -0.0729
31746W        W47215   4.070   5.374  13.724 -0.2054 -0.0403 -0.1326
31747W        W47216  17.888  16.662  12.599  0.2073  0.2010  0.1282
31748W        W47217  14.485   9.886   0.755  0.0398  0.4543 -0.0650
31749W        W47218   9.917   3.639  15.303  0.1291 -0.2654 -0.0231
31750W        W47219   7.025  14.445  14.192 -0.1986  0.2054 -0.1364
31751W        W47220  14.299   6.275  14.216  0.3782 -0.3277  0.0603
31752W        W47221   6.097   5.905   1.256 -0.1808  0.1253  0.0594
31753W        W47222  13.435  11.462   5.445  0.1993  0.2850  0.2484
31754W        W47223   1.879  16.618  15.715  0.0727  0.0760  0.4500
31755W        W47224   6.302   4.869   0.094 -0.0418  0.1083  0.1170
31756W        W47225   3.731  13.610   2.548  0.0568 -0.1469  0.0149
31757W        W47226   6.540   3.666  13.987  0.0310  0.2511 -0.0019
31758W        W47227   8.340   5.865  11.882 -0.0380  0.1031 -0.1870
31759W        W47228   1.598   9.394  13.314 -0.3314 -0.1134 -0.2160
31760W        W47229  14.385   7.126   2.213 -0.3753  0.2600 -0.0574
31761W        W47230  11.827   7.186   4.356 -0.1404 -0.0661 -0.2218
31762W        W47231   9.067   7.604   9.790  0.1551 -0.0050  0.1785
31763W        W47232   8.255   5.747  13.182  0.0138 -0.1308  0.0347
31764W        W47233  12.207  11.367  13.665  0.1761  0.0522 -0.0847
31765W        W47234   9.461   9.954   1.346 -0.2489 -0.1124 -0.1734
31766W        W47235   8.126  17.680   1.896 -0.0776  0.0577 -0.1465
31767W        W47236  12.159  11.026  14.040 -0.2308 -0.2214 -0.1009
31768W        W47237   3.199  13.543  15.018 -0.1659 -0.1794 -0.0856
31769W        W47238   2.378   7.275   0.909  0.3376  0.0411  0.1340
31770W        W47239   6.284   3.322   5.190  0.2756 -0.1175 -0.2395
31771W        W47240  11.472  13.219  11.489 -0.0210  0.0570  0.1985
31772W        W47241   5.229   5.544   4.630 -0.1272  0.1401 -0.1195
31773W        W47242   1.642  13.894   4.280 -0.3017  0.0883 -0.1144
31774W        W47243   2.722  14.979  14.317  0.3252  0.0864  0.2900
31775W        W47244  17.936  13.567   2.207 -0.3077  0.0110  0.4034
31776W        W47245  12.588   6.582   1.611  0.3205  0.2183  0.0825
31777W        W47246  14.985   1.742   5.876  0.0366  0.0268  0.1525
31778W        W47247  12.473  17.949   5.294  0.3090  0.1089 -0.1906
31779W        W47248   2.450   4.791   0.757  0.0042 -0.0178  0.1037
31780W        W47249  12.803  17.748   1.245 -0.1252 -0.0227 -0.1830
31781W        W47250   7.891  16.726   3.689  0.0542 -0.0236  0.1978
31782W        W47251  11.514   7.923   4.198  0.0435 -0.3012  0.0194
31783W        W47252   8.043   6.692   1.692 -0.0763  0.0392  0.1019
31784W        W47253  18.320  13.633  15.622 -0.3184  0.5491 -0.0546
31785W        W47254  16.788  18.225   5.212  0.2905  0.3122  0.2461
31786W        W47255  16.980   6.016  14.393 -0.0473 -0.1290 -0.1271
31787W        W47256   3.210  13.880  10.574 -0.1500 -0.0748 -0.1345
31788W        W47257   6.341  17.672  12.479 -0.0584 -0.1580  0.2622
31789W        W47258  14.294   5.151   2.725  0.1305  0.1143  0.0175
31790W        W47259  18.379  18.547  12.273  0.0037 -0.0420  0.2979
31791W        W47260   8.728  16.826  15.209 -0.2258 -0.3382  0.4329
31792W        W47261  12.504   9.944   2.892 -0.2043  0.0764 -0.0135
31793W        W47262  11.216   8.856  11.500  0.0435  0.4155  0.0901
31794W        W47263   7.476   2.874  11.238 -0.0682 -0.1878 -0.1205
31795W        W47264  11.509  13.801   2.011  0.2941 -0.1857 -0.0117
31796W        W47265   2.069   5.002   4.895 -0.1491 -0.2389 -0.1439
31797W        W47266  18.593  12.896  11.280  0.1398  0.3083 -0.0060
31798W        W47267  16.974  10.157  13.425 -0.4597  0.1546  0.3310
31799W        W47268   3.828   0.645   1.924  0.0821  0.5733 -0.0710
31800W        W47269  14.903   1.039  14.854 -0.1311 -0.1368 -0.1469
31801W        W47270   1.393  18.409   4.999  0.3077  0.3208  0.1263
31802W        W47271  18.692   6.166   3.931  0.0744 -0.0378 -0.3609
31803W        W47272   3.137   1.217  15.043  0.0903  0.3161  0.1039
31804W        W47273   0.065   8.189  10.141 -0.0537 -0.0986 -0.5427
31805W        W47274  15.762  13.475   1.952 -0.1130 -0.4122  0.0239
31806W        W47275  16.946   2.371   4.950  0.1133 -0.1283  0.1694
31807W        W47276   7.380  11.205  12.949 -0.0352 -0.1257 -0.1237
31808W        W47277  10.421   3.073  13.228 -0.1411  0.1217  0.1013
31809W        W47278  14.729  17.621  11.532  0.2303 -0.4409  0.1444
31810W        W47279  10.583   8.135   2.813 -0.0639  0.2352  0.1135
31811W        W47280   2.648  16.587   1.110 -0.1414  0.0508 -0.0473
31812W        W47281  16.588  17.178  14.450 -0.1783  0.1859  0.0098
31813W        W47282   8.370  15.534  11.596  0.1679 -0.3605  0.0313
31814W        W47283   3.241   8.206   1.668  0.0146 -0.0605 -0.0990
31815W        W47284   6.724   4.801   3.740 -0.0739  0.2006  0.1263
31816W        W47285  15.793   0.797   0.096 -0.0573 -0.2096  0.0192
31817W        W47286  14.525   2.240   2.919  0.0548 -0.0696  0.2500
31818W        W47287  15.119   0.569  12.322 -0.1785  0.1456 -0.0576
31819W        W47288   7.741   1.259   4.374 -0.0196 -0.1724 -0.0518
31820W        W47289   2.299   6.880  15.291  0.0498 -0.3656  0.4725
31821W        W47290   9.500  13.650  15.159  0.0140  0.3357  0.1438
31822W        W47291   6.822   4.423  11.919 -0.1209  0.0409  0.1171
31823W        W47292   5.561   0.906   2.389  0.3691 -0.0635  0.0798
31824W        W47293   4.596   2.148   0.334 -0.0206 -0.0277 -0.2769
31825W        W47294  10.646   3.227   2.174 -0.0029 -0.0826 -0.0816
31826W        W47295   1.847  14.808   2.727 -0.2588  0.1474 -0.2293
31827W        W47296   2.345  15.265  15.692  0.0208 -0.1713 -0.1067
31828W        W47297  18.236  14.040   1.346 -0.1445  0.1006 -0.2311
31829W        W47298  12.618   6.660   2.133 -0.0058 -0.2074 -0.0930
31830W        W47299  15.370  18.131   3.229 -0.4111  0.2856  0.1349
31831W        W47300  16.343  11.143  14.173  0.1872 -0.0263 -0.0301
31832W        W47301   4.073   0.895  10.504  0.4614 -0.3248  0.0743
31833W        W47302   2.970  18.546   1.882  0.1341 -0.2335  0.1381
31834W        W47303  11.481   5.601  10.477 -0.1023 -0.0321 -0.1259
31835W        W47304   6.181  14.321   4.871  0.1097  0.2537 -0.2279
31836W        W47305   4.349  11.678  11.666  0.2655  0.0663 -0.1031
31837W        W47306   5.697   6.608  14.556  0.0581 -0.1559  0.0553
31838W        W47307   2.354  15.819  13.868  0.0514  0.1092 -0.4247
31839W        W47308   8.065   1.843   5.263 -0.2369 -0.2132 -0.0764
31840W        W47309   3.664  10.515  14.232  0.2728  0.1410  0.1219
31841W        W47310   6.473   9.765   5.850  0.1157  0.0364  0.1678
31842W        W47311   6.168   9.040   2.694 -0.1649 -0.0290  0.1745
31843W        W47312   7.812  14.388   4.671  0.1716 -0.0734  0.1498
31844W        W47313  18.299  10.945  14.995 -0.1676 -0.0600 -0.0551
31845W        W47314  15.019   2.908  11.148 -0.2448  0.0895  0.1251
31846W        W47315  15.104  16.671   3.642  0.0435  0.2696  0.1998
31847W        W47316   3.056  16.198   1.344 -0.0205 -0.0889  0.4396
31848W        W47317   2.551  16.913  10.222  0.0600 -0.0314 -0.1226
31849W        W47318  10.869  18.289  13.503  0.2715 -0.1237 -0.2004
31850W        W47319  14.977   6.915  15.329 -0.0949  0.5381  0.1996
31851W        W47320  13.899  11.540   0.292  0.1286  0.0708  0.2325
31852W        W47321   5.800  16.348  15.122 -0.1811 -0.0919  0.1236
31853W        W47322   4.903   1.029   0.426  0.3202 -0.1454 -0.2371
31854W        W47323  17.066  17.538  11.910 -0.2618  0.1169  0.1216
31855W        W47324   9.993  12.744   1.170 -0.0944  0.2649 -0.3856
31856W        W47325  16.988  10.555   0.366 -0.0835  0.2565  0.0231
31857W        W47326   1.902  11.153  13.549 -0.1532  0.0681 -0.0128
31858W        W47327   8.963   4.398  12.825  0.4663 -0.1438  0.0561
31859W        W47328  15.633   9.081   5.100  0.1845 -0.3657 -0.1048
31860W        W47329   2.690   2.591   0.225 -0.1726 -0.3323 -0.0936
31861W        W47330  13.525  16.665   1.479  0.1279 -0.1155 -0.0096
31862W        W47331   5.474   4.618   2.651 -0.1283 -0.1968 -0.0531
31863W        W47332   4.441  15.201   1.485 -0.2705  0.0015  0.0336
31864W        W47333  16.194  13.886  10.773 -0.3092  0.4713 -0.2648
31865W        W47334   3.504   3.525   0.655  0.3143  0.0307 -0.0071
31866W        W47335  13.758  16.720  13.259  0.0836  0.0358 -0.0776
31867W        W47336   5.255   6.761   2.349  0.0036  0.0503  0.0107
31868W        W47337  16.809  14.936   1.839  0.0053  0.1979 -0.2601
31869W        W47338  15.607  16.836   3.597  0.1467  0.1318  0.3968
31870W        W47339   5.035   5.441   2.313 -0.1088 -0.0681  0.0349
31871W        W47340   5.827   5.889   2.536 -0.1092 -0.1991 -0.0343
31872W        W47341   7.117   3.310  15.676 -0.0022  0.0541  0.1569
31873W        W47342   0.175  18.053   1.019  0.0965  0.0928 -0.3291
31874W        W47343  15.118  17.255   2.455  0.2062  0.1739 -0.0943
31875W        W47344   9.533   0.825   1.371 -0.1947  0.0595 -0.3079
31876W        W47345   7.852  12.756  13.189  0.1370 -0.0064  0.1283
31877W        W47346   0.983  13.780   0.620 -0.0109 -0.0107  0.1959
31878W        W47347  12.944   6.709  11.288 -0.1242 -0.2615 -0.1007
31879W        W47348  16.968  11.444   4.226 -0.0453 -0.1693 -0.0994
31880W        W47349  12.955   4.298  13.150 -0.0023  0.0852  0.0852
31881W        W47350  12.861  14.212   4.473  0.2304 -0.4749 -0.1065
31882W        W47351   7.293  11.348  11.200 -0.0503  0.2049  0.1137
31883W        W47352   4.445   7.960  13.081 -0.1801  0.0921  0.0353
31884W        W47353   3.031  10.100  14.555  0.2344 -0.0786  0.0420
31885W        W47354   4.331   5.421  15.466 -0.0241 -0.3563  0.2829
31886W        W47355   6.197  11.192   3.054 -0.3409  0.0717  0.1372
31887W        W47356  15.589   6.484  10.450 -0.0589 -0.1832 -0.1937
31888W        W47357   6.564   6.148   3.838  0.0560 -0.3606 -0.1353
31889W        W47358  10.114  14.227   3.316 -0.0151 -0.0198 -0.1736
31890W        W47359   7.941   6.037  13.429  0.2470 -0.2919 -0.2374
31891W        W47360   0.195   1.131   4.438 -0.0609 -0.2624 -0.1104
31892W        W47361   3.356  11.914  12.287 -0.1660 -0.0031 -0.0774
31893W        W47362   8.326   7.499  14.751 -0.0248 -0.0297  0.0091
31894W        W47363   2.718  17.375   2.717  0.0242 -0.2659 -0.0295
31895W        W47364  14.511  16.329   2.953 -0.0279  0.1133  0.1052
31896W        W47365  13.406  10.530  13.320  0.0486 -0.0313 -0.0038
31897W        W47366  18.014   9.216  11.929 -0.0510  0.1198 -0.1302
31898W        W47367   5.286   8.438  15.635  0.0215  0.1316  0.0160
31899W        W47368  18.377  17.476   4.515  0.0797 -0.2154  0.3325
31900W        W47369  12.004  16.727   2.640  0.0463  0.0082  0.3869
31901W        W47370   8.362   9.866  13.661 -0.0278  0.2574  0.2221
31902W        W47371  12.271   9.826  11.060 -0.1553 -0.0337 -0.1289
31903W        W47372   3.105  15.288  14.157  0.1355  0.2376  0.3578
31904W        W47373  17.151   2.118   3.827 -0.0175 -0.1219 -0.4596
31905W        W47374   3.219  15.565  15.783 -0.2217  0.1113 -0.3778
31906W        W47375  17.630   6.979  11.349 -0.0890  0.1306  0.1560
31907W        W47376  13.644   9.948  12.246  0.1743 -0.2014  0.0812
31908W        W47377  12.178  18.096   2.832  0.0838 -0.0842 -0.1453
31909W        W47378   1.718  14.728  15.151 -0.2890 -0.3484  0.2364
31910W        W47379  12.058  15.001  15.665 -0.0181 -0.0159  0.0265
31911W        W47380   3.201   7.913   4.184  0.0509  0.0922  0.5958
31912W        W47381  16.365  18.607  11.128 -0.0243  0.0981  0.0951
31913W        W47382  18.205   4.392   1.319 -0.2511 -0.0746  0.3166
31914W        W47383   7.116  17.418   0.986  0.1003  0.0336  0.0797
31915W        W47384  11.601   3.514   3.742 -0.0570 -0.0723 -0.0798
31916W        W47385   1.884   8.341   0.499  0.3047 -0.0456  0.1437
31917W        W47386   1.799   7.975   4.238 -0.0811  0.2474  0.0977
31918W        W47387  13.926   0.950   1.015  0.0691  0.1949  0.0589
31919W        W47388   2.929  16.076  10.480 -0.1800  0.1200  0.1172
31920W        W47389  14.842   4.113   1.068 -0.0116 -0.0895  0.2882
31921W        W47390  12.319  13.037   0.632  0.1537 -0.0419 -0.1853
31922W        W47391   2.838  11.779  11.693  0.0221  0.1438 -0.0786
31923W        W47392  15.712   4.559   2.010  0.0229 -0.1548 -0.1010
31924W        W47393   5.337  13.490   2.474  0.0108  0.1249  0.1616
31925W        W47394  18.077   4.161  13.054 -0.0924  0.2468 -0.0019
31926W        W47395  14.679  17.510   3.496  0.0398  0.0864  0.3969
31927W        W47396  16.413  14.483  11.740 -0.0599 -0.6164 -0.0781
31928W        W47397   2.856  15.813  13.484  0.1814 -0.0447 -0.1406
31929W        W47398  16.208   7.270  14.356  0.1724  0.1913 -0.2274
31930W        W47399  10.918   7.241   4.155 -0.1895  0.1031 -0.0568
31931W        W47400   1.802   6.962  14.652  0.1251 -0.2496 -0.0885
31932W        W47401   6.768  15.971   1.626  0.0274  0.0324 -0.0935
31933W        W47402  11.042   8.722   4.328  0.0035 -0.3398 -0.3547
31934W        W47403  16.780   3.551  12.861  0.1583  0.0303 -0.1808
31935W        W47404  14.661  16.237   1.194  0.0058 -0.0161  0.0821
31936W        W47405   9.804  11.632   5.354  0.1450  0.0006 -0.1034
31937W        W47406   9.397   1.858   5.482 -0.1145 -0.1672  0.1498
31938W        W47407   8.820  12.712   2.158 -0.3747 -0.0432  0.1555
31939W        W47408  11.208   4.770  11.529 -0.1066  0.1953  0.1338
31940W        W47409   6.344   3.355   0.442  0.1094  0.1657  0.1188
31941W        W47410  17.496   8.066   4.709 -0.2139  0.1685  0.1699
31942W        W47411   5.942   9.157  15.219  0.0523  0.1091 -0.0269
31943W        W47412  16.045   4.895   1.907  0.1135 -0.1368 -0.0250
31944W        W47413  12.879  14.965  13.735 -0.0297  0.0001  0.0091
31945W        W47414   2.542  17.213   0.476 -0.0033 -0.3035 -0.2845
31946W        W47415  15.198  16.590   2.135  0.0407  0.2118  0.0288
31947W        W47416  12.103  18.462   3.301  0.0899 -0.1779 -0.0029
31948W        W47417  11.351   0.144  11.602 -0.2461 -0.4944 -0.0446
31949W        W47418  17.647  13.240   2.373 -0.1756 -0.0841 -0.1523
31950W        W47419   9.038  15.893  13.873 -0.2184 -0.1077  0.1080
31951W        W47420   9.717   9.860  12.697  0.0048 -0.0486 -0.2123
31952W        W47421   4.548   7.379   0.823 -0.1279  0.1420 -0.0245
31953W        W47422   1.336  14.339   2.884 -0.3654 -0.0836  0.1101
31954W        W47423   8.698  12.012   0.382 -0.0198 -0.2189  0.3103
31955W        W47424  16.211   7.958  14.863 -0.0354  0.3525  0.0291
31956W        W47425   5.358  14.512   2.456 -0.0512 -0.0101  0.0129
31957W        W47426   7.044  14.526  13.578 -0.0314  0.0191  0.2195
31958W        W47427   5.134   7.344   4.135  0.1567 -0.2607  0.0484
31959W        W47428   4.826   0.485   4.037  0.3626 -0.1511 -0.0275
31960W        W47429  10.594  16.624   3.492 -0.0372 -0.1179 -0.1802
31961W        W47430   8.643  12.426  13.147  0.0894  0.4066 -0.4514
31962W        W47431   6.791   2.803   0.959 -0.2353  0.2059  0.1852
31963W        W47432  16.736  12.599  11.612  0.1574 -0.0582 -0.1414
31964W        W47433  17.543  10.020   1.219  0.4717 -0.0781  0.2255
31965W        W47434  10.576   7.523  13.637 -0.3463  0.2695 -0.0819
31966W        W47435  17.454  12.494  12.539  0.2122 -0.1809  0.0247
31967W        W47436   3.072  13.496   1.930 -0.0724 -0.2178 -0.1395
31968W        W47437   4.754  10.113  12.407 -0.4546  0.0651  0.1023
31969W        W47438  10.497  17.049  13.814  0.0762  0.2934  0.0526
31970W        W47439  16.442  14.248   4.922 -0.0106 -0.0648 -0.0410
31971W        W47440  17.630   3.366   1.066  0.0210  0.0666  0.1344
31972W        W47441  16.141   5.946   4.238  0.0753 -0.3614 -0.1992
31973W        W47442   9.799  11.487   4.379  0.0435  0.0403  0.0195
31974W        W47443  10.429  12.600   4.810  0.4295 -0.0467  0.1834
31975W        W47444  17.932  11.310  11.982 -0.1258 -0.4052  0.1228
31976W        W47445  15.682  17.632  14.407 -0.1949  0.0643  0.3726
31977W        W47446   6.302  11.777  13.732  0.1067 -0.1387 -0.5331
31978W        W47447  17.373  15.342  13.639 -0.3567  0.1435  0.0841
31979W        W47448  16.773  14.838   3.315 -0.0358  0.4526 -0.0419
31980W        W47449  12.317   4.176   3.581  0.0053 -0.2793  0.3753
31981W        W47450  17.493   2.272  14.655 -0.1994  0.0981  0.0828
31982W        W47451  15.522   9.353   0.412  0.1810 -0.4235 -0.0621
31983W        W47452   9.009   5.237   4.984 -0.0483 -0.0371  0.1201
31984W        W47453   5.954  17.503  13.462 -0.0589 -0.0990  0.4634
31985W        W47454  13.984  10.935   0.499  0.1404 -0.0567  0.0994
31986W        W47455   7.736  18.491   3.919 -0.0387 -0.3114  0.0783
31987W        W47456  14.941  15.721  11.104 -0.0087  0.3072 -0.1178
31988W        W47457   1.195  13.904   4.081  0.2608  0.3959  0.2784
31989W        W47458  13.316  12.497   5.395 -0.1429 -0.0961  0.0224
31990W        W47459  12.697  11.595  11.178 -0.0031 -0.0437  0.0819
31991W        W47460   8.879  15.022   0.793 -0.3338 -0.1893 -0.1192
31992W        W47461   2.295  12.074  14.713  0.1959  0.1469 -0.1433
31993W        W47462   5.444  18.444  11.629  0.0735 -0.0889 -0.0700
31994W        W47463   1.353   7.831  14.913  0.0071  0.0101 -0.0368
31995W        W47464  14.678  10.836   1.772  0.0745 -0.3691  0.0476
31996W        W47465  10.558   9.253  13.456  0.1671  0.0622 -0.2156
31997W        W47466  10.715  14.701  10.905  0.0671 -0.0190  0.0867
31998W        W47467   3.052  10.683  14.499 -0.0362 -0.0253  0.3529
31999W        W47468   4.837  14.501  14.038  0.0570  0.0581 -0.2131
32000W        W47469  16.470  16.700   3.108 -0.1642  0.2993  0.2365
32001W        W47470   9.779   5.345   2.402 -0.0642 -0.1001  0.1402
32002W        W47471   7.653  14.933  12.984 -0.0442  0.2872  0.0895
32003W        W47472  11.006   4.626   4.747  0.0736  0.1466  0.0140
32004W        W47473   0.905  16.381  11.028  0.0260 -0.0529  0.1490
32005W        W47474  12.457   4.563  12.348  0.1667 -0.3628 -0.0441
32006W        W47475   1.396  16.499   5.915 -0.0270  0.0417 -0.0785
32007W        W47476   2.216   6.087  11.024 -0.0891 -0.1102 -0.2406
32008W        W47477   7.824   9.839  12.513  0.3495 -0.0515  0.0801
32009W        W47478   5.229   9.002  12.562  0.1265  0.1927 -0.2768
32010W        W47479   4.556   8.974   5.394  0.1055 -0.4142  0.2097
32011W        W47480   8.054   2.325   3.201 -0.0713 -0.4227 -0.4812
32012W        W47481   0.128   2.147   2.397 -0.2736  0.2083  0.0231
32013W        W47482  12.693   6.441  12.237 -0.0755 -0.0645  0.0942
32014W        W47483  17.022   3.080  13.088  0.5253  0.2454 -0.1989
32015W        W47484   8.765   1.576   5.856  0.0409  0.0228  0.1947
32016W        W47485  15.416  15.004   0.793 -0.0189  0.2663 -0.0059
32017W        W47486  17.742   7.551   5.578 -0.1882  0.0364 -0.1389
32018W        W47487   7.162   7.069   3.875 -0.0300 -0.0367  0.1154
32019W        W47488  14.876  17.740  13.093 -0.0530  0.0240 -0.0604
32020W        W47489  17.902   3.303   0.327 -0.1762 -0.0493 -0.0839
32021W        W47490  15.827  18.053   4.238  0.1319  0.0017  0.0939
32022W        W47491   1.828  12.156   0.653 -0.0635  0.0323  0.0882
32023W        W47492   8.860  14.089  12.954 -0.2978  0.0308 -0.0398
32024W        W47493  12.592  14.046  13.510  0.0466 -0.0231  0.1767
32025W        W47494   0.108   8.282   4.469  0.2166 -0.1837  0.0429
32026W        W47495   1.617  15.851   3.702 -0.2148  0.1477 -0.0185
32027W        W47496  13.113   4.643  13.634 -0.1379  0.1632  0.0466
32028W        W47497   3.566  13.121   1.057 -0.4423 -0.0334 -0.0597
32029W        W47498   8.069  11.673   5.211  0.1249 -0.0141 -0.0112
32030W        W47499  11.368  18.247  11.879  0.0155  0.1211  0.3101
32031W        W47500   5.998   2.098  13.224  0.0795  0.1626 -0.2336
32032W        W47501   4.805  13.279   0.321  0.0088 -0.0415  0.3285
32033W        W47502  10.573   6.401   1.172 -0.1431 -0.2606  0.3952
32034W        W47503   2.751  11.351  11.413 -0.0494 -0.1476 -0.2137
32035W        W47504   9.263  18.388  14.654 -0.0417 -0.0956  0.1233
32036W        W47505  11.333  12.728  14.556 -0.0193  0.4146 -0.3113
32037W        W47506  18.458  17.149   3.446  0.1737 -0.1513 -0.1435
32038W        W47507  12.547  18.453   4.060 -0.1426  0.0062 -0.1764
32039W        W47508   4.120  18.545   4.976  0.0832 -0.2550 -0.2891
32040W        W47509  17.675   3.945  10.769 -0.0605  0.1839  0.1047
32041W        W47510   6.334   0.681   0.033  0.1538  0.2026 -0.0975
32042W        W47511  14.778   0.492   4.518 -0.2249 -0.3019 -0.2338
32043W        W47512   3.691  12.971   5.524 -0.0420  0.1268 -0.2733
32044W        W47513   6.692   4.961  11.971 -0.1007  0.0803  0.2963
32045W        W47514   3.798   3.129  11.396  0.0525 -0.0405  0.2503
32046W        W47515  17.837   9.213   0.013  0.0379 -0.2586 -0.1978
32047W        W47516   3.727  12.309   1.085 -0.5205 -0.1563 -0.0458
32048W        W47517   0.401   7.333   0.826 -0.3280  0.2168 -0.2685
32049W        W47518   4.598   9.882   4.262  0.2147  0.1574 -0.0576
32050W        W47519   4.594  17.445  10.705  0.0600  0.3015 -0.5270
32051W        W47520   2.831  15.794   3.151 -0.0678  0.0562  0.2097
32052W        W47521  18.216  15.284  11.357 -0.0423  0.1456  0.1030
32053W        W47522  13.488  10.510   4.580  0.1381  0.0167  0.0648
32054W        W47523  18.608  17.773   2.630  0.0891  0.2571  0.0399
32055W        W47524  11.508  15.545   5.360  0.0419 -0.3551 -0.1227
32056W        W47525   3.015   0.145  15.733 -0.0050  0.0878 -0.2183
32057W        W47526  10.054  10.066   0.755 -0.2361  0.1824  0.2289
32058W        W47527  10.380   5.233   2.517 -0.0646  0.1417 -0.0121
32059W        W47528   4.016   1.833   4.189  0.1939 -0.0225 -0.0592
32060W        W47529  17.692  18.365   4.690  0.2194 -0.0617 -0.1309
32061W        W47530   2.157  14.913   4.269  0.0802 -0.3431  0.1042
32062W        W47531  16.550  12.213  15.325 -0.3331  0.2524  0.1371
32063W        W47532   4.715   0.246  14.887 -0.2844  0.3619 -0.2573
32064W        W47533   0.938  11.613   0.961  0.0132  0.0227 -0.0848
32065W        W47534   8.022   8.085   3.178 -0.2588 -0.0610 -0.0965
32066W        W47535   2.979   4.778   4.838  0.0708 -0.1661  0.0741
32067W        W47536   8.220   8.926  15.746 -0.2246  0.0055 -0.0215
32068W        W47537  11.120  17.912  12.633 -0.2628 -0.0772 -0.0350
32069W        W47538  12.101  14.104   2.856  0.3047  0.3277 -0.0811
32070W        W47539  11.309  12.724  12.075  0.2548 -0.2663 -0.0636
32071W        W47540   8.961   3.947   3.280 -0.2835 -0.0492  0.3184
32072W        W47541  10.590   9.451   2.667 -0.1776  0.0178 -0.2456
32073W        W47542   7.446  12.704   3.109 -0.2866 -0.1362  0.3364
32074W        W47543   1.224   0.372  14.319 -0.2692  0.2898  0.1882
32075W        W47544  16.108  16.164  11.049  0.1901 -0.0600  0.1606
32076W        W47545   2.873   6.845   3.234  0.1609 -0.4880 -0.1716
32077W        W47546  17.124  10.278  14.126 -0.0768 -0.2146 -0.3114
32078W        W47547  10.867  12.975   4.069  0.0967 -0.1045  0.3397
32079W        W47548   6.827   9.504  14.827 -0.1767 -0.2289 -0.1400
32080W        W47549   9.150   5.917   2.185 -0.1151  0.1086  0.1221
32081W        W47550  15.320  12.257   3.821  0.2495  0.0917  0.2643
32082W        W47551   8.556  15.347  14.267  0.0982 -0.0022 -0.0836
32083W        W47552   9.392  14.025  12.828  0.0458 -0.1593 -0.2226
32084W        W47553   1.932   8.423   2.867 -0.0609  0.0413 -0.0965
32085W        W47554   9.220  11.893  13.665 -0.0973  0.1325  0.0656
32086W        W47555   7.377   1.389  15.508  0.2133  0.0555  0.0857
32087W        W47556   3.832  10.356   5.252 -0.1941  0.3815  0.0736
32088W        W47557   4.672  17.785   2.893  0.1537  0.0819  0.0601
32089W        W47558  13.876  15.204  15.062  0.1667 -0.2054 -0.3382
32090W        W47559   6.849  16.700   1.762 -0.1218  0.1198  0.0376
32091W        W47560  12.296   7.906   1.777 -0.1150 -0.2787 -0.1240
32092W        W47561  16.619   4.840  11.396  0.2614 -0.3661  0.3465
32093W        W47562   6.436   8.132   3.019 -0.2609 -0.0778  0.0248
32094W        W47563  12.881   7.763  14.429  0.0747 -0.2094  0.1485
32095W        W47564   2.015  14.299  10.670 -0.0159 -0.0118  0.1464
32096W        W47565   7.488  18.195   1.391 -0.3757  0.0268  0.0333
32097W        W47566   1.199  14.844   2.768  0.1453  0.1059 -0.3592
32098W        W47567   7.205  12.518   0.378  0.0991 -0.0139 -0.0770
32099W        W47568  17.007  17.478   0.126 -0.2279 -0.1968 -0.0915
32100W        W47569   2.871   7.990   1.382  0.2377  0.2504  0.3139
32101W        W47570   2.944   8.169  10.680 -0.1121  0.0086 -0.0331
32102W        W47571  18.217  10.195   3.906  0.1324 -0.5181 -0.0810
32103W        W47572  12.623   7.358  12.516 -0.1575 -0.2424 -0.0752
32104W        W47573  17.348  11.319  14.214 -0.0743 -0.3521 -0.3372
32105W        W47574  17.819   4.050   1.465  0.1505  0.0287  0.0990
32106W        W47575   5.871   3.236  10.581  0.2852  0.0401 -0.0086
32107W        W47576   3.609   0.220   4.869 -0.1442 -0.0253 -0.1125
32108W        W47577  14.221  16.392  11.115 -0.3445  0.2167 -0.0505
32109W        W47578   8.791   7.778  13.004 -0.1575  0.1905  0.1469
32110W        W47579   1.295  17.927  10.720 -0.1594 -0.1830 -0.1048
32111W        W47580  11.254   5.137  10.599 -0.1325 -0.4888  0.0115
32112W        W47581   7.283   7.907   0.061  0.3380  0.0156 -0.1846
32113W        W47582   0.011  15.346  14.490 -0.0666  0.0713  0.0273
32114W        W47583   9.770  17.557  14.955  0.0517 -0.1610 -0.5490
32115W        W47584   0.505  13.929   9.859 -0.0266 -0.1175 -0.0587
32116W        W47585   8.563  12.869   2.961  0.1095 -0.3312  0.2799
32117W        W47586  12.690   0.103   4.604 -0.0743  0.1548  0.1310
32118W        W47587  12.275   6.357   0.740 -0.0295  0.0333  0.0393
32119W        W47588   4.094   6.040   0.353  0.1665 -0.1854 -0.2887
32120W        W47589  17.986   3.622  14.697 -0.1028  0.1388 -0.2418
32121W        W47590   5.154   9.171  11.841  0.0583 -0.0739 -0.1012
32122W        W47591  17.039   4.022  11.857 -0.1486 -0.2868  0.1628
32123W        W47592  12.124  17.656  10.842 -0.0078 -0.0524 -0.2384
32124W        W47593  16.716  17.207  15.431 -0.3362  0.0232 -0.1345
32125W        W47594  16.841   4.153  11.085  0.0284 -0.2589 -0.1176
32126W        W47595   1.184   5.561   2.221 -0.0325 -0.1588 -0.1226
32127W        W47596  10.524   5.541   0.304  0.3366  0.1872  0.0534
32128W        W47597   4.969  14.765   5.090 -0.2751 -0.0449  0.1597
32129W        W47598   2.557  14.930  12.557 -0.0571  0.2724  0.1375
32130W        W47599  12.917   8.907  14.073 -0.1581 -0.0796 -0.2008
32131W        W47600   5.236  16.495  15.468 -0.0093  0.2411 -0.0360
32132W        W47601  11.337  14.730   3.797 -0.0699 -0.3614  0.0283
32133W        W47602   0.682  10.407  12.528 -0.4169 -0.2082  0.1886
32134W        W47603  18.470   1.973   4.780 -0.1562  0.0354  0.2010
32135W        W47604   3.240   2.250   0.398  0.0335  0.4100 -0.1200
32136W        W47605  11.881  14.971   2.758  0.3319 -0.1647  0.1872
32137W        W47606   1.218  15.792   0.222  0.4611  0.0470  0.4055
32138W        W47607  11.045  17.512   3.499  0.0856 -0.2202 -0.0661
32139W        W47608  13.722   2.906   2.484 -0.1564  0.1047 -0.2476
32140W        W47609   9.072   0.601  10.818 -0.2109 -0.1338  0.0003
32141W        W47610  15.215   4.316  11.608  0.2167 -0.1368  0.2124
32142W        W47611  14.658   2.217  12.484  0.0901 -0.1267  0.0232
32143W        W47612  14.665   7.985  14.780  0.1594 -0.2078  0.0019
32144W        W47613   7.639  18.306   0.109 -0.0808  0.0268 -0.0176
32145W        W47614  12.854  17.175   4.495  0.2961  0.4864  0.0154
32146W        W47615   6.538   9.591   0.416  0.0326  0.0579  0.0213
32147W        W47616   2.177   7.984   0.169  0.1039 -0.0156  0.0196
32148W        W47617  14.712  11.877   5.016 -0.1300 -0.0224 -0.1870
32149W        W47618  14.188  12.892   4.877 -0.0564  0.0329  0.2527
32150W        W47619   3.426   0.872   3.454 -0.1970  0.0230 -0.2160
32151W        W47620  18.375   1.566  10.949 -0.0516 -0.1334  0.3159
32152W        W47621  17.601   9.955  12.100  0.1035  0.0040  0.0317
32153W        W47622   0.528   2.527  15.002 -0.2483  0.1394  0.0593
32154W        W47623   8.853   9.635   0.184 -0.1931 -0.1585 -0.1932
32155W        W47624  11.468   7.085   4.830  0.0722  0.0260  0.0457
32156W        W47625   5.892   2.703   3.634 -0.0162 -0.3459  0.1106
32157W        W47626  10.437   4.115   3.755 -0.0598 -0.3050 -0.0377
32158W        W47627  18.407  14.804  11.679 -0.2371 -0.1184  0.0469
32159W        W47628  18.094  13.104   0.073 -0.1002 -0.0252  0.2915
32160W        W47629   4.615   9.129  12.133  0.3318 -0.2060 -0.0713
32161W        W47630  12.283   0.857   4.033  0.0382  0.2633 -0.0405
32162W        W47631   0.804   1.813  14.759 -0.2819 -0.1406 -0.1771
32163W        W47632   9.927   2.923  10.069 -0.1421 -0.1477 -0.0609
32164W        W47633   0.390   5.821  12.827 -0.1218 -0.0159 -0.1605
32165W        W47634  13.973  16.115  14.253 -0.0348 -0.3019  0.2103
32166W        W47635  11.146  11.562  15.430 -0.2344  0.0974  0.1257
32167W        W47636   1.018   5.306  11.148 -0.0876 -0.1672 -0.0188
32168W        W47637  17.044  10.552  12.583 -0.0881 -0.0857 -0.1667
32169W        W47638  17.949  11.996  14.818 -0.1407 -0.3942  0.3139
32170W        W47639   4.548  13.473   6.334  0.2269  0.1644  0.2299
32171W        W47640  10.213   1.365   0.431 -0.1590 -0.2921 -0.0127
32172W        W47641   7.073   3.736   3.812  0.2582 -0.2259 -0.1347
32173W        W47642   8.636  16.852   4.152 -0.3240  0.0242  0.0154
32174W        W47643  15.362  11.388  13.355  0.0979  0.1395 -0.3995
32175W        W47644   1.666   1.118  12.733 -0.0472  0.1187  0.2983
32176W        W47645  17.451  14.316  11.803  0.0840  0.2353  0.1839
32177W        W47646   2.436   4.909   4.297  0.1099  0.1446  0.1089
32178W        W47647  15.789  16.741  10.525 -0.2100 -0.2595  0.0288
32179W        W47648   7.849  10.496  14.878  0.1225 -0.2526  0.0847
32180W        W47649  16.003   1.863   1.446  0.1396  0.0006 -0.0529
32181W        W47650  11.718   4.599   4.071  0.2649 -0.1310  0.2819
32182W        W47651   6.840   3.076   4.596  0.1832  0.0563  0.0248
32183W        W47652  12.296   9.681   2.519  0.0565 -0.1450  0.0254
32184W        W47653  12.300  10.851  13.068  0.0564 -0.1688  0.0278
32185W        W47654  14.948  12.803   1.035 -0.2217  0.0408 -0.0793
32186W        W47655   0.826  17.776   2.876 -0.0508  0.1489  0.0218
32187W        W47656  10.701  10.079   3.595 -0.1299  0.0579  0.1748
32188W        W47657  10.837   2.446   2.013  0.0275 -0.1506 -0.3561
32189W        W47658  11.577   0.516  15.399 -0.2736 -0.0999  0.0109
32190W        W47659   6.010   3.191   1.648 -0.1434 -0.2139  0.0932
32191W        W47660  15.105   0.499  11.332 -0.3026 -0.0929  0.1526
32192W        W47661  17.542  17.692   1.607 -0.0964  0.1251  0.0449
32193W        W47662  16.150  15.284   0.536 -0.0916  0.1218  0.1587
32194W        W47663   7.058  12.040  11.540 -0.2259 -0.0336  0.1907
32195W        W47664   2.060  17.666  13.375  0.0920  0.0288 -0.0305
32196W        W47665  15.346   5.084   3.631 -0.1437 -0.2930 -0.0499
32197W        W47666  18.002   6.782   3.960  0.1530 -0.0012 -0.1977
32198W        W47667   9.711  13.544   4.047  0.0963  0.3442 -0.0775
32199W        W47668  14.858   1.429   3.659 -0.2543 -0.1570 -0.2707
32200W        W47669  12.069   0.457   5.234  0.2506 -0.0947  0.0342
32201W        W47670   6.635  11.549   2.816  0.0910 -0.1083  0.0209
32202W        W47671  11.378  13.779  11.138  0.3051  0.2672  0.1646
32203W        W47672  12.618  11.567  13.479 -0.1718  0.1599  0.2584
32204W        W47673   1.218   5.463   5.919 -0.1020 -0.4392  0.0232
32205W        W47674   4.690  14.647  15.718 -0.1972  0.0132  0.1195
32206W        W47675   9.905   4.271   0.670  0.0155  0.2895 -0.2701
32207W        W47676   7.820  17.083  13.572 -0.1580 -0.0074 -0.1132
32208W        W47677  15.059  10.410  13.193 -0.0306  0.0073  0.1140
32209W        W47678   2.308   1.804   4.768  0.1156  0.1337 -0.2800
32210W        W47679  11.258  10.134   5.014 -0.2197 -0.2008  0.0996
32211W        W47680  15.734  13.825  12.585 -0.1886  0.0388  0.2080
32212W        W47681   2.230   0.068   2.170  0.6450 -0.2638  0.2515
32213W        W47682   6.193  14.453  14.736 -0.0623  0.0301  0.2016
32214W        W47683   8.956   3.351  11.253  0.1406 -0.0703  0.1787
32215W        W47684   9.534   2.211   4.883  0.0297 -0.0096 -0.0507
32216W        W47685  12.906   9.014  10.942  0.0644 -0.1487  0.0217
32217W        W47686  17.788  12.450   4.329  0.0842 -0.0337 -0.0106
32218W        W47687  14.380   7.319   2.885 -0.1152 -0.0417  0.1030
32219W        W47688  12.433  15.434  13.063 -0.1037 -0.0519  0.1099
32220W        W47689  12.531  14.253  11.130 -0.0106 -0.0714 -0.1329
32221W        W47690  18.125   4.689  14.908  0.1380  0.0401  0.0111
32222W        W47691  16.158  18.476   4.353 -0.2555  0.3379 -0.2967
32223W        W47692  16.926  13.271  10.504 -0.0141  0.0749 -0.3814
32224W        W47693  14.381  17.979   1.572  0.1103 -0.3303 -0.1038
32225W        W47694   4.360   4.864   1.602  0.0520 -0.0191 -0.0141
32226W        W47695   3.294  13.557   4.826  0.2867 -0.0475  0.2755
32227W        W47696   3.056   0.698  13.850  0.2136  0.2507 -0.2238
32228W        W47697  10.162  18.546  11.477 -0.0785 -0.0515  0.0525
32229W        W47698   9.842   5.068  13.410 -0.1009  0.3914  0.1046
32230W        W47699   6.423   6.919   2.904  0.0565 -0.0787  0.1132
32231W        W47700   1.119   9.519   4.622  0.0542  0.2409  0.0936
32232W        W47701   3.258  10.396  11.340 -0.1543  0.3463  0.1775
32233W        W47702  12.495  14.891   3.312  0.1206 -0.0112 -0.0016
32234W        W47703   2.274   4.270  14.030  0.2585 -0.2049  0.3197
32235W        W47704   5.354   1.200  12.535 -0.4874  0.1780 -0.1030
32236W        W47705   6.700   2.477  11.231 -0.1927 -0.1314  0.0019
32237W        W47706  11.325  11.177   4.362 -0.3020 -0.0541  0.0193
32238W        W47707  18.186  13.280  13.281 -0.2254 -0.0965  0.2470
32239W        W47708   9.020   6.790  10.374  0.1950  0.3571 -0.1176
32240W        W47709  12.808  11.859  13.012 -0.0134  0.4678  0.1031
32241W        W47710  16.372  18.412   3.155 -0.2957  0.0158 -0.1741
32242W        W47711   0.973  17.004   2.165  0.0714  0.2743  0.2252
32243W        W47712   3.964   5.330  12.021  0.0723 -0.1062  0.1122
32244W        W47713   0.536   9.572   6.275  0.2692 -0.4774 -0.0206
32245W        W47714  17.441  15.349   0.005 -0.1800 -0.0714 -0.0935
32246W        W47715   6.998  10.828  12.793 -0.1349 -0.0021 -0.0092
32247W        W47716  17.447  17.835  11.304  0.0605 -0.0636  0.1125
32248W        W47717   5.028   6.092  13.044  0.0599  0.1785  0.1521
32249W        W47718  14.081  12.295  12.231 -0.1888  0.3492 -0.0532
32250W        W47719  14.039   2.668   2.898 -0.1149 -0.0002  0.2053
32251W        W47720   3.126   4.746  15.002 -0.3125  0.0023  0.3280
32252W        W47721   0.375   7.422  13.675 -0.0564  0.2704 -0.0052
32253W        W47722  17.298   5.680   4.230  0.1946 -0.1836 -0.1743
32254W        W47723   0.270  14.723   0.886 -0.2955  0.2557  0.0805
32255W        W47724   5.028  18.605  12.120 -0.2710  0.0533 -0.0012
32256W        W47725  15.391   0.504  10.343  0.1874  0.0674 -0.0102
32257W        W47726   3.284  10.361   3.398 -0.4661  0.0916  0.1604
32258W        W47727  11.121  16.187   2.841 -0.0778  0.0325  0.2361
32259W        W47728   5.813   5.036   3.475  0.0037  0.0202 -0.4926
32260W        W47729   0.342   5.154  14.138 -0.3368 -0.1555 -0.0056
32261W        W47730   4.018   6.491  12.448  0.2950  0.0700  0.2626
32262W        W47731   5.325   8.005  12.692 -0.0670  0.0083 -0.1463
32263W        W47732  13.359  10.771  11.710 -0.0973  0.2784 -0.2146
32264W        W47733   8.466   2.406   1.779  0.1455  0.2086 -0.0698
32265W        W47734   7.075   1.997  14.620  0.0100  0.0757  0.0004
32266W        W47735   8.561   6.883  13.635  0.0652  0.3027 -0.0435
32267W        W47736   9.420   5.647   1.156 -0.1808 -0.1803  0.0435
32268W        W47737   8.939   3.820   2.461  0.0738 -0.0791 -0.6272
32269W        W47738   2.535  17.869   1.869 -0.1510  0.0552 -0.1494
32270W        W47739  11.530  15.701  11.149 -0.2198 -0.0899  0.2640
32271W        W47740   1.944   8.945   1.219  0.0397 -0.0074  0.2209
32272W        W47741   1.974  18.579   0.390 -0.1207 -0.0175  0.1568
32273W        W47742   9.005  11.109   4.873  0.0959  0.0950  0.3030
32274W        W47743  15.279  16.754  14.339  0.1956 -0.0884  0.0365
32275W        W47744  13.751   9.322   3.156  0.1401 -0.0687  0.2679
32276W        W47745  14.487  14.263   0.842  0.1671 -0.0281 -0.2363
32277W        W47746  12.306  12.571  14.453 -0.1105 -0.2524  0.0076
32278W        W47747  15.130   0.509   1.370  0.1485 -0.2122 -0.0244
32279W        W47748   8.880   7.736  11.672 -0.0535  0.2533 -0.0430
32280W        W47749  10.070  11.536   1.290 -0.0803  0.0727  0.2721
32281W        W47750  12.233  13.216  15.569 -0.0298 -0.3361 -0.0953
32282W        W47751   6.996   0.183   1.673  0.1651 -0.0562 -0.0076
32283W        W47752  13.420   6.909   2.738  0.2071 -0.0709  0.0133
32284W        W47753   6.619  18.307   4.785 -0.0142  0.1095 -0.0729
32285W        W47754  10.675   0.856   3.739 -0.0182  0.1768 -0.0674
32286W        W47755  15.182   6.826  10.628 -0.0834 -0.3227  0.1334
32287W        W47756  15.858   3.300   3.903 -0.0156 -0.1048 -0.2186
32288W        W47757   7.337   5.029   3.582 -0.0812 -0.3983  0.1929
32289W        W47758   6.850   1.465  12.297  0.1118  0.3625 -0.0380
32290W        W47759  14.436  12.392  11.125 -0.1197 -0.1218  0.0172
32291W        W47760  14.663   6.054   3.051  0.3378  0.0610 -0.2561
32292W        W47761   5.872   8.623   2.617 -0.0059  0.1582  0.0803
32293W        W47762  16.482   7.082   3.763 -0.2652 -0.0112  0.0490
32294W        W47763   1.186   4.931  11.408 -0.3939  0.1002 -0.0968
32295W        W47764   8.993   4.779  15.332  0.1187 -0.0634  0.4232
32296W        W47765   9.621  11.678   3.544  0.1332 -0.2683  0.1477
32297W        W47766   1.862   0.729  15.140  0.2543  0.1665 -0.0205
32298W        W47767  14.971   0.459  14.908 -0.0246 -0.0720 -0.3214
32299W        W47768   4.307  18.579  15.665 -0.0445 -0.1012  0.0817
32300W        W47769   1.251  10.681   2.224  0.0129  0.0550  0.2006
32301W        W47770  12.525   1.473   1.077  0.3117 -0.0279 -0.0011
32302W        W47771  12.129   1.277   4.286  0.0323 -0.1547  0.0869
32303W        W47772  13.213   4.298  15.369 -0.4698  0.1412  0.0367
32304W        W47773   4.607  12.836   5.621 -0.0614 -0.2330  0.2862
32305W        W47774   4.822   8.306   4.893 -0.1341 -0.1086  0.1879
32306W        W47775   9.178  17.717   3.185  0.0469  0.0499 -0.2363
32307W        W47776  16.811  12.658  15.434  0.2240  0.3047 -0.0705
32308W        W47777   5.029  15.746  13.195  0.0128  0.2205 -0.0497
32309W        W47778   8.251  17.652  14.647  0.0024  0.0886  0.0003
32310W        W47779  14.552  11.018   0.603  0.2890 -0.0776  0.0418
32311W        W47780   1.416  15.684   2.563  0.2123 -0.1811 -0.2023
32312W        W47781   1.264   0.255   2.987 -0.2763  0.0133 -0.1116
32313W        W47782  13.362   9.055  15.166  0.2250  0.0233 -0.1600
32314W        W47783  15.248   0.291  15.322  0.0181  0.2294  0.1015
32315W        W47784  15.424   0.684  11.723 -0.1598  0.1439  0.2577
32316W        W47785   0.498  16.162   0.101  0.2852  0.0754  0.4959
32317W        W47786   1.903   5.883   3.936  0.0854  0.1728 -0.1776
32318W        W47787   9.017  13.938   0.978 -0.3551  0.1530 -0.1806
32319W        W47788   2.793  13.758  12.576 -0.1642 -0.0764  0.1416
32320W        W47789   7.029  18.037  14.444  0.0791 -0.1764  0.2785
32321W        W47790   9.447   3.918  13.120 -0.0032  0.0227 -0.0295
32322W        W47791  16.666  11.015   5.629  0.0543  0.1892 -0.2695
32323W        W47792  17.617   3.032   0.687 -0.1431  0.1032 -0.0068
32324W        W47793  13.702  17.849   1.454 -0.3524  0.0864 -0.2793
32325W        W47794   4.388  11.936   1.547  0.2304  0.3293 -0.0375
32326W        W47795  15.514  11.087   3.989 -0.0117  0.2402 -0.0097
32327W        W47796  13.994   2.471   5.014 -0.1350 -0.0785  0.0526
32328W        W47797  17.728   2.747  12.039  0.0301 -0.1203 -0.2108
32329W        W47798  13.651   4.170  15.165  0.0800  0.2624  0.1998
32330W        W47799   4.579   8.459   5.364  0.2215  0.1727 -0.0900
32331W        W47800  12.357   8.903   4.728 -0.0922  0.0929 -0.2502
32332W        W47801  14.828   8.688   3.355  0.0964  0.0789  0.0016
32333W        W47802   4.478  15.632  12.958 -0.1321 -0.1464 -0.1995
32334W        W47803   4.682  15.678   4.540 -0.0734 -0.4195 -0.1623
32335W        W47804  17.829   3.769  12.363  0.2881  0.0152  0.0506
32336W        W47805  14.881   0.123   4.069 -0.2951 -0.0212 -0.1512
32337W        W47806  17.204  12.653   2.842 -0.1060 -0.0773 -0.0756
32338W        W47807   2.681   6.691  13.007  0.2201  0.1747  0.0083
32339W        W47808  16.961  14.678   0.169  0.1388  0.0863 -0.1459
32340W        W47809   9.763  14.723  15.558 -0.1515 -0.0575  0.0860
32341W        W47810   2.142   7.922  12.321 -0.1768 -0.0949 -0.0579
32342W        W47811   0.506   8.498  14.164 -0.1130 -0.1270  0.2390
32343W        W47812   8.152   4.074  11.051  0.2098  0.0037 -0.1239
32344W        W47813   0.881  15.641   3.198  0.1121  0.0328  0.1943
32345W        W47814  18.487   9.109  11.640 -0.0487  0.0148  0.0717
32346W        W47815  12.169   8.819   1.950 -0.0063  0.1266 -0.2249
32347W        W47816   4.097   7.807   3.876 -0.0436  0.0996  0.1903
32348W        W47817   0.659   9.411  15.673 -0.0465  0.0000  0.1960
32349W        W47818   4.359   3.567  14.352 -0.1014  0.2513 -0.0117
32350W        W47819  10.581   5.478  11.659  0.1524 -0.3024 -0.0112
32351W        W47820   1.106   0.876  11.664 -0.2818  0.0547  0.3063
32352W        W47821   6.873  17.925  15.492 -0.3099 -0.2868 -0.1039
32353W        W47822  15.899   7.463   3.258 -0.0691 -0.2862  0.2162
32354W        W47823   8.163   7.842  14.429 -0.1467  0.1711  0.0143
32355W        W47824  16.171   9.381  14.438 -0.0638  0.3345  0.1463
32356W        W47825   2.253   8.682   0.025  0.2219 -0.2432 -0.0088
32357W        W47826   1.720  14.250   2.541 -0.0884 -0.1776 -0.2622
32358W        W47827  15.491   4.415   3.364 -0.1351 -0.2223 -0.1410
32359W        W47828   6.711   2.621  12.284 -0.1576  0.1252 -0.0208
32360W        W47829   3.599   3.002   0.886 -0.0517 -0.2542 -0.0324
32361W        W47830  12.795   1.847   2.945 -0.3371  0.0340 -0.1609
32362W        W47831   2.417  11.839  15.292  0.3674  0.1955  0.1040
32363W        W47832   0.029  14.835  10.916 -0.0730  0.1648  0.3084
32364W        W47833  11.616  15.060  14.607  0.1048  0.1325 -0.3455
32365W        W47834   4.287  16.797  14.133  0.2909 -0.2429  0.2798
32366W        W47835   8.619   4.637  11.451  0.0312 -0.1542 -0.2236
32367W        W47836   6.222   0.804  13.142  0.3212  0.2604 -0.2376
32368W        W47837   2.837  12.174  12.989 -0.0669  0.0712 -0.0536
32369W        W47838  12.781   8.444  14.157 -0.0389  0.1722 -0.2281
32370W        W47839   4.527  12.391   3.016 -0.2918 -0.0923 -0.0594
32371W        W47840  15.518  14.164  12.266 -0.2076 -0.0442  0.0878
32372W        W47841   5.206   2.655   1.485 -0.1491  0.0676 -0.0946
32373W        W47842   7.954   0.002  15.532 -0.0512  0.2167 -0.0717
32374W        W47843   1.744  10.745   0.120 -0.1814  0.2782  0.1874
32375W        W47844   9.739   3.423  12.861  0.0970  0.1675 -0.3421
32376W        W47845   8.685  11.911  14.560 -0.3972  0.0149  0.1730
32377W        W47846  13.381   4.817   1.747 -0.0570  0.2302 -0.0056
32378W        W47847  17.009  13.136  15.487 -0.2580 -0.2747 -0.1494
32379W        W47848  18.572  14.072  15.554  0.0099  0.3189 -0.1254
32380W        W47849   3.066   0.600   9.978  0.3058 -0.1944  0.2214
32381W        W47850   7.102   6.763   4.824  0.0247  0.0063  0.1505
32382W        W47851   2.612  16.123   9.655  0.1468 -0.1358  0.2120
32383W        W47852  17.582  16.008   2.253 -0.4608  0.3248  0.3025
32384W        W47853  12.471  17.768  15.052 -0.0851 -0.2668 -0.0794
32385W        W47854  14.530   2.788  15.050  0.1746  0.1518 -0.1285
32386W        W47855  14.824  10.019   1.692  0.3066 -0.1432 -0.0586
32387W        W47856  14.804  16.954   3.379  0.0131 -0.1031 -0.0531
32388W        W47857  13.219   8.065   3.565 -0.0089  0.0980 -0.2740
32389W        W47858   0.634   4.141  14.797 -0.1423 -0.0307  0.2514
32390W        W47859   5.802   1.057  11.156 -0.0056  0.0325  0.0744
32391W        W47860   5.323   1.297  14.403 -0.3384  0.1401 -0.0821
32392W        W47861  18.667  17.053   1.299 -0.1630  0.1486 -0.0633
32393W        W47862  12.638   7.706   0.927 -0.2603  0.3970  0.0609
32394W        W47863   1.209   5.800  14.140  0.1562 -0.1655 -0.0707
32395W        W47864   3.565   5.082  15.064  0.5144  0.3090 -0.0104
32396W        W47865   9.365   4.666  14.935  0.1691  0.0945 -0.2533
32397W        W47866   0.047   1.548   4.690  0.1862  0.0768  0.2930
32398W        W47867  14.781  17.467  13.733  0.2358 -0.3000 -0.2043
32399W        W47868  13.643  14.922   1.674 -0.0791 -0.2382  0.1606
32400W        W47869  18.234   6.309  14.398 -0.0473  0.1674 -0.1483
32401W        W47870   0.367   3.567   4.197  0.0069  0.1998  0.1104
32402W        W47871   6.947   6.737   2.967  0.0652 -0.0231 -0.1565
32403W        W47872   5.992   2.142  12.303  0.2541  0.1040 -0.0048
32404W        W47873   5.381   3.799   0.354  0.5790 -0.1825 -0.1611
32405W        W47874   2.549  15.351   4.423  0.0964 -0.0594 -0.1433
32406W        W47875   4.871   8.401  13.796 -0.1780 -0.1596 -0.2073
32407W        W47876  15.527  12.279   1.993 -0.0071  0.2154  0.0504
32408W        W47877   5.757  16.531   0.446 -0.2363  0.0895  0.0349
32409W        W47878   4.371   5.308   2.835 -0.1669 -0.1603  0.1880
32410W        W47879  12.934  17.023   2.778 -0.0372 -0.2334 -0.2140
32411W        W47880  14.955  13.225   0.686 -0.2850  0.1602 -0.0965
32412W        W47881  10.318  18.113  11.244  0.0527 -0.1069  0.0422
32413W        W47882   6.717   6.873   3.396  0.0391  0.1610  0.1562
32414W        W47883   5.568  15.471  13.012 -0.0323  0.0110 -0.0129
32415W        W47884  10.636  11.680  11.215 -0.0349 -0.0333 -0.1903
32416W        W47885  16.211  11.647   2.470 -0.1249  0.3038 -0.1099
32417W        W47886  11.310  12.574   0.379  0.0821 -0.2954  0.0756
32418W        W47887  10.972   1.609  13.852 -0.0897  0.1508  0.1287
32419W        W47888   4.560   0.559  11.047 -0.0864  0.0565 -0.1127
32420W        W47889  10.587   7.436   3.548  0.2960 -0.0290  0.1882
32421W        W47890   3.969   4.961  11.678  0.0011  0.0322  0.0279
32422W        W47891   5.859  18.039  14.103 -0.2319  0.2487  0.3482
32423W        W47892  12.717   1.327   5.553 -0.0624  0.1799 -0.0449
32424W        W47893  14.051  11.681  13.809  0.4438  0.0738  0.2155
32425W        W47894  13.966  11.370  14.958 -0.3263 -0.1099 -0.0671
32426W        W47895   3.705   4.073  15.175 -0.2283  0.0202 -0.4702
32427W        W47896   1.892   6.605   5.872 -0.0191  0.1341 -0.0234
32428W        W47897  16.132   2.709  11.309 -0.0734 -0.1743 -0.0028
32429W        W47898  12.985  11.889  15.425 -0.0145  0.0612  0.1703
32430W        W47899  12.154   6.718  12.252  0.1997 -0.2175  0.1975
32431W        W47900  15.310  13.249  12.009 -0.1382  0.0039  0.0464
32432W        W47901  12.716   9.175   0.986 -0.3918 -0.0169 -0.1057
32433W        W47902  14.861   6.562   0.236  0.1052 -0.0059  0.0129
32434W        W47903  14.713  14.873   1.551  0.0152 -0.0521 -0.3267
32435W        W47904  11.998   8.677  15.137 -0.0244 -0.2336 -0.2417
32436W        W47905   4.582  14.012  14.222 -0.2058  0.0917  0.0929
32437W        W47906  12.999   8.940   3.622 -0.0726  0.2268  0.0201
32438W        W47907   8.638  13.352  13.787  0.0243 -0.1358  0.0959
32439W        W47908   2.454   0.457   1.067 -0.0359 -0.2283  0.0237
32440W        W47909  12.154  14.494   0.031  0.1270 -0.0056 -0.4037
32441W        W47910  17.135   3.437   4.661 -0.0202  0.0003  0.3804
32442W        W47911   3.538   8.533  10.110  0.2892  0.1021  0.2949
32443W        W47912   7.953   3.456  12.467 -0.1139 -0.1738  0.0830
32444W        W47913   5.681   8.994   5.714  0.1865  0.2315  0.2972
32445W        W47914   6.296   6.345  11.218  0.0128 -0.0640  0.2420
32446W        W47915   0.359   8.700  13.010  0.1164  0.0554 -0.0012
32447W        W47916  13.933   3.003  11.152  0.0742  0.3260 -0.2597
32448W        W47917   2.411  16.954  12.885 -0.1384 -0.1566  0.1824
32449W        W47918   9.327  17.674  11.029 -0.1693 -0.0526 -0.1048
32450W        W47919   4.154   5.249   2.343  0.3271  0.1249 -0.2921
32451W        W47920   0.757   5.455  13.080  0.0417 -0.0175  0.0918
32452W        W47921   4.752   5.833  11.773 -0.2160  0.2076  0.0630
32453W        W47922   8.549  11.248   0.868  0.1900 -0.1144 -0.0461
32454W        W47923  10.814  14.998   3.473  0.2668 -0.2928 -0.1867
32455W        W47924  10.288   3.067  13.706 -0.0124  0.0115  0.1234
32456W        W47925   2.382  13.407  12.564  0.3271 -0.1789 -0.0402
32457W        W47926  12.611   7.049  14.988 -0.1630  0.2034 -0.1156
32458W        W47927  10.339   8.491   3.352 -0.0955  0.1835 -0.0908
32459W        W47928   4.265   3.139  14.522  0.0716  0.0046  0.1073
32460W        W47929   4.683  10.891   0.702 -0.2741  0.0312  0.1434
32461W        W47930  10.746  14.247  13.210 -0.3198 -0.0084 -0.0188
32462W        W47931   5.452   3.889   4.129 -0.0150  0.0222 -0.0499
32463W        W47932   0.409   4.148  13.805 -0.0245 -0.3555  0.2882
32464W        W47933   4.366   9.125  11.051  0.2745  0.1015  0.0862
32465W        W47934   0.226   9.234  12.928 -0.1112  0.1008 -0.2381
32466W        W47935   9.876  15.715   2.384  0.3048 -0.1948 -0.6197
32467W        W47936  18.335   7.866  14.787  0.0601 -0.2661  0.1333
32468W        W47937   3.631  14.052  12.922  0.0132 -0.4247 -0.1143
32469W        W47938  12.286   4.078   4.554  0.0673  0.3508 -0.1919
32470W        W47939   5.432   9.924  14.554  0.3176 -0.1126 -0.0041
32471W        W47940  16.919  12.779   3.843  0.2808  0.1491 -0.0451
32472W        W47941   0.704  12.598  15.066 -0.0613 -0.2302 -0.0180
32473W        W47942  14.224   3.775   1.022  0.1056 -0.0450 -0.1476
32474W        W47943   7.213   5.369  11.068  0.0206 -0.1345  0.1410
32475W        W47944  17.599  14.761   6.006  0.2851  0.2231  0.0172
32476W        W47945  12.889  11.440   2.053 -0.0074 -0.0777 -0.1035
32477W        W47946  12.172   2.144  10.526 -0.1548 -0.1176 -0.2482
32478W        W47947   6.119   9.273  11.757  0.1532  0.0790 -0.2324
32479W        W47948  17.027   6.595   0.011 -0.1291 -0.1246 -0.2382
32480W        W47949  12.849   1.545  10.574  0.0513  0.3255 -0.1952
32481W        W47950  16.622  15.065  15.559  0.1301  0.1339 -0.1577
32482W        W47951   6.623   5.078  15.504  0.2859  0.0682 -0.3889
32483W        W47952   0.799   0.160  10.486  0.0010  0.4306 -0.0676
32484W        W47953   3.015  18.567  14.440 -0.1214 -0.0390 -0.1910
32485W        W47954  13.485  13.715  12.377 -0.1707 -0.2900  0.0625
32486W        W47955   8.273  15.369   2.376  0.1544  0.1275  0.0855
32487W        W47956  15.553   5.830  11.009  0.1490 -0.1873  0.2141
32488W        W47957  13.488  12.438  12.936 -0.1705 -0.2326 -0.2102
32489W        W47958   3.688   9.844   2.007 -0.1581  0.2186  0.3906
32490W        W47959   7.700   3.676  14.596  0.0235 -0.3117 -0.2920
32491W        W47960  11.520   1.857  11.360 -0.0793  0.2609  0.0480
32492W        W47961   4.475   9.760   1.003  0.4492  0.0274  0.0392
32493W        W47962   2.292   6.207  11.603  0.2883 -0.0383  0.1876
32494W        W47963  12.770  13.774  13.065 -0.2302 -0.2598 -0.0588
32495W        W47964  16.380  14.126   1.505  0.1071  0.1401  0.0128
32496W        W47965  16.964  18.582  13.236  0.0488 -0.2502  0.0927
32497W        W47966  13.486   8.585   2.357 -0.1614 -0.0872 -0.1698
32498W        W47967  15.267   5.877   3.486  0.3169 -0.1547  0.3418
32499W        W47968   8.078  14.199   5.026 -0.0850 -0.0440  0.2107
32500W        W47969   1.419  14.252  12.680 -0.0109  0.1932  0.0545
32501W        W47970   8.434   7.455  13.478 -0.1065 -0.0146 -0.0691
32502W        W47971  13.322   3.398  14.737 -0.1897  0.1889  0.1552
32503W        W47972  18.418  15.144  13.325  0.1318 -0.2385 -0.0958
32504W        W47973  10.237  17.802   1.730 -0.0050 -0.1519 -0.1194
32505W        W47974   7.732  17.187   3.399  0.2487  0.4077 -0.1343
32506W        W47975   4.849  18.045   0.582  0.2587  0.0252 -0.2033
32507W        W47976  11.445   6.937   3.910 -0.1210  0.0121  0.0732
32508W        W47977  18.459  11.151  12.732 -0.0536 -0.0553 -0.1761
32509W        W47978  15.350  11.773   2.383  0.0766 -0.1318 -0.0494
32510W        W47979   7.792  12.216  14.891 -0.3037  0.3843  0.1308
32511W        W47980  11.239   2.374   3.115 -0.1734  0.3296 -0.2380
32512W        W47981  12.227   5.070   1.102 -0.1981  0.0929 -0.1585
32513W        W47982   3.282  17.474   3.816  0.2132 -0.0396  0.0945
32514W        W47983  15.902   0.120  12.266 -0.0984 -0.1262 -0.1064
32515W        W47984   3.296   1.731  11.569  0.1985 -0.1322  0.0569
32516W        W47985   0.947   6.073   4.982  0.0246  0.1725  0.0317
32517W        W47986  13.742  13.435  15.496 -0.1436  0.3046  0.0640
32518W        W47987   7.283   2.589   1.768  0.0645 -0.4167 -0.0160
32519W        W47988   1.714  11.610   0.580 -0.2047  0.2997  0.3884
32520W        W47989   8.775   9.476  12.225  0.1515 -0.0783 -0.1641
32521W        W47990   1.984   7.754   5.043 -0.1251 -0.0012 -0.2144
32522W        W47991   8.916   3.341   3.103  0.0055 -0.0650  0.1101
32523W        W47992  12.695  11.435   3.599  0.2257 -0.1842 -0.0947
32524W        W47993   7.574  13.600   0.180 -0.2369  0.1690 -0.0247
32525W        W47994  10.181  15.618   3.781 -0.0390 -0.0154 -0.2693
32526W        W47995  17.097  16.226  12.190  0.1884 -0.1572 -0.1381
32527W        W47996  13.991  11.384   6.176 -0.0276 -0.2220  0.1782
32528W        W47997   3.577   0.816  11.412 -0.2544 -0.1494 -0.0285
32529W        W47998  13.398   9.179   5.308 -0.1066  0.2422  0.0486
32530W        W47999  12.214   1.390  11.063  0.3762 -0.0053  0.0380
32531W        W48000   6.876   0.344  10.899  0.0089  0.0786 -0.2034
32532W        W48001   2.069  14.191  14.278 -0.0197 -0.0075  0.0489
32533W        W48002   7.897   3.068  14.534  0.2468 -0.0197 -0.3372
32534W        W48003  13.125  13.945   5.325 -0.0613  0.0129  0.1262
32535W        W48004  18.591  13.963   0.980 -0.2651 -0.0900  0.1197
32536W        W48005  15.652  14.806   5.252 -0.1620 -0.0527  0.0842
32537W        W48006   1.980  14.407   0.145 -0.3253 -0.0454 -0.0130
32538W        W48007   1.607  13.509   3.909  0.1638 -0.0003 -0.0282
32539W        W48008  15.232  14.147   1.857  0.0163 -0.3277 -0.2075
32540W        W48009   1.027   4.596   2.836  0.0525  0.0568 -0.0747
32541W        W48010  12.990   7.948  11.855 -0.1070 -0.0927  0.0297
32542W        W48011  14.703   1.674  13.108 -0.0395 -0.1073 -0.2652
32543W        W48012   8.984   4.076  12.357  0.0567 -0.0833 -0.0587
32544W        W48013   5.305  14.667   4.638  0.0643 -0.0516 -0.0373
32545W        W48014  15.697  18.420   1.461 -0.1151  0.1313  0.2760
32546W        W48015  11.767  15.944   1.534 -0.1960 -0.3224 -0.3204
32547W        W48016  13.903  18.673  14.827 -0.1099 -0.2197 -0.0085
32548W        W48017   7.458   3.437   1.482  0.0494  0.0366  0.0208
32549W        W48018   8.891  14.520  15.401 -0.2303  0.2912  0.1164
32550W        W48019  10.539  14.191   0.005  0.3154  0.0907 -0.1415
32551W        W48020   5.476  17.441  13.723  0.0079 -0.0105 -0.1285
32552W        W48021  13.187   9.191  12.436 -0.1614  0.1688  0.1996
32553W        W48022   4.904  16.946  13.794  0.3859 -0.1971  0.0104
32554W        W48023  17.002  17.814   4.725  0.1753 -0.0541  0.3103
32555W        W48024   1.496  17.372  15.391  0.4824  0.0839 -0.1560
32556W        W48025   3.312  13.463   2.808 -0.1578 -0.0256  0.1872
32557W        W48026   8.068   4.197   3.870  0.2399 -0.0078 -0.0064
32558W        W48027  13.239  17.412   5.792  0.1107  0.0297 -0.0956
32559W        W48028   2.396  11.192   1.305 -0.0318  0.2928 -0.3091
32560W        W48029  18.307   9.752   3.569 -0.0947 -0.0153  0.0095
32561W        W48030   6.932  14.308   0.085  0.0064  0.0912 -0.0440
32562W        W48031   3.347  14.001  11.915 -0.1619  0.2245 -0.2381
32563W        W48032   9.897   4.549  10.392 -0.1458 -0.1820 -0.0475
32564W        W48033   1.486   4.904  13.720  0.0318 -0.0630  0.2919
32565W        W48034   6.501   4.017  15.739  0.0055  0.1953 -0.0967
32566W        W48035   8.526   4.929   1.055 -0.0225  0.1486 -0.1862
32567W        W48036  11.866   4.430  14.077  0.1012 -0.0798  0.1661
32568W        W48037  13.031  14.860   3.210  0.3995 -0.4489  0.1555
32569W        W48038  14.559   9.439   0.349 -0.0260  0.2134  0.2039
32570W        W48039   0.823   1.444   2.074 -0.0551  0.3465  0.1800
32571W        W48040   9.651  12.819   0.346 -0.3240 -0.1289 -0.0328
32572W        W48041   0.818  13.609  12.159  0.0503  0.0705 -0.0811
32573W        W48042  15.603   1.572  12.159 -0.2653  0.0531  0.0878
32574W        W48043  16.230  10.692  14.054 -0.0286  0.0045  0.1383
32575W        W48044  16.565  14.026   2.491 -0.0760 -0.0045  0.0158
32576W        W48045   8.363  16.732   4.508 -0.1685  0.2145 -0.3144
32577W        W48046  12.284   5.650   4.987  0.0242 -0.0311 -0.2101
32578W        W48047  12.749  14.736   2.742  0.0833  0.2172  0.0100
32579W        W48048   9.461   9.990  13.514  0.1053 -0.1402  0.2267
32580W        W48049  12.367   4.804   1.604  0.1415 -0.0831 -0.1958
32581W        W48050   1.949  10.524   4.623  0.1112  0.0698  0.0449
32582W        W48051   6.015  10.078  12.295 -0.0077 -0.0362  0.2285
32583W        W48052   2.630   7.939  15.208 -0.2074 -0.0420 -0.0629
32584W        W48053  15.131   9.944  12.176 -0.0702 -0.0064  0.1377
32585W        W48054   9.204  14.948   2.694 -0.1904  0.1459 -0.2846
32586W        W48055  10.883  11.249  13.178  0.1250  0.0108 -0.0715
32587W        W48056   8.425  13.709   0.682  0.1743 -0.0590 -0.3378
32588W        W48057  12.484  10.742   2.521  0.0959 -0.0071 -0.0443
32589W        W48058   1.981   7.717   2.383  0.1913 -0.1465  0.1631
32590W        W48059   8.732   7.626   2.658 -0.4073  0.2650  0.1731
32591W        W48060   2.384   4.235  11.151 -0.0202 -0.0729 -0.1099
32592W        W48061  18.565   2.755   4.654 -0.0526  0.3268  0.0433
32593W        W48062   8.342  13.890  14.224  0.2352  0.1633  0.3749
32594W        W48063   0.562  16.843  14.453  0.0881 -0.1617  0.1138
32595W        W48064  10.181   5.622   9.771 -0.0338  0.2274  0.1842
32596W        W48065  13.467  11.353  11.591 -0.0177 -0.0080 -0.0350
32597W        W48066  16.731  12.050  10.011  0.2477 -0.1200  0.3109
32598W        W48067   9.101   2.225  13.616  0.0492 -0.1056  0.1970
32599W        W48068  10.253   9.744   1.444 -0.1750 -0.0271 -0.0884
32600W        W48069   1.674  11.617  12.419 -0.3990  0.5005  0.1158
32601W        W48070  14.190   6.402   3.067  0.2990 -0.0822  0.0679
32602W        W48071   4.504   9.481  11.361  0.1846  0.1712 -0.0306
32603W        W48072   6.812   4.927  14.542 -0.6509 -0.0450  0.2787
32604W        W48073   4.649   8.292   1.585  0.1941  0.0799 -0.0664
32605W        W48074   8.208  17.315   4.361  0.1606 -0.0099  0.0535
32606W        W48075  18.183   9.694   3.082  0.0122  0.0317  0.1289
32607W        W48076   5.928  17.379  11.412  0.2381 -0.5648 -0.2406
32608W        W48077  16.402   6.752  12.426 -0.1480  0.0111  0.1636
32609W        W48078  10.882  11.292   4.086 -0.2098 -0.0679  0.2257
32610W        W48079  13.363  17.831  14.548  0.1830  0.4953 -0.2730
32611W        W48080   3.745  17.040  15.664  0.0715  0.0773 -0.0626
32612W        W48081   4.661  14.136   5.430  0.3504  0.1161 -0.0701
32613W        W48082  15.854  17.106  13.297 -0.2500 -0.1000  0.2221
32614W        W48083   7.477   7.224   4.837 -0.3297 -0.1238 -0.5830
32615W        W48084   2.529   6.363   1.970  0.0273 -0.0606  0.0425
32616W        W48085   9.446   2.736   3.491 -0.1393 -0.0533 -0.1398
32617W        W48086   6.102   1.269  11.823 -0.0713 -0.0419 -0.1088
32618W        W48087  10.749  18.541   5.818 -0.1858 -0.0060 -0.0607
32619W        W48088   0.251   9.299   5.252  0.2801 -0.3760  0.0599
32620W        W48089   5.254  13.845  13.037  0.1209 -0.0874 -0.1526
32621W        W48090   1.734   3.977   4.669  0.0820  0.1189  0.0266
32622W        W48091   9.213   7.704  12.749  0.0084  0.0056 -0.4257
32623W        W48092   4.017   2.509   3.483  0.0415 -0.0004 -0.1435
32624W        W48093   4.687  11.963   4.916  0.1728  0.2542 -0.1643
32625W        W48094   9.421   3.371  13.904 -0.3516 -0.0137 -0.2957
32626W        W48095   6.224  14.961  13.464  0.1618  0.2052  0.1547
32627W        W48096  12.560  15.867   0.727 -0.0337 -0.0106 -0.0888
32628W        W48097   3.979  15.303  14.523 -0.0920  0.1288 -0.0634
32629W        W48098  10.581   4.271  13.863  0.0066 -0.0503 -0.1375
32630W        W48099  12.037   8.579  13.467 -0.0273 -0.0406  0.0011
32631W        W48100  14.252  10.659   1.380  0.1120 -0.1800 -0.1360
32632W        W48101   2.464  17.896   0.849  0.1715 -0.0044  0.2075
32633W        W48102   7.544   1.880  15.541 -0.2264  0.0423  0.0369
32634W        W48103  14.329   9.953   1.596  0.2367  0.0750 -0.1616
32635W        W48104  18.550   7.968   5.697  0.1824 -0.0160 -0.0447
32636W        W48105   2.992  14.900  11.489 -0.1978 -0.0420  0.0056
32637W        W48106   7.118   9.073  13.913  0.0392 -0.2014  0.2240
32638W        W48107  17.395  10.851   2.504 -0.1943  0.0020  0.0604
32639W        W48108   5.489   7.439  14.432  0.1200  0.0660 -0.3454
32640W        W48109   3.724  17.423  11.534 -0.1910  0.0688 -0.1744
32641W        W48110   8.579   2.127  12.709 -0.2679  0.2198 -0.0363
32642W        W48111   6.832   4.989  13.065  0.0438  0.0572  0.0209
32643W        W48112  13.668   9.502   3.588  0.1797 -0.0119  0.0893
32644W        W48113  11.718   2.649  13.061  0.1454 -0.0413 -0.2441
32645W        W48114  15.662   8.603  14.610  0.1344  0.0874 -0.0620
32646W        W48115   4.221   0.507   0.823  0.0886 -0.0295  0.0396
32647W        W48116  12.853   3.331   3.754 -0.2043  0.1324 -0.2312
32648W        W48117  11.256   7.894  12.701 -0.1675 -0.1785  0.1607
32649W        W48118   8.189   3.100   0.796 -0.0085 -0.0701  0.0701
32650W        W48119  15.821  17.221  12.295  0.0878 -0.0614  0.0237
32651W        W48120   3.339   5.230  11.190  0.0360  0.0448  0.1691
32652W        W48121   1.069   8.672  13.593 -0.0850  0.2070 -0.1790
32653W        W48122   9.201  15.900  11.212  0.0081  0.0625 -0.5160
32654W        W48123  13.236  17.947   3.695 -0.2115 -0.4463 -0.0403
32655W        W48124  18.462  14.111   3.119 -0.2170  0.0141 -0.0838
32656W        W48125   2.369  15.177   2.729  0.2755 -0.6413  0.1963
32657W        W48126  18.594  15.370   3.149  0.2055  0.0050 -0.0518
32658W        W48127   2.423   9.849   2.651 -0.2460 -0.1386 -0.1060
32659W        W48128   4.155   6.889   1.424  0.4547 -0.0899  0.3212
32660W        W48129  18.045   8.924   4.410  0.0816 -0.0894 -0.2502
32661W        W48130   0.222   7.759  10.919  0.0140  0.0751  0.1926
32662W        W48131   2.162   5.808   3.468 -0.0800  0.4241 -0.1331
32663W        W48132  10.486  14.502  12.839  0.2237 -0.0848 -0.0645
32664W        W48133   6.084  10.301   0.829 -0.0568  0.1717  0.0059
32665W        W48134   6.963   7.250   4.776 -0.0559 -0.0501 -0.0514
32666W        W48135  17.179   7.771   9.669  0.2179  0.3308  0.3077
32667W        W48136   9.619  12.598   2.186 -0.3486 -0.0121 -0.0095
32668W        W48137  16.333  11.641  11.818 -0.0556  0.3193 -0.3672
32669W        W48138   0.259   5.259  14.635  0.4090  0.2324  0.0052
32670W        W48139   0.436   6.877   0.539 -0.2673 -0.1044 -0.1864
32671W        W48140   4.727  13.850   3.252 -0.1074 -0.0222 -0.0937
32672W        W48141   2.142  10.456  14.047  0.0541 -0.2507 -0.0774
32673W        W48142   8.703   8.553   2.729  0.2613 -0.1393  0.0203
32674W        W48143   0.690  13.761  10.827  0.1978 -0.3271 -0.1304
32675W        W48144   2.102   4.623  11.272 -0.0764  0.1486 -0.0440
32676W        W48145  11.453   4.382  12.410  0.2485  0.0135  0.1243
32677W        W48146  15.625   0.064   1.798  0.2653  0.0557  0.0689
32678W        W48147  12.650   2.817   1.505  0.2600  0.1657  0.0855
32679W        W48148  16.659  15.750   0.499  0.0082  0.3505  0.0114
32680W        W48149   4.521  13.720   0.367 -0.2239 -0.2606 -0.1159
32681W        W48150  13.350   5.423   2.754 -0.1547  0.2214 -0.0696
32682W        W48151   6.294   0.790   1.848 -0.2657  0.3401 -0.0438
32683W        W48152  16.090   2.241   0.592  0.0501  0.0531 -0.2198
32684W        W48153  17.190   4.829  14.485 -0.1131 -0.0926 -0.3084
32685W        W48154   1.113  10.478  13.706 -0.1314 -0.3256  0.0976
32686W        W48155  12.358  17.435  12.157 -0.1287  0.0411  0.0629
32687W        W48156  17.665   1.686  15.742  0.1556 -0.0259 -0.2401
32688W        W48157  17.345  17.231   4.766  0.1109 -0.1817  0.2380
32689W        W48158  18.092  16.945   0.203 -0.0340 -0.3276 -0.0992
32690W        W48159  14.761   5.323  14.061  0.2424  0.1347  0.1323
32691W        W48160   5.502   0.320  14.234 -0.1152  0.1886 -0.1251
32692W        W48161   0.784   6.551  11.336 -0.2293 -0.1073 -0.0307
32693W        W48162  11.738   3.401  11.435  0.1573  0.3558 -0.0149
32694W        W48163  15.460  10.541   5.024 -0.0292  0.0166 -0.1182
32695W        W48164   6.124  11.694  10.124 -0.1405  0.2971 -0.1656
32696W        W48165  14.947   8.024   2.724 -0.2743 -0.4001  0.0275
32697W        W48166   5.374   0.621   3.297 -0.3544 -0.0108 -0.0184
32698W        W48167  15.607  10.309   3.658 -0.0828  0.0614 -0.2089
32699W        W48168   6.808   3.898  11.643 -0.0395 -0.2324 -0.3121
32700W        W48169   1.237   7.512  11.057  0.1602 -0.0375 -0.3016
32701W        W48170  17.430   5.278   4.027  0.0366 -0.0942 -0.0367
32702W        W48171   3.603  11.852   1.004  0.1996  0.1808 -0.4085
32703W        W48172  14.464  17.867   5.755  0.1998  0.2332  0.2863
32704W        W48173   4.179  12.707  14.149 -0.1129  0.0555 -0.1915
32705W        W48174   8.836  16.155   1.734  0.0859 -0.0151  0.2400
32706W        W48175   8.799   6.929   1.368 -0.0265 -0.0071 -0.1150
32707W        W48176   9.583   3.315   1.866  0.1322 -0.1770  0.1784
32708W        W48177   3.600   2.962   2.954 -0.2191 -0.2933 -0.2050
32709W        W48178  11.747   0.218  11.305 -0.1004 -0.0076  0.3525
32710W        W48179  16.594  10.169  10.145 -0.3479  0.3703  0.0994
32711W        W48180  14.954  12.980   2.350 -0.3550 -0.0861  0.0058
32712W        W48181   7.709  11.184   1.066  0.0349  0.2071 -0.3085
32713W        W48182   8.645   3.606  13.787  0.0949 -0.3662 -0.3335
32714W        W48183  12.339  17.667  12.646 -0.1954 -0.3558  0.1939
32715W        W48184  18.457  11.048  14.128 -0.1339  0.0469  0.1967
32716W        W48185  14.349  16.528   3.332 -0.1242 -0.0407 -0.1762
32717W        W48186   6.910  15.038   3.920  0.1615 -0.0574 -0.0631
32718W        W48187  15.964  13.353   3.256  0.3020  0.1159 -0.0189
32719W        W48188  15.781  13.275   2.390  0.1595  0.1624  0.0655
32720W        W48189   9.021   7.272  12.985  0.1028 -0.1370  0.2189
32721W        W48190   7.386  13.970   2.258  0.1243  0.2035 -0.2092
32722W        W48191  15.089  13.117  10.806 -0.2636 -0.2353 -0.2453
32723W        W48192  15.827   4.572   4.271  0.0265  0.0575  0.0486
32724W        W48193  18.119  18.089   0.969 -0.1162  0.1779  0.1578
32725W        W48194   9.449  15.727   2.099  0.2062  0.0544  0.2251
32726W        W48195   0.073   7.386   2.557 -0.1689  0.2888  0.0383
32727W        W48196   2.892   4.704   2.964  0.0629  0.0501  0.0232
32728W        W48197   6.973   8.139   1.746 -0.0899  0.0800  0.0229
32729W        W48198   1.369   1.555  10.473 -0.2264 -0.1028  0.1867
32730W        W48199   2.728   0.770   1.996  0.0650 -0.4997 -0.0511
32731W        W48200   3.347  11.391   0.849  0.1907 -0.0858 -0.0511
32732W        W48201  17.152  17.719  13.396  0.1044 -0.1230 -0.2421
32733W        W48202   6.154  10.727  14.487 -0.0309 -0.1043  0.1830
32734W        W48203  13.669   4.986  10.227 -0.1011  0.0958  0.1239
32735W        W48204  16.102  10.416   4.607 -0.4843 -0.0517 -0.0335
32736W        W48205   7.811   7.717  12.604 -0.0425 -0.0620  0.0586
32737W        W48206  10.374  13.258   5.341 -0.2146  0.0481 -0.2163
32738W        W48207  15.653   3.093  14.634  0.4980 -0.3904 -0.0005
32739W        W48208  10.740   0.638   4.180 -0.2809  0.0293  0.2846
32740W        W48209   8.133  14.016  11.436  0.0667 -0.0319  0.0414
32741W        W48210   6.235  13.425  13.357  0.0487  0.0003 -0.1808
32742W        W48211  13.972  13.195   0.125 -0.2203 -0.0984  0.1555
32743W        W48212  16.151  18.090   5.195  0.0945  0.0624  0.3729
32744W        W48213   2.991  13.654  15.610  0.0682  0.3293  0.2211
32745W        W48214  18.204   3.146  11.216  0.0220  0.0203  0.0604
32746W        W48215  18.182   0.785  10.499  0.1737  0.1375 -0.2717
32747W        W48216  15.535   0.878  10.760  0.1228 -0.1541  0.2097
32748W        W48217   4.123   3.461   3.634  0.0104  0.0770 -0.0282
32749W        W48218  18.598   0.801  11.869  0.2422 -0.1468  0.0081
32750W        W48219  16.978   6.412  14.108 -0.0486  0.1387  0.2882
32751W        W48220  16.875   7.415   2.914  0.0570  0.1112  0.1890
32752W        W48221  16.699   0.536   4.776 -0.1265  0.0265  0.0440
32753W        W48222   2.940  13.420   0.286 -0.2084 -0.2523  0.0102
32754W        W48223  15.549   4.094  13.525 -0.0015  0.1299 -0.0084
32755W        W48224   0.658   8.590  11.842  0.0461 -0.1732 -0.1209
32756W        W48225  18.508   2.121   0.344 -0.2625  0.0570 -0.0083
32757W        W48226  10.332  10.832   0.627  0.0845  0.0272  0.4085
32758W        W48227   4.643  16.319   1.081  0.0529 -0.3348  0.1103
32759W        W48228   4.626   3.511   3.440 -0.0503 -0.0230 -0.2188
32760W        W48229  11.321  15.822   3.101 -0.0006  0.2502 -0.0084
32761W        W48230  15.466   8.371   2.827  0.1530  0.2464 -0.2774
32762W        W48231  14.455   0.849  11.859 -0.0621 -0.0313 -0.2879
32763W        W48232   8.218   4.274   4.472  0.1509 -0.2340 -0.0819
32764W        W48233  13.743  10.906   3.078 -0.1968 -0.1185  0.2714
32765W        W48234   9.010   7.827   0.879  0.2343  0.2126  0.0339
32766W        W48235   2.754   3.470  15.110  0.0133 -0.0706 -0.0981
32767W        W48236  13.234   1.017  11.849 -0.1138 -0.1294 -0.2876
32768W        W48237   8.292  11.078  12.151 -0.0141 -0.0146  0.0272
32769W        W48238  10.310  12.541  13.043  0.0876  0.2905  0.2241
32770W        W48239   8.304   3.424   0.287  0.2564  0.0861 -0.2603
32771W        W48240   4.048   0.144   0.388 -0.1375  0.0827 -0.1978
32772W        W48241  17.786   1.097   3.238 -0.0865 -0.2691  0.0697
32773W        W48242  13.997   6.377   5.587  0.1494 -0.1415 -0.3397
32774W        W48243  17.894  17.256   3.255  0.0413  0.2092 -0.1682
32775W        W48244   3.746   3.754   1.601  0.1247 -0.2969  0.2328
32776W        W48245   4.067   1.818   3.561  0.0728  0.0632  0.2440
32777W        W48246  18.230  11.334  15.369 -0.4842 -0.0038 -0.2185
32778W        W48247   9.523   2.118   0.353 -0.0331  0.1331  0.1608
32779W        W48248   3.020  14.752  14.661  0.1240 -0.1397 -0.1660
32780W        W48249   7.960  18.044   1.153 -0.1224  0.0414  0.3834
32781W        W48250   3.949   1.317  12.131  0.1057 -0.0368  0.3204
32782W        W48251  17.459   7.859  14.512 -0.0560  0.0645  0.3038
32783W        W48252  13.945  12.339  15.644 -0.1049 -0.5326  0.0099
32784W        W48253   2.871  14.556   5.542  0.1533  0.1038  0.2232
32785W        W48254  17.893  15.043  11.035 -0.1600  0.0279 -0.0776
32786W        W48255   3.323   7.737  14.426 -0.0092  0.0730 -0.3045
32787W        W48256   6.223   2.312   4.663 -0.0369 -0.2318 -0.0864
32788W        W48257   6.512   0.069   4.625  0.0295  0.0083 -0.0480
32789W        W48258  18.503  13.455   3.366  0.2709 -0.0261  0.0649
32790W        W48259  13.685  18.473  11.913 -0.1780  0.0323 -0.1433
32791W        W48260   6.425   9.249  14.883 -0.0670  0.0600 -0.2653
32792W        W48261  10.453  10.396   0.811  0.0685  0.2272 -0.0109
32793W        W48262   9.467   3.098  10.362 -0.0184 -0.0805  0.0497
32794W        W48263  11.788   1.125  11.794  0.2619 -0.0013  0.1600
32795W        W48264  10.665  14.424  13.661 -0.2633  0.2561 -0.1587
32796W        W48265  15.451   4.147   4.707  0.2932  0.2755 -0.1688
32797W        W48266  15.712   3.853   3.950  0.2028  0.3911  0.0780
32798W        W48267  13.027   7.101  13.337  0.3715 -0.0348  0.2114
32799W        W48268  15.323  17.081  11.129 -0.4725 -0.2340 -0.0980
32800W        W48269  14.284   8.279   4.652  0.2648  0.1195 -0.0486
32801W        W48270   1.539   3.050  11.419  0.2343  0.0622  0.3368
32802W        W48271  11.337   3.724   4.560  0.1553 -0.2999  0.2180
32803W        W48272   6.208   4.481   0.915  0.1150  0.0828  0.0973
32804W        W48273  16.790   4.186  14.822  0.1330  0.0535  0.2211
32805W        W48274  18.134   2.285  13.262  0.1435 -0.1805  0.1444
32806W        W48275   4.926   9.643  13.823  0.0539  0.0757 -0.0067
32807W        W48276   2.198  15.248  12.124 -0.1317  0.1690 -0.1652
32808W        W48277   1.198   0.163   0.800  0.2397 -0.2657  0.1567
32809W        W48278   7.065   7.477  15.724  0.0873  0.1020  0.1540
32810W        W48279  11.698  11.109  13.700  0.2371 -0.2339 -0.0531
32811W        W48280   4.472   3.190   5.209  0.0154  0.6075 -0.1796
32812W        W48281  17.103  11.740   0.281  0.1197 -0.1843 -0.0287
32813W        W48282  14.007  14.854   4.186  0.2178  0.1825  0.0657
32814W        W48283  15.496   8.016   0.138  0.1857  0.2280  0.0074
32815W        W48284   8.701   7.318  11.602 -0.0434 -0.0009  0.0047
32816W        W48285   8.817   8.932  12.181 -0.1459  0.1168  0.2186
32817W        W48286   3.049  15.784  10.904 -0.4827  0.1183  0.0736
32818W        W48287   6.561  16.842   5.728 -0.0294 -0.1939  0.2544
32819W        W48288  15.684  15.435   2.566 -0.3467  0.0407 -0.0649
32820W        W48289  17.502   8.973  13.829 -0.0054  0.1698 -0.0742
32821W        W48290  10.957   2.891   1.838  0.1719  0.0260 -0.1181
32822W        W48291   1.088  17.386  11.855 -0.2696 -0.2204  0.2550
32823W        W48292   3.927   4.818   1.265  0.0536 -0.0332 -0.1609
32824W        W48293   3.739   8.997  11.524 -0.1260 -0.2918 -0.1464
32825W        W48294   4.531   6.112   2.556  0.0835  0.0869  0.1511
32826W        W48295   8.874  10.137  14.421 -0.2450  0.2029 -0.0617
32827W        W48296  18.315   6.111  11.757 -0.2151 -0.0953 -0.2793
32828W        W48297  10.219   1.720   0.805 -0.0090 -0.0047 -0.1010
32829W        W48298   7.703  10.758  12.088 -0.1588  0.0909 -0.1749
32830W        W48299   6.617  13.772  14.848  0.1522  0.1992  0.1628
32831W        W48300  12.971   6.339   1.910  0.1419  0.0094 -0.1803
32832W        W48301   5.219   1.420  15.698 -0.0393  0.1246  0.0051
32833W        W48302   9.996   2.429   5.815  0.0862 -0.0234 -0.1973
32834W        W48303  17.428   9.741   2.597 -0.0259 -0.3261  0.1922
32835W        W48304   1.806   3.111  12.740  0.1393  0.0502 -0.2736
32836W        W48305   9.975  12.366   3.575 -0.0410  0.2240 -0.0786
32837W        W48306   7.652  17.244  14.436 -0.0003 -0.3565  0.0288
32838W        W48307   4.896   4.523  11.678 -0.2004  0.0690 -0.0793
32839W        W48308  18.033  10.294   1.888 -0.4389  0.2842 -0.1361
32840W        W48309   7.898  11.197  12.925  0.1591  0.0257 -0.2295
32841W        W48310   7.076  15.955   3.493 -0.0175 -0.3929 -0.1498
32842W        W48311   6.346  14.896  12.458  0.0988 -0.3968 -0.1206
32843W        W48312  16.217   4.711  10.681  0.1437  0.1453 -0.1072
32844W        W48313   9.265  11.604   4.281 -0.1991 -0.1179 -0.1094
32845W        W48314   8.232  11.558   5.666 -0.2720  0.1003  0.1945
32846W        W48315  12.995  17.911   2.441  0.2266  0.1055 -0.2585
32847W        W48316  17.929   1.377   3.597 -0.0425 -0.2714  0.1336
32848W        W48317  17.704   4.178  12.639  0.0841  0.0766  0.0857
32849W        W48318   5.830  13.004   5.708  0.1595 -0.0843 -0.2214
32850W        W48319   4.556  12.822  14.971  0.0135  0.1025  0.1426
32851W        W48320   0.597   2.726   0.623 -0.1663 -0.1095 -0.0071
32852W        W48321  14.539  14.874   3.988 -0.1305  0.0476  0.2425
32853W        W48322  13.825  10.369  13.396 -0.3416  0.3123 -0.0121
32854W        W48323  17.435  15.928   1.493 -0.1328 -0.0006  0.1732
32855W        W48324   5.839   3.060  12.799  0.2333  0.1180  0.0388
32856W        W48325   1.176  15.768  14.183  0.1096  0.2022  0.3039
32857W        W48326  17.209  18.100  13.817 -0.3528  0.4006 -0.0519
32858W        W48327  13.622   3.924  10.719 -0.1350 -0.1252 -0.2480
32859W        W48328   7.360  13.107  10.565 -0.1059  0.1458 -0.2926
32860W        W48329   6.480  14.331  11.972 -0.2900  0.0221  0.0860
32861W        W48330  16.684   1.284  14.531  0.0622  0.1429 -0.1208
32862W        W48331   4.075   0.319  12.961 -0.0890 -0.1601  0.1394
32863W        W48332  17.690  15.775   0.548 -0.4067 -0.0875 -0.1008
32864W        W48333   7.105   3.432  11.731  0.0002  0.1190  0.1612
32865W        W48334   1.831   4.383   1.528 -0.1429 -0.2068 -0.1389
32866W        W48335   2.101   8.459   3.990 -0.0827 -0.1341  0.1367
32867W        W48336   3.750  16.794   2.011 -0.0304  0.2056  0.1966
32868W        W48337   3.135   7.884  11.883  0.0401  0.3307 -0.1991
32869W        W48338  14.790  14.686  15.200  0.0273  0.2390  0.2955
32870W        W48339   0.655   4.976   4.110  0.2062  0.1119  0.0009
32871W        W48340  15.332  16.482  14.763  0.0986 -0.5849  0.1725
32872W        W48341  14.184  11.324  14.290  0.3244 -0.2796 -0.0014
32873W        W48342  12.241  14.573  10.568  0.1195 -0.0640 -0.1717
32874W        W48343  17.226   3.913  14.104 -0.0920 -0.0216  0.1547
32875W        W48344  15.342   8.564  10.928  0.4418  0.0270 -0.1937
32876W        W48345  11.890   6.092   1.149 -0.0570  0.3055 -0.0554
32877W        W48346   5.612  12.059  15.572  0.1748  0.1692 -0.1091
32878W        W48347   5.135   2.836  10.211 -0.1132 -0.0768 -0.1052
32879W        W48348   3.382  14.050   3.550 -0.2082  0.0197  0.0536
32880W        W48349   5.044   6.425  12.270  0.1363 -0.1355 -0.5811
32881W        W48350  15.742  16.461  13.267 -0.0064 -0.0805  0.0830
32882W        W48351   3.191   0.809  11.947 -0.0023 -0.1594 -0.1617
32883W        W48352   2.121   0.927  15.534 -0.0030  0.1652  0.0568
32884W        W48353   7.233   6.344  10.811  0.0253 -0.2025 -0.1916
32885W        W48354   3.815   5.669   0.655  0.1489 -0.0984  0.0883
32886W        W48355   2.162   9.472   3.003  0.1820 -0.0536  0.0074
32887W        W48356   5.029   2.227   2.664  0.0324 -0.1583 -0.0545
32888W        W48357   2.374   8.763  15.282 -0.3158  0.1238  0.1626
32889W        W48358   5.918   2.545   0.018  0.2162  0.2229 -0.5316
32890W        W48359   5.439   6.358   1.679  0.0948  0.1299  0.0992
32891W        W48360  15.123   2.316   2.590 -0.1285 -0.1325  0.0377
32892W        W48361  13.455  13.277   4.997  0.1157  0.2604  0.2562
32893W        W48362   4.310  12.654  11.633 -0.1037 -0.2074 -0.3366
32894W        W48363  17.158   6.176   4.080  0.0848  0.2811  0.0501
32895W        W48364  10.847  17.050  14.229 -0.3927  0.0428 -0.1706
32896W        W48365  17.293   2.018  15.687  0.1539  0.0763 -0.2898
32897W        W48366  13.593  14.883  15.269  0.7388 -0.0773 -0.1169
32898W        W48367   9.023   7.394   1.168 -0.1298  0.1631  0.0533
32899W        W48368   5.860  10.538  12.054 -0.0208  0.0047  0.1080
32900ION     NA48369   7.928   8.692   3.979 -0.0799 -0.4844 -0.3184
32901ION     NA48370  18.143  11.955  10.116 -0.1094 -0.2467 -0.1324
32902ION     NA48371  17.504  15.714  10.065  0.0823 -0.2477 -0.1249
32903ION     NA48372  14.399   8.388   9.747 -0.0343  0.5386 -0.1709
32904ION     NA48373  18.064  15.757   5.649 -0.1053  0.2835 -0.0537
32905ION     NA48374   6.842   4.298   9.943  0.0056 -0.0541  0.0510
32906ION     NA48375   6.415   0.174   9.705  0.0733  0.1248 -0.0076
32907ION     NA48376  11.651  18.222   9.954 -0.0779  0.1189 -0.1287
32908ION     NA48377   2.465  10.477  13.052 -0.0049  0.2806 -0.1077
32909ION     NA48378  10.529   0.638  10.175  0.2334  0.0809 -0.0358
32910ION     NA48379   1.665  13.438  11.128 -0.1947  0.0273 -0.0615
32911ION     NA48380  17.447   9.072   5.671 -0.1315 -0.0662  0.0174
32912ION     NA48381   0.934   5.545   0.123  0.0628  0.2502  0.0145
32913ION     NA48382   9.836  16.074  15.227  0.0505 -0.0032 -0.0357
32914ION     NA48383   1.807   3.926   9.588 -0.1212  0.0254 -0.0099
32915ION     NA48384  16.496  15.781  11.758  0.0571  0.3054  0.2374
32916ION     NA48385  12.958  11.725   5.273 -0.0210  0.1639 -0.0883
32917ION     NA48386   1.576  15.958   5.655  0.1318  0.1440  0.3910
32918ION     NA48387  14.472  15.982   9.968 -0.0307 -0.2462  0.0055
32919ION     NA48388  16.290  10.827  13.131  0.0806  0.0227 -0.0413
32920ION     NA48389  16.385  17.591  14.175  0.1862 -0.4665 -0.2052
32921ION     NA48390  13.435   7.671  10.289 -0.0833 -0.1567 -0.1171
32922ION     NA48391  17.421   6.643  14.211  0.3108  0.0538 -0.0598
32923ION     NA48392  10.325  14.066  10.210 -0.1970 -0.0800  0.0232
32924ION     NA48393   0.634   0.151  11.537 -0.0096 -0.1373 -0.1903
32925ION     NA48394   2.436  15.236  10.320 -0.3066 -0.1833  0.1532
32926ION     NA48395   5.993  10.857  10.542  0.2045  0.2123 -0.0461
32927ION     NA48396   8.348   7.295   5.906 -0.3785 -0.0676  0.0638
32928ION     NA48397  11.243  11.700  10.104  0.3302 -0.0340  0.0921
32929ION     NA48398   6.989   5.722   0.471  0.0090 -0.1113 -0.3089
32930ION     NA48399   5.724  11.226  10.684  0.1469  0.0482 -0.2420
32931ION     NA48400  14.035   2.111   9.996 -0.0213  0.1131 -0.3079
32932ION     NA48401  10.741  18.553  10.076  0.1753  0.1857 -0.4404
32933ION     NA48402   3.044  13.823  10.104  0.1255 -0.0807 -0.1000
32934ION     NA48403  12.092   1.859   9.978 -0.1443 -0.2235  0.1376
32935ION     NA48404  17.947  15.083   9.968 -0.0093  0.0500  0.2810
32936ION     NA48405   5.334  17.410  10.091 -0.0617 -0.2344  0.0460
32937ION     NA48406  14.097  11.910  14.231  0.0225 -0.2923 -0.0735
32938ION     NA48407   9.200   8.462  15.250  0.0218 -0.0238  0.1958
32939ION     NA48408   1.930  16.861   5.554  0.1479  0.1600  0.3487
32940ION     NA48409   3.439   3.150   9.591 -0.1096  0.2426 -0.0979
32941ION     NA48410  17.874   2.557  15.021  0.1575 -0.1221 -0.2655
32942ION     NA48411  13.829   1.091   9.717 -0.2447 -0.0830 -0.2224
32943ION     NA48412  15.716  12.017   9.902 -0.4047 -0.3740  0.1603
32944ION     NA48413   0.952   4.320   5.170 -0.1397  0.1937 -0.1028
32945ION     NA48414   6.044   3.172   9.827 -0.0007  0.1535  0.0380
32946ION     NA48415  14.736  13.154   9.983 -0.0565  0.2185  0.0800
32947ION     NA48416  17.164  16.612   9.735 -0.0172 -0.1502 -0.0394
32948ION     NA48417  15.231  14.102  12.732  0.5090 -0.0338 -0.0732
32949ION     NA48418   0.489  13.667   5.623  0.0806  0.0234 -0.1120
32950ION     NA48419  13.540   3.598   5.347 -0.1149 -0.2078  0.0872
32951ION     NA48420  10.616  16.319   9.902 -0.1200  0.0669  0.2381
32952ION     NA48421   0.000   7.666  10.234  0.1782 -0.1165  0.1756
32953ION     NA48422   9.826   1.495  14.971  0.1153  0.1430 -0.5452
32954ION     NA48423  17.118   9.392  13.944  0.1011 -0.0726  0.1586
32955ION     NA48424  15.225  14.722   5.711  0.0707 -0.0207 -0.0022
32956ION     NA48425   8.359  15.722   5.528  0.0382 -0.0941 -0.0848
32957ION     NA48426   7.705  17.742  10.263 -0.1390 -0.0494  0.1042
32958ION     NA48427  16.635   8.009  14.562  0.0061 -0.0726  0.2051
32959ION     NA48428  18.053   1.115   3.983 -0.1280 -0.0651  0.3023
32960ION     NA48429   0.543   3.412   5.166 -0.4304 -0.1632 -0.1897
32961ION     NA48430  12.824  12.364   3.032 -0.3072 -0.0601 -0.0536
32962ION     NA48431  11.697  16.067  10.389 -0.1034 -0.0947  0.1725
32963ION     NA48432   2.847   2.388   9.645  0.0053 -0.0351 -0.0838
32964ION     NA48433   0.437  18.385   9.593  0.1953 -0.0946  0.1837
32965ION     NA48434   0.078   8.264   6.096  0.1620  0.0041 -0.1864
32966ION     NA48435  16.558  11.145   9.860 -0.0456  0.2190  0.4900
32967ION     NA48436  17.092   4.292   4.039  0.3086 -0.1883 -0.1410
32968ION     NA48437  16.515   6.324  10.200  0.1807  0.0025  0.1459
32969ION     NA48438   3.646   5.608   4.775  0.1349  0.0106  0.1239
32970ION     NA48439   2.561  11.048  10.158 -0.1039  0.2307 -0.5415
32971ION     NA48440   3.197   1.390   9.819  0.0074  0.0958  0.0046
32972ION     NA48441  10.710   5.246  13.043 -0.0539  0.0747 -0.0423
32973ION     NA48442   7.008  14.406   9.986 -0.0124  0.0041 -0.0796
32974ION     NA48443  12.553  18.353   9.839 -0.2289 -0.0264 -0.1189
32975ION     NA48444  12.949  16.845   9.985 -0.0847 -0.4036 -0.1252
32976ION     NA48445  17.600   5.989   3.326 -0.2649 -0.2413 -0.2614
32977ION     NA48446  13.931  10.770  10.004 -0.1480  0.1428 -0.2048
32978ION     NA48447   4.718   3.506  13.237  0.1941  0.2023  0.0604
32979ION     NA48448   9.752   5.262   5.643 -0.0590 -0.1258  0.2063
32980ION     NA48449   4.146   1.312   9.568  0.3088 -0.0352  0.2660
32981ION     NA48450   4.413  18.573   5.422  0.2691 -0.0514 -0.1811
32982ION     NA48451  11.308   7.288  10.115  0.1142  0.0948 -0.0478
32983ION     NA48452  14.758   1.483  12.539 -0.0895 -0.2516  0.0253
32984ION     NA48453  18.382   8.289  11.048 -0.0079  0.2298  0.1817
32985ION     NA48454   9.885  12.833  14.316 -0.2710  0.0930 -0.1811
32986ION     NA48455  16.738   4.673  10.493  0.0264  0.0832  0.2602
32987ION     NA48456  14.515   9.197  10.102  0.1114  0.0108  0.1063
32988ION     NA48457   9.687   0.157   3.074  0.0720 -0.0669 -0.0037
32989ION     NA48458  13.710  14.155  13.222 -0.1448  0.1386  0.0137
32990ION     NA48459  14.952   7.886   0.950 -0.1526 -0.0921 -0.2451
32991ION     NA48460   7.935   5.366   2.249  0.3323  0.0997  0.0922
32992ION     NA48461   4.092  16.589   9.815 -0.2913 -0.0583  0.1178
32993ION     NA48462  15.153  17.652   9.878  0.0475  0.4027  0.2115
32994ION     NA48463   1.566   9.889  13.067 -0.0368 -0.0687 -0.0574
32995ION     NA48464   8.849   9.447   9.941  0.2785 -0.0029 -0.0377
32996ION     NA48465  10.884   3.038   4.990 -0.3058 -0.0819 -0.0569
32997ION     NA48466   3.983  17.188   4.421 -0.0828  0.0139  0.2457
32998ION     NA48467  13.335   3.145  11.543 -0.0631 -0.1142  0.4442
32999ION     NA48468  14.089  17.868   9.709 -0.1681 -0.0709 -0.1507
33000ION     NA48469  15.108   1.617  13.455 -0.0097  0.0047  0.0210
33001ION     NA48470  14.776  10.574  10.358 -0.3721 -0.0895 -0.3796
33002ION     NA48471   9.668   9.516   9.829 -0.0741  0.1609 -0.0196
33003ION     NA48472  18.276  17.788   9.567 -0.1417 -0.0707 -0.0139
33004ION     NA48473  13.362   4.611  10.087 -0.3887 -0.3147 -0.1152
33005ION     NA48474   8.563   4.943  10.039  0.0594  0.1444  0.1641
33006ION     NA48475   3.199   9.728   1.838  0.0105  0.0185  0.1681
33007ION     NA48476   2.810   4.891   9.816  0.1943 -0.0339  0.4024
33008ION     NA48477   7.066  18.550   9.796 -0.1456  0.3880  0.0249
33009ION     NA48478   4.688  13.236  10.293  0.0547  0.0166  0.0832
33010ION     NA48479   1.385   6.373   2.126  0.1168  0.1272  0.0668
33011ION     NA48480  18.515   3.681   0.666  0.0225 -0.2410 -0.1614
33012ION     NA48481   8.851   8.005  10.375 -0.0519 -0.0480 -0.1271
33013ION     NA48482  10.945   9.883   9.965  0.2930  0.2761 -0.3343
33014ION     NA48483  14.089  15.826  13.729  0.1130 -0.0470  0.1956
33015ION     NA48484   6.530   1.133  10.854 -0.0528 -0.1561 -0.1004
33016ION     NA48485  15.924  14.865   1.186 -0.0835 -0.0561 -0.1676
33017ION     NA48486  15.906   0.260   5.598  0.1631  0.0050 -0.0848
33018ION     NA48487   5.545   5.859   5.633  0.1898 -0.2081  0.0908
33019ION     NA48488   8.831  10.148  11.529 -0.0534 -0.0015 -0.0123
33020ION     NA48489   5.026  15.428   0.122 -0.2696 -0.3281 -0.0919
33021ION     NA48490   7.527   6.873   5.560 -0.1852 -0.0396  0.2195
33022ION     NA48491  11.656   2.459  11.375 -0.3122 -0.0940  0.0292
33023ION     NA48492   2.165   3.571   9.487 -0.1632  0.0731 -0.1011
33024ION     NA48493   0.908  15.121  10.092  0.7402 -0.1272 -0.0943
33025ION     NA48494   6.307   8.566  10.306 -0.1356 -0.1800  0.0635
33026ION     NA48495   9.176  16.210   9.962  0.0343  0.1250 -0.2839
33027ION     NA48496  11.170   2.314   9.737  0.1289 -0.2038 -0.0774
33028ION     NA48497   0.057   3.515   9.832  0.1668  0.0914 -0.1149
33029ION     NA48498   7.804   6.297  10.189 -0.0852  0.0195 -0.1068
33030ION     NA48499   2.007   6.299   0.640  0.1785 -0.0491  0.6012
33031ION     NA48500  14.783   3.289  12.313 -0.4956  0.2226 -0.1707
33032ION     NA48501  13.619  17.376  11.540 -0.0248  0.0446 -0.3437
33033ION     NA48502   6.579  15.334  10.332 -0.2988  0.0452 -0.2064
33034ION     NA48503   5.758  11.357   1.501  0.0123 -0.0458  0.0251
33035ION     NA48504   7.860   2.903   9.774  0.3872  0.2076  0.0252
33036ION     NA48505  18.006  10.888  10.313  0.0519 -0.1692  0.3208
33037ION     NA48506   0.854   5.914  13.734  0.1361  0.1292  0.0397
33038ION     NA48507  10.564  14.306   6.444 -0.0829  0.0597 -0.2147
33039ION     NA48508  14.906  12.351   9.908 -0.0335  0.1598 -0.0895
33040ION     NA48509   6.254   3.186  14.555 -0.2584 -0.0896  0.0429
33041ION     NA48510   9.519  15.639  10.197  0.3499  0.1115  0.1299
33042ION     NA48511   9.056   9.951   1.079  0.2461  0.0381  0.1467
33043ION     NA48512   8.420  14.400  10.305 -0.1768 -0.0188  0.0515
33044ION     NA48513  11.587  10.512   9.975 -0.0805 -0.3557 -0.6894
33045ION     NA48514   8.454  11.650  10.235 -0.0061 -0.0743 -0.2335
33046ION     NA48515  17.925  16.093   9.873 -0.0319  0.0592 -0.1320
33047ION     NA48516   3.628   0.595   9.737 -0.0353 -0.2102  0.1025
33048ION     NA48517  11.055  12.753   5.874  0.1066 -0.2916 -0.1302
33049ION     NA48518  16.438   6.501  15.668  0.3241  0.1524 -0.2529
33050ION     NA48519  17.495   0.618   5.039 -0.2666 -0.2322  0.1572
33051ION     NA48520  15.187  18.498   9.825  0.1426 -0.0450  0.0020
33052ION     NA48521  11.314  18.603   1.464 -0.2581  0.1673  0.0128
33053ION     NA48522  14.004  12.521  10.013 -0.0523 -0.0642 -0.2248
33054ION     NA48523   8.231   1.522   9.883  0.2588  0.1364  0.0502
33055ION     NA48524   7.539  13.835  10.469 -0.1088 -0.0715 -0.0224
33056ION     NA48525  17.140   1.390   9.752  0.2539  0.1937 -0.3745
33057ION     NA48526  12.713  12.453  10.916 -0.1443 -0.0775  0.1484
33058ION     NA48527   3.139  14.711   9.845  0.2819 -0.0256 -0.0564
33059ION     NA48528   5.893  14.380   5.810  0.1519  0.1404 -0.0102
33060ION     NA48529   2.026  11.136  10.320  0.1984 -0.0434 -0.1205
33061ION     NA48530   7.918  15.541  10.439 -0.1252 -0.0602 -0.0529
33062ION     NA48531  13.145  11.214  10.027 -0.0975  0.2386 -0.1587
33063ION     NA48532   5.269  15.940   5.866 -0.0388  0.1670  0.0623
33064ION     NA48533   7.475   9.131  10.330  0.1186 -0.1339 -0.2896
33065ION     NA48534   6.747  12.238   9.940  0.0596 -0.2915  0.0271
33066ION     NA48535  16.432   8.301  10.137  0.1567 -0.0808 -0.0528
33067ION     NA48536   6.864  17.816  12.506 -0.0086  0.1980  0.0706
33068ION     NA48537   2.982  18.447   9.687 -0.1674  0.1327  0.0652
33069ION     NA48538   8.841   2.754  10.091 -0.0614  0.0767  0.2820
33070ION     NA48539   6.681  11.387  10.437 -0.1038 -0.1936  0.0266
33071ION     NA48540  16.148   2.895   3.172  0.2289  0.0971  0.3041
33072ION     NA48541   3.903  17.624   9.752 -0.0516 -0.0082  0.4149
33073ION     NA48542  14.078   9.264  12.169 -0.0528  0.0021 -0.2634
33074ION     NA48543   6.697  12.650   0.593  0.0530  0.1242 -0.0136
33075ION     NA48544   8.544   9.971   5.926  0.1069  0.1481  0.3388
33076ION     NA48545   2.794  10.273   5.917  0.2814 -0.2786 -0.4046
33077ION     NA48546   7.995   2.872   5.231  0.2570 -0.0251 -0.2787
33078ION     NA48547   1.461   1.829   4.577 -0.0730  0.4274 -0.3223
33079ION     NA48548   4.841  15.029  10.116 -0.0344  0.0299  0.0626
33080ION     NA48549  10.797  10.349  10.093  0.0137  0.2750 -0.0291
33081ION     NA48550  16.246   9.362   9.882 -0.3436  0.0519 -0.1149
33082ION     NA48551   9.157   3.487   2.032  0.0390 -0.0126  0.2959
33083ION     NA48552  10.422  11.109   2.512  0.2147 -0.1125  0.1425
33084ION     NA48553  16.443  16.774  15.337  0.1628 -0.1187 -0.0508
33085ION     NA48554  18.570  14.083  14.266 -0.2596 -0.4287  0.3354
33086ION     NA48555  12.679  18.304   1.522 -0.3876 -0.2582 -0.3405
33087ION     NA48556  16.337  15.448   5.778  0.4590  0.1280 -0.1673
33088ION     NA48557   4.131  11.643   1.873  0.1099 -0.0193 -0.1538
33089ION     NA48558   5.765  16.709  10.277  0.1048  0.1996 -0.0432
33090ION     NA48559  15.402  15.618  10.020  0.0675  0.0435  0.0194
33091ION     NA48560   2.039   8.726   6.042 -0.1514  0.0694  0.0970
33092ION     NA48561   2.567   1.092   5.095  0.2313 -0.0373  0.0575
33093ION     NA48562  14.135  10.759   5.621  0.2750  0.0242  0.1342
33094ION     NA48563   7.513   8.142  10.212  0.1969 -0.1960 -0.0857
33095ION     NA48564   9.171  13.785  10.270 -0.2065 -0.0969 -0.2645
33096ION     NA48565   6.964  10.808  10.293  0.1441  0.3882 -0.0976
33097ION     NA48566   5.069   5.392  12.555  0.0215 -0.2556  0.1858
33098ION     NA48567  16.943   1.727  13.633  0.2535  0.2920  0.3101
33099ION     NA48568  18.528   1.500   9.886 -0.2010 -0.0084  0.2584
33100ION     NA48569   5.718  18.253   9.900  0.1200  0.5133 -0.0321
33101ION     NA48570  17.190   7.125  10.475  0.1917  0.0765  0.3217
33102ION     NA48571   2.414   5.868   5.441  0.1367  0.0827 -0.0753
33103ION     NA48572  16.655  10.696  10.181 -0.3239  0.0413  0.0049
33104ION     NA48573  14.927  16.196   3.896  0.0112  0.0109 -0.4217
33105ION     NA48574   5.576   2.123   9.847  0.1993  0.0072  0.6170
33106ION     NA48575  17.971   4.073  15.479  0.1987 -0.1156 -0.1239
33107ION     NA48576  15.110   7.435  11.564 -0.0325 -0.1486 -0.1697
33108ION     NA48577   8.521  17.191  10.048  0.2100 -0.0209  0.2642
33109ION     NA48578  10.533  10.996  10.258 -0.3563  0.5097  0.0566
33110ION     NA48579   6.954  10.686   6.478  0.0479 -0.4115  0.2017
33111ION     NA48580   4.829   8.527  14.463 -0.3275 -0.0182 -0.0465
33112ION     NA48581   7.777  11.135   6.270 -0.2178 -0.3674  0.1570
33113ION     NA48582   7.418   8.853  14.987 -0.1435  0.2232 -0.0088
33114ION     NA48583  15.401   0.594   9.532 -0.3977 -0.0591 -0.0415
33115ION     NA48584   1.289   4.897  14.491 -0.2357  0.3046  0.1157
33116ION     NA48585  14.164  15.007   0.714 -0.0260  0.0067  0.2443
33117ION     NA48586   6.317  16.039  10.454 -0.1544 -0.2537 -0.2358
33118ION     NA48587  18.265   5.452   5.555  0.0766 -0.2341  0.1186
33119ION     NA48588  16.144  17.572  10.394 -0.1186 -0.0609 -0.2905
33120ION     NA48589  18.124  10.628   2.689  0.0181 -0.0132  0.0484
33121ION     NA48590   6.527   2.395   9.908  0.3096  0.0944  0.3196
33122ION     NA48591  13.464  14.159   9.978  0.0579 -0.3219 -0.0539
33123ION     NA48592  18.097   7.765   5.948 -0.0600  0.1353  0.1618
33124ION     NA48593  17.269  11.471  10.059  0.1917  0.0820  0.0799
33125ION     NA48594   7.301  17.226   5.401  0.2255  0.2399  0.1102
33126ION     NA48595   5.099  11.750  10.523  0.1364 -0.2095 -0.1197
33127ION     NA48596   3.095   7.708  10.347  0.3174  0.1983  0.0008
33128ION     NA48597   4.224   6.585  10.392 -0.0767  0.2362 -0.3722
33129ION     NA48598   7.686   3.668  10.186 -0.1325 -0.2434  0.1302
33130ION     NA48599  17.624  11.469  12.632 -0.1868 -0.5199  0.0033
33131ION     NA48600   8.981   4.448   9.917  0.0389 -0.1570 -0.3113
33132ION     NA48601  17.554  11.754   5.009  0.1322 -0.0022  0.1507
33133ION     NA48602   2.264  14.311   9.983 -0.0665 -0.0500 -0.3320
33134ION     NA48603  14.300  11.340   2.727 -0.0324  0.2797 -0.1716
33135ION     NA48604   2.420   4.938  12.191 -0.3401  0.0162 -0.0137
33136ION     NA48605  18.462   6.402   9.730  0.2032 -0.0644 -0.0900
33137ION     NA48606   0.283  13.750   0.702 -0.1759 -0.2120  0.1580
33138ION     NA48607   0.934   7.587   9.849 -0.0536 -0.1707 -0.1305
33139ION     NA48608   2.497   0.212  14.941 -0.1851  0.1886 -0.3450
33140ION     NA48609  14.832  17.408   0.923 -0.4283  0.0027 -0.1820
33141ION     NA48610  13.080  15.105   1.467  0.1424  0.3873 -0.0701
33142ION     NA48611   7.228   2.811  10.397 -0.1169  0.1616  0.1764
33143ION     NA48612  12.905   9.217  10.019 -0.1068 -0.0259  0.0192
33144ION     NA48613  10.568  18.545   4.674  0.1467  0.1273 -0.2668
33145ION     NA48614   2.307  13.157  15.416 -0.3375 -0.4371 -0.2438
33146ION     NA48615   4.518  13.685  13.823 -0.0879  0.0401  0.2222
33147ION     NA48616  10.413   2.141   9.965 -0.2237  0.2118 -0.2251
33148ION     NA48617   0.799   4.394  11.919 -0.0510  0.1623 -0.2299
33149ION     NA48618   3.334  15.792  10.545  0.2924 -0.1012  0.2732
33150ION     NA48619  14.752   4.774   5.416  0.1240  0.0221 -0.0615
33151ION     NA48620  18.612  12.946   5.878 -0.0563 -0.1445 -0.1167
33152ION     NA48621   9.712   2.739  15.181  0.0499 -0.2279  0.3078
33153ION     NA48622  14.310   7.448  10.005  0.0810 -0.0960  0.1606
33154ION     NA48623   9.049   5.384  10.479 -0.1102 -0.1538  0.0314
33155ION     NA48624  11.499  17.278  10.124 -0.0636 -0.1233  0.1689
33156ION     NA48625  12.366   5.693   9.984  0.1470 -0.0935  0.0697
33157ION     NA48626   6.675   6.480   5.221 -0.2761  0.1424  0.0600
33158ION     NA48627   5.710  13.176  10.246  0.0426  0.0480 -0.1283
33159ION     NA48628   0.666   5.459   9.754 -0.2391  0.1000  0.2009
33160ION     NA48629   1.924   3.009   9.715  0.1000 -0.0692  0.0235
33161ION     NA48630  13.240  12.811  12.125  0.0424 -0.1552  0.0937
33162ION     NA48631  10.093   7.032   5.840 -0.0464  0.0698  0.2406
33163ION     NA48632  12.143  15.256  10.050 -0.3083 -0.3345  0.0772
33164ION     NA48633   9.790   3.438   5.611 -0.0330  0.0609 -0.0065
33165ION     NA48634   4.933  10.777  10.530  0.0629  0.0357  0.1372
33166ION     NA48635  12.263   6.914   4.333 -0.0482  0.0919 -0.2447
33167ION     NA48636   2.446  10.178  10.237 -0.0466  0.0093  0.3924
33168ION     NA48637   5.197   5.251  15.527 -0.1137  0.1541 -0.2048
33169ION     NA48638   0.214  10.395  11.393  0.0489  0.4275 -0.4812
33170ION     NA48639  11.988   5.145   4.153  0.2000 -0.1262  0.1440
33171ION     NA48640   5.765   5.339  10.028  0.3507 -0.1635 -0.2311
33172ION     NA48641   9.182   8.604   4.650 -0.4240  0.3161  0.2721
33173ION     NA48642  17.700   6.205   5.714  0.0112 -0.3031  0.1211
33174ION     NA48643   5.875  17.154  15.006  0.0710  0.1356  0.1288
33175ION     NA48644  11.926   9.551  10.126  0.2352 -0.1711 -0.1413
33176ION     NA48645  15.916   3.121   5.402 -0.2171 -0.0080 -0.0623
33177ION     NA48646  13.376   9.152   1.607  0.2317  0.2064 -0.3112
33178ION     NA48647  13.070   0.373   9.541  0.0832  0.0231 -0.0710
33179ION     NA48648  11.804  10.022  13.603 -0.0615 -0.2628  0.1353
33180ION     NA48649   0.509  12.008   9.845 -0.3415  0.0176 -0.1789
33181ION     NA48650   6.611  14.779   5.958 -0.2407 -0.0730 -0.1543
33182ION     NA48651   6.332   7.635  10.212 -0.1516 -0.0763 -0.1907
33183ION     NA48652   5.193  17.895   2.079 -0.1825  0.0184 -0.3337
33184ION     NA48653   7.455  11.668  11.708  0.3504 -0.5842  0.2651
33185ION     NA48654   9.988   6.193   4.155  0.0372  0.0910 -0.3569
33186ION     NA48655   4.683  15.239  10.627  0.2174  0.0048 -0.0730
33187ION     NA48656  10.232   3.501  13.434 -0.2840  0.1591 -0.2237
33188ION     NA48657   0.122  16.830   9.805 -0.2016 -0.1718  0.0949
33189ION     NA48658  12.281   2.681   5.801  0.1224  0.0745 -0.0486
33190ION     NA48659   8.358   2.728   3.339  0.1915  0.1422  0.0273
33191ION     NA48660  17.858  10.309   0.197 -0.0744 -0.3738 -0.1166
33192ION     NA48661   0.011  13.733  10.140  0.0482 -0.0318 -0.1618
33193ION     NA48662   0.071   5.852  11.798 -0.1914 -0.2913  0.2524
33194ION     NA48663  11.804   3.584   5.532  0.0150 -0.2122  0.0372
33195ION     NA48664   0.856  11.021   0.321 -0.1542 -0.3339  0.2887
33196ION     NA48665  16.159  10.626   1.326  0.1522 -0.2811 -0.1166
33197ION     NA48666   4.958  13.908  10.315  0.0511  0.0233  0.3048
33198ION     NA48667   2.559  17.489   9.493 -0.0398  0.2778  0.1180
33199ION     NA48668   2.987   2.332  10.317 -0.2705 -0.0312  0.0490
33200ION     NA48669  18.010  14.148  10.038 -0.1367 -0.1122  0.0724
33201ION     NA48670  10.546  17.967   0.075 -0.2662  0.0378 -0.0498
33202ION     NA48671  10.376   5.168   9.886  0.2079  0.2418 -0.1370
33203ION     NA48672   2.945   9.872  10.091 -0.0849 -0.2114 -0.1996
33204ION     NA48673   8.232   3.737   5.757 -0.1787 -0.2100  0.3050
33205ION     NA48674   0.927  17.849   0.478 -0.2733  0.2990  0.1691
33206ION     NA48675   0.959   8.558  10.051 -0.3017  0.2135  0.2809
33207ION     NA48676  15.782  17.940  12.257 -0.0779 -0.1394  0.2167
33208ION     NA48677  15.614   9.622   5.761  0.3105  0.1916  0.2211
33209ION     NA48678   7.335  14.880  10.052  0.1881 -0.0075  0.3375
33210ION     NA48679   1.771  16.898   9.856 -0.0007  0.2342 -0.1338
33211ION     NA48680  17.493   5.291  14.655  0.1748  0.2983  0.2049
33212ION     NA48681  15.631  18.188   0.588 -0.2346  0.0247  0.0516
33213ION     NA48682  16.002   5.576  10.078 -0.0406  0.0004  0.1015
33214ION     NA48683  14.945  14.198   9.739 -0.0044 -0.0522 -0.0038
33215ION     NA48684   9.033   7.989   5.855  0.2443  0.2314  0.2096
33216ION     NA48685   2.293   1.168   0.899  0.0096  0.0349  0.1800
33217ION     NA48686   9.698  12.782   5.855 -0.0320  0.0958 -0.2671
33218ION     NA48687  14.592  17.485  15.424 -0.0719 -0.0925 -0.2149
33219ION     NA48688  13.031   1.076   9.925  0.0370  0.2839 -0.1683
33220ION     NA48689   7.612   2.063   9.935  0.0750 -0.1275  0.1646
33221ION     NA48690   6.750   9.247  10.429 -0.0415  0.0232  0.0857
33222ION     NA48691   5.574  18.408  10.827 -0.1901 -0.4297  0.4130
33223ION     NA48692   5.677   2.407   3.237 -0.0850  0.2093  0.0422
33224ION     NA48693  15.833   9.208  12.439  0.1081  0.0047 -0.2229
33225ION     NA48694   1.840  14.671  10.371  0.1091  0.3413 -0.2575
33226ION     NA48695   2.538  13.542  14.440 -0.2000 -0.1536 -0.1458
33227ION     NA48696  17.425   2.247   9.569  0.5783 -0.1400 -0.2621
33228ION     NA48697   6.221  14.786   2.039 -0.0906 -0.2986 -0.2566
33229ION     NA48698   1.653   7.615  10.166  0.0706 -0.3825  0.0959
33230ION     NA48699  11.788   8.055  10.140 -0.1202 -0.0138  0.2476
33231ION     NA48700  10.171  12.413   5.891 -0.1712 -0.2973  0.0155
33232ION     NA48701   1.374  15.925   9.835 -0.2160  0.0833 -0.0393
33233ION     NA48702   1.786   8.533   3.435  0.0298 -0.1488 -0.0313
33234ION     NA48703  18.070  16.370  10.268  0.1577 -0.2860 -0.0882
33235ION     NA48704   6.823   6.727   5.983  0.1130  0.2200 -0.2559
33236ION     NA48705  11.853  13.399   2.254 -0.0799 -0.1409 -0.0622
33237ION     NA48706  15.690  12.786  10.009  0.1378 -0.2047  0.0570
33238ION     NA48707  14.240   1.422   1.903  0.3336  0.0927  0.1389
33239ION     NA48708   2.064  12.948  10.081 -0.0134  0.0263 -0.0715
33240ION     NA48709  13.754   6.859  10.218  0.1436  0.1097  0.4424
33241ION     NA48710  13.474   2.863   9.867 -0.3127  0.0133  0.1105
33242ION     NA48711  15.725  10.961   9.967 -0.1231 -0.0805  0.3311
33243ION     NA48712  14.181  13.461   2.788 -0.0215  0.2518 -0.0169
33244ION     NA48713   1.219   1.235   2.270  0.0775 -0.0912 -0.0100
33245ION     NA48714   3.194  18.533   4.649  0.1607  0.1992 -0.2332
33246ION     NA48715  14.287   4.594   5.477  0.0723  0.2139 -0.1656
33247ION     NA48716   5.601   0.649   9.757  0.2178 -0.1308  0.2864
33248ION     NA48717  16.158  12.954  10.048  0.2949  0.0020 -0.0029
33249ION     NA48718  17.144   2.457   5.507 -0.1819  0.0694  0.0193
33250ION     NA48719   7.618   0.694   9.826  0.0362 -0.1158 -0.3351
33251ION     NA48720  14.320   4.605   9.824  0.1678  0.1465 -0.4283
33252ION     NA48721   3.474   5.827   3.888  0.4495  0.1119 -0.2887
33253ION     NA48722   7.565  16.056  10.817  0.2142  0.0189  0.0028
33254ION     NA48723   3.684  15.574   5.495  0.2485 -0.1553  0.1150
33255ION     NA48724   1.612  18.015   2.957 -0.2407 -0.0464 -0.0857
33256ION     NA48725  10.970  16.012   0.329 -0.1793  0.2939 -0.2759
33257ION     NA48726  18.494  10.165   3.180  0.2399  0.1654 -0.0488
33258ION     NA48727   0.010   4.931   2.571 -0.0841 -0.0434  0.3630
33259ION     NA48728  15.722  13.291  11.595 -0.1606  0.2763 -0.3688
33260ION     NA48729  14.290  11.749  10.346  0.1672  0.3107  0.3676
33261ION     NA48730   0.809  16.369  12.855 -0.1010  0.2734 -0.0312
33262ION     NA48731   3.959   6.484   0.739 -0.1328 -0.0614  0.0764
33263ION     NA48732   2.162   0.308  10.104 -0.0721  0.1012  0.3831
33264ION     NA48733  14.753  14.998  10.237 -0.0905  0.0788  0.1114
33265ION     NA48734  11.257   4.627  10.574  0.3822 -0.1265  0.0038
33266ION     NA48735  12.808   3.894   9.838 -0.1810  0.1317 -0.1954
33267ION     NA48736   9.305  10.893   2.788 -0.1900 -0.0724  0.1665
33268ION     NA48737   6.726  17.917   9.812  0.2283 -0.1571 -0.2972
33269ION     NA48738  17.769   5.665   9.835 -0.1856  0.1126 -0.3375
33270ION     NA48739  15.426   8.413   1.762  0.0165 -0.1985 -0.0972
33271ION     NA48740   2.754  15.642   9.860 -0.1867 -0.3026  0.0950
33272ION     NA48741  17.837  13.435  10.393  0.0368  0.0407  0.1860
33273ION     NA48742   1.964  10.736   5.939  0.2356 -0.1034  0.0049
33274ION     NA48743   8.836  18.428   5.610  0.3516  0.3938 -0.3613
33275ION     NA48744  12.335   6.245   9.952  0.0486  0.0464 -0.1940
33276ION     NA48745  13.717   9.613  10.212 -0.2176 -0.0628 -0.1499
33277ION     NA48746  17.690   3.196   9.689 -0.2128 -0.0762 -0.2337
33278ION     NA48747   4.959   4.459   9.808  0.0298 -0.1732 -0.1760
33279ION     NA48748   3.717  17.103   5.474  0.1340  0.2007  0.0467
33280ION     NA48749   0.921  16.723   9.852 -0.0497  0.0731 -0.1719
33281ION     NA48750  10.726  15.409   5.459 -0.5369  0.1255 -0.0697
33282ION     NA48751  12.418  14.368  10.170 -0.1416  0.0304 -0.0450
33283ION     NA48752   9.109  18.357   9.832 -0.3869  0.0949  0.2397
33284ION     NA48753   9.488  11.754  10.038  0.3760  0.3857 -0.1584
33285ION     NA48754  14.686   6.213   1.323 -0.0512  0.1944 -0.0944
33286ION     NA48755  11.958   4.204   9.931 -0.0379 -0.1161  0.1199
33287ION     NA48756   0.258   6.216   5.492  0.0649 -0.3735 -0.0783
33288ION     NA48757  10.645  16.799  10.258 -0.1557  0.0995 -0.1662
33289ION     NA48758  10.533  15.841  10.315 -0.1109  0.3731  0.3465
33290ION     NA48759   7.880  18.528   3.107  0.0117 -0.1866  0.1387
33291ION     NA48760   1.513   2.106   9.800  0.2021 -0.1384 -0.0425
33292ION     NA48761   0.553  10.660  10.248  0.0973 -0.2262  0.2404
33293ION     NA48762   0.007   4.741   9.607  0.0339  0.2382 -0.0181
33294ION     NA48763   0.677   2.118   2.700 -0.0934 -0.0115 -0.0184
33295ION     NA48764   3.596  17.827  15.049  0.3571  0.4735 -0.2034
33296ION     NA48765  10.370  11.661   5.466 -0.0929  0.0326 -0.0777
33297ION     NA48766  12.143  16.720   9.783 -0.0662  0.1534  0.0278
33298ION     NA48767  11.489  16.556   5.638 -0.1388 -0.0373 -0.1070
33299ION     NA48768   4.022  15.557  11.363  0.0782 -0.2879  0.1038
33300ION     NA48769   9.121   0.629   9.826 -0.3494 -0.0759  0.0749
33301ION     NA48770  12.876   7.637  12.946  0.2408  0.2679 -0.3914
33302ION     NA48771  15.212  12.300   5.918  0.1169 -0.1816 -0.1425
33303ION     NA48772   2.324   7.776  15.542  0.0359 -0.1410 -0.2107
33304ION     NA48773  14.435   0.155   9.602  0.2560 -0.1670  0.0863
33305ION     NA48774  15.610  13.795   2.393  0.1716  0.2021 -0.1277
33306ION     NA48775   9.157   6.313  10.551  0.0519 -0.0398 -0.1432
33307ION     NA48776  10.604   6.382  10.103 -0.0948  0.1623 -0.1719
33308ION     NA48777  14.358   3.042   9.990 -0.3538 -0.1901  0.1500
33309ION     NA48778   5.969   9.967  10.428  0.2036 -0.3264 -0.2620
33310ION     NA48779  16.048   5.854   5.772 -0.1851 -0.4004  0.3176
33311ION     NA48780   7.145   7.227   9.989  0.0597  0.1534 -0.1082
33312ION     NA48781   4.622   5.379   9.990 -0.0467 -0.0061 -0.0368
33313ION     NA48782   5.934  15.944  10.088  0.0915 -0.1988 -0.0879
33314ION     NA48783   2.563   1.354  13.601  0.0635 -0.0045 -0.1601
33315ION     NA48784   0.228  18.408  15.691  0.0168 -0.4428 -0.0588
33316ION     NA48785   0.628  11.722  15.463 -0.2541 -0.1059 -0.3148
33317ION     NA48786   0.349   1.880   9.507  0.1120  0.0102  0.0941
33318ION     NA48787   3.155   5.327  10.132 -0.0029 -0.1778 -0.2034
33319ION     NA48788  12.345  17.513   9.941  0.0267  0.2823 -0.1014
33320ION     NA48789  17.981   8.225   3.421 -0.0457 -0.3048  0.0222
33321ION     NA48790  14.362  12.982   5.352 -0.0096 -0.2954 -0.0174
33322ION     NA48791  18.513  10.159   9.889  0.2362 -0.0329 -0.1632
33323ION     NA48792   7.035  17.396   9.771 -0.1590  0.3633  0.1384
33324ION     NA48793   3.920   7.388  10.520 -0.2517  0.0172 -0.1587
33325ION     NA48794  17.215   0.425   9.681  0.0802  0.0757  0.2618
33326ION     NA48795   3.078  12.451  10.230 -0.0946 -0.5462 -0.0863
33327ION     NA48796   8.304  10.093   2.152 -0.1306  0.0433  0.3946
33328ION     NA48797   2.832  17.910   4.907 -0.0479  0.0372  0.2226
33329ION     NA48798   9.535  12.948  10.479 -0.0702 -0.2137 -0.1000
33330ION     NA48799  16.729   7.770  12.006  0.2224  0.0654 -0.2800
33331ION     NA48800   3.833  13.298  10.357 -0.0805  0.1468 -0.0889
33332ION     NA48801   8.808  15.280  10.060 -0.4106 -0.1843  0.2000
33333ION     NA48802   5.607   8.864  11.038  0.2506  0.1961 -0.2018
33334ION     NA48803   8.722  12.857  10.677 -0.1313 -0.1741  0.1121
33335ION     NA48804   6.381  13.043   6.225  0.3228 -0.1272 -0.0908
33336ION     NA48805   8.375   0.169   9.846  0.1826 -0.1152  0.2643
33337ION     NA48806   9.538   2.107  10.157 -0.0542 -0.0677  0.1949
33338ION     NA48807   4.376  12.358  10.075 -0.2113  0.0617  0.4245
33339ION     NA48808  17.952   0.740   9.499  0.2263  0.0813  0.1030
33340ION     NA48809  13.967   6.591   3.667 -0.0202  0.1997  0.1872
33341ION     NA48810  16.313  15.471   9.996 -0.3832  0.1770  0.0074
33342ION     NA48811  15.252   3.182   9.952 -0.2077 -0.3105  0.3025
33343ION     NA48812   5.947   5.385   3.966  0.1808 -0.1091 -0.0529
33344ION     NA48813   5.348   1.628  11.366 -0.3210 -0.2641  0.0183
33345ION     NA48814  10.240  17.829  10.024  0.1208 -0.1827 -0.1678
33346ION     NA48815  14.357  12.705  15.462 -0.1368 -0.0515 -0.0639
33347ION     NA48816  13.557  16.593  14.935 -0.0616 -0.3987 -0.4552
33348ION     NA48817  17.634  14.947  15.512  0.0034 -0.1474  0.2514
33349ION     NA48818  17.118   4.767  11.564 -0.0591  0.3901 -0.0480
33350ION     NA48819  10.244   3.315  10.870 -0.1170 -0.0168 -0.3608
33351ION     NA48820   3.923  18.566   9.506 -0.0829  0.1377  0.1675
33352ION     NA48821  15.623   4.024  12.966 -0.2624  0.4350  0.3526
33353ION     NA48822   6.918   6.346  10.048 -0.1107  0.3255  0.3417
33354ION     NA48823   5.237   1.547   3.481  0.1102 -0.0721  0.0392
33355ION     NA48824  10.763  10.764   5.794  0.1723  0.1771 -0.3945
33356ION     NA48825   9.559   1.654   9.817  0.0008  0.0845  0.3395
33357ION     NA48826  14.138   9.695  15.419 -0.1734 -0.1710  0.0884
33358ION     NA48827  18.347   3.918   3.739  0.0103 -0.2161 -0.1160
33359ION     NA48828  18.674  12.914   9.885  0.0131  0.0177  0.0265
33360ION     NA48829   9.446  17.828   5.238  0.1122  0.2157 -0.2148
33361ION     NA48830   6.204  17.471  10.074 -0.3021  0.0072 -0.2041
33362ION     NA48831  18.252   0.818   5.921  0.1442  0.2798  0.0757
33363ION     NA48832   5.255  10.367  10.540 -0.0317  0.0114 -0.1777
33364ION     NA48833  10.530   8.598   5.841  0.0332  0.2676 -0.1226
33365ION     NA48834   0.120  11.203   9.790  0.1322  0.0693  0.0335
33366ION     NA48835  10.461  13.457  12.689 -0.2434  0.1209 -0.3961
33367ION     NA48836   8.480   5.926  10.238 -0.0882 -0.0300 -0.0123
33368ION     NA48837  12.104  16.518   5.933  0.2450  0.0024  0.0516
33369ION     NA48838  16.189   9.460  15.649  0.2098  0.1383 -0.2933
33370ION     NA48839  16.243  11.947  10.121  0.1493  0.3049 -0.0121
33371ION     NA48840  16.048   3.830   9.771  0.2699  0.1731 -0.1482
33372ION     NA48841   8.626   0.055   3.966 -0.1339  0.0628  0.1626
33373ION     NA48842   7.132   0.751   9.720  0.0631 -0.1643  0.1025
33374ION     NA48843   3.484   9.403  10.489  0.2361 -0.0943 -0.4846
33375ION     NA48844   4.135  15.411  13.254 -0.0963  0.4135 -0.1626
33376ION     NA48845   0.179  15.915   9.919  0.0004 -0.1259 -0.2629
33377ION     NA48846  16.104   2.553   9.495  0.0141 -0.0804  0.0856
33378ION     NA48847  10.632   3.494  10.184  0.0814 -0.0290 -0.3665
33379ION     NA48848   8.283  16.051   9.975 -0.1927  0.3529  0.5638
33380ION     NA48849   9.286   3.654  10.140  0.1755  0.0947 -0.2315
33381ION     NA48850  16.644   6.152   0.531  0.0117  0.1708  0.2166
33382ION     NA48851  10.653   5.663   5.839  0.2540  0.2571 -0.1472
33383ION     NA48852   8.169   2.078   0.103  0.0498 -0.3293  0.3479
33384ION     NA48853  12.322  17.309  13.050 -0.2380 -0.0624  0.0935
33385ION     NA48854   0.714   4.128   9.881 -0.0006 -0.3192 -0.0176
33386ION     NA48855  13.132  15.303  11.424 -0.2097 -0.0211 -0.1807
33387ION     NA48856   8.995  10.686  10.234  0.0386 -0.0884  0.1164
33388ION     NA48857  11.731   4.766  12.369 -0.1860  0.1879 -0.1119
33389ION     NA48858   8.022  15.427  14.302  0.0158 -0.3257 -0.2084
33390ION     NA48859  11.101  14.457   5.876 -0.0269 -0.0425 -0.1971
33391ION     NA48860  16.970  17.523   9.792 -0.0177  0.0186 -0.2538
33392ION     NA48861   1.689   4.379   9.833 -0.3931 -0.0407 -0.2227
33393ION     NA48862  11.619   0.505  10.169 -0.0134  0.0830 -0.0916
33394ION     NA48863   9.977  10.372   9.963 -0.1059 -0.2097 -0.1408
33395ION     NA48864   1.418   6.742   9.965  0.2108 -0.5409 -0.0443
33396ION     NA48865   2.566   4.184   9.960  0.1587 -0.0955 -0.1893
33397ION     NA48866  12.725   9.698  10.137  0.2459 -0.1113 -0.0164
33398ION     NA48867  11.226   1.414  10.010  0.1685 -0.3027 -0.1828
33399ION     NA48868   1.959   0.014   9.726  0.2472  0.1163  0.2066
33400ION     NA48869  12.460  17.538   5.653 -0.1459 -0.0795  0.0657
33401ION     NA48870   9.261   8.688   9.967  0.0057  0.1415  0.0054
33402ION     NA48871   9.889  12.016  13.690  0.0140  0.0384 -0.2250
33403ION     NA48872   6.478   5.314  10.386 -0.1840  0.3243  0.0397
33404ION     NA48873   5.867  15.446   0.466  0.0193 -0.0424  0.0400
33405ION     NA48874   4.420   2.791  12.556  0.0879 -0.1453 -0.0560
33406ION     NA48875   0.808  15.170  14.963 -0.0093  0.1660  0.0799
33407ION     NA48876  17.030  13.914   3.118 -0.0202 -0.1615 -0.0271
33408ION     NA48877   2.955   7.897   5.203 -0.1472  0.0724  0.1660
33409ION     NA48878   8.337  16.521   5.542 -0.2252 -0.0643 -0.1053
33410ION     NA48879  15.446  10.104  13.674 -0.2013 -0.1210 -0.0547
33411ION     NA48880  15.854  16.269   9.776 -0.0838 -0.1201 -0.2252
33412ION     NA48881  11.629   9.198  14.865  0.0861  0.0683 -0.0539
33413ION     NA48882   2.117   9.353  10.225  0.1808 -0.1788 -0.1946
33414ION     NA48883  14.537  10.963   3.106  0.1387  0.0519 -0.1885
33415ION     NA48884  17.044   9.471  10.051  0.1407  0.0415 -0.0156
33416ION     NA48885   2.075  18.225   4.422  0.0069  0.4950  0.3303
33417ION     NA48886  17.995  18.535   9.365 -0.4602  0.3550 -0.0583
33418ION     NA48887   2.593   9.164  10.370 -0.0991 -0.1203  0.0508
33419ION     NA48888   1.428   5.840   9.848 -0.1644  0.1196  0.1448
33420ION     NA48889   4.617  11.382   0.396 -0.1212  0.0751 -0.1412
33421ION     NA48890  17.922  14.136  12.023 -0.0312  0.0044  0.1104
33422ION     NA48891  17.727   8.085   5.682  0.0302 -0.2419 -0.4189
33423ION     NA48892  10.961   8.181   9.991 -0.0941  0.1611 -0.1842
33424ION     NA48893   0.223  16.118   5.348  0.3424 -0.3041  0.0443
33425ION     NA48894  15.774  10.636   5.407 -0.0013 -0.1577  0.3222
33426ION     NA48895   4.948   0.561   1.715 -0.1336  0.5586  0.1200
33427ION     NA48896  13.619  13.039  10.135 -0.0755 -0.2869 -0.0080
33428ION     NA48897  13.308  12.148  10.508  0.1256  0.0137  0.0952
33429ION     NA48898   0.490  10.865  14.974  0.2469  0.1722 -0.0758
33430ION     NA48899   7.577  12.152  10.242 -0.2223 -0.1114 -0.2297
33431ION     NA48900   7.342  10.032   0.567 -0.1650 -0.0008 -0.0293
33432ION     NA48901  15.544   2.673   2.131  0.2959 -0.1233 -0.3650
33433ION     NA48902  16.741   9.990   2.082 -0.0251 -0.4590  0.0586
33434ION     NA48903  12.469   0.324  13.693  0.0406  0.0668  0.0519
33435ION     NA48904   7.573  10.177  10.718  0.1548 -0.4240 -0.1167
33436ION     NA48905  16.261  16.820   9.878 -0.0230 -0.1599 -0.0219
33437ION     NA48906   9.316  11.513  10.537 -0.0462  0.0289 -0.0423
33438ION     NA48907  14.744  11.288   9.869 -0.3724 -0.2168 -0.5943
33439ION     NA48908  10.866   1.159   1.784  0.2669 -0.2359  0.0652
33440ION     NA48909   3.020   5.732  11.296 -0.1477  0.0778  0.1497
33441ION     NA48910  16.618  14.128  10.153 -0.3941  0.1201  0.4594
33442ION     NA48911   8.399  17.297  13.225  0.1009 -0.1547  0.1365
33443ION     NA48912   8.916  14.677   1.553  0.2417  0.0761  0.1871
33444ION     NA48913   3.585  12.505   5.499 -0.0550  0.2720 -0.0611
33445ION     NA48914   3.927  12.153  10.208  0.0814  0.0481 -0.0861
33446ION     NA48915  12.305   0.763  11.642 -0.0573  0.1640 -0.0949
33447ION     NA48916   7.872   4.598  14.487 -0.1459 -0.1276  0.1725
33448ION     NA48917  17.673   0.444   5.459 -0.3847 -0.2435 -0.3691
33449ION     NA48918   0.045   9.059   9.804  0.1211  0.0863  0.0255
33450ION     NA48919  16.966   9.751   5.535 -0.2688  0.1590 -0.1349
33451ION     NA48920   0.771  17.513   9.620  0.0158 -0.0454 -0.0754
33452ION     NA48921  13.520  17.549  10.358 -0.3388 -0.2977 -0.0161
33453ION     NA48922   5.311  14.160  10.039  0.1312 -0.1435  0.0468
33454ION     NA48923  15.373  10.005  10.146  0.2208 -0.0622 -0.0546
33455ION     NA48924   1.452   3.293  12.424  0.0430  0.0408  0.1023
33456ION     NA48925   2.316   7.061  10.123  0.0232 -0.0829  0.3226
33457ION     NA48926   3.121   6.557  10.964  0.0299  0.0762  0.0603
33458ION     NA48927   8.999   1.403   3.877 -0.1363 -0.2841 -0.1397
33459ION     NA48928  13.171   4.819   0.536  0.1399 -0.4789  0.0482
33460ION     NA48929   3.326   3.153  15.219 -0.0276  0.1950  0.3038
33461ION     NA48930   9.678  12.578  11.281  0.1194 -0.1348 -0.1285
33462ION     NA48931   3.371  13.320   5.668  0.0642  0.2376  0.0296
33463ION     NA48932   8.144  10.833  10.601 -0.3326  0.1969 -0.2023
33464ION     NA48933   5.724   7.337   0.580 -0.2152  0.0677  0.1320
33465ION     NA48934   0.655   7.228   2.602 -0.2330  0.1082 -0.1006
33466ION     NA48935   0.094   7.022  10.669 -0.1357  0.0263  0.1672
33467ION     NA48936   7.881  12.922  10.613  0.2828  0.1417  0.0217
33468ION     NA48937   1.488  12.329   9.814 -0.3568 -0.0022 -0.0787
33469ION     NA48938  12.282  12.612  11.236  0.2706 -0.1853  0.3278
33470ION     NA48939   5.986   4.106   5.450  0.2541 -0.1071  0.1487
33471ION     NA48940   0.587   9.388   9.926 -0.0089  0.2812  0.1128
33472ION     NA48941   7.687   5.541  10.004  0.0631  0.4711 -0.0095
33473ION     NA48942   6.999  12.823  10.373  0.2289  0.3591  0.0890
33474ION     NA48943  10.544   4.486  13.378 -0.0946  0.0305  0.0420
33475ION     NA48944  10.894   9.379   5.413 -0.0364 -0.2483  0.0709
33476ION     NA48945   0.764   1.824  11.207 -0.1785 -0.0356  0.0430
33477ION     NA48946   7.931  15.393   2.012 -0.3207 -0.1210  0.0279
33478ION     NA48947  16.077  10.571   1.825 -0.0675  0.1639  0.2177
33479ION     NA48948  15.102   7.659  10.017 -0.1178 -0.0374 -0.0198
33480ION     NA48949  16.818   3.179   9.746  0.2218  0.2135 -0.1983
33481ION     NA48950   0.071   6.832   9.898  0.1314  0.2406  0.1682
33482ION     NA48951  17.967   3.620   9.584  0.1739  0.3718 -0.2683
33483ION     NA48952   7.424  10.723   1.804 -0.1679  0.4977  0.0415
33484ION     NA48953  15.777   9.649  10.063  0.1365  0.0262  0.0194
33485ION     NA48954  14.618   8.001  15.324 -0.5067 -0.0923  0.2116
33486ION     NA48955  18.667  13.975   3.953  0.0136  0.1987  0.4280
33487ION     NA48956   0.438   7.503   0.301 -0.2309 -0.1412 -0.2832
33488ION     NA48957   9.349   8.085  12.404  0.1123  0.1175  0.1452
33489ION     NA48958   1.613  15.460   9.862  0.0354 -0.1230  0.1659
33490ION     NA48959   4.575   0.488   9.695  0.2100  0.0253  0.0302
33491ION     NA48960  17.921   9.453  10.045 -0.0803 -0.1436 -0.1370
33492ION     NA48961   9.871  18.581  10.089 -0.1482 -0.1270  0.2926
33493ION     NA48962   8.369  17.784   1.487  0.0699 -0.1506  0.0501
33494ION     NA48963  14.862   6.753  10.179 -0.3272  0.0730 -0.1323
33495ION     NA48964  14.863  10.213   5.720  0.0223  0.1958  0.0564
33496ION     NA48965   4.099   3.810   9.751  0.1085  0.0189 -0.0006
33497ION     NA48966   2.183   9.808   3.991  0.1611  0.4963 -0.1045
33498ION     NA48967  14.409   2.321  13.678  0.0716 -0.0023  0.1899
33499ION     NA48968  13.247   1.940   9.961  0.2741  0.2087 -0.0099
33500ION     NA48969   4.517  17.598   5.594  0.1805 -0.0825 -0.0453
33501ION     NA48970   7.348  15.760  11.753 -0.1980 -0.1822 -0.2438
33502ION     NA48971  16.148  14.159  12.392  0.4112 -0.0784  0.0300
33503ION     NA48972  17.225  18.380   4.819  0.0872  0.0062 -0.0628
33504ION     NA48973  14.498  11.688  15.719  0.1104  0.0065  0.1985
33505ION     NA48974   6.340   8.529  14.254  0.0329  0.2357  0.1010
33506ION     NA48975   1.496   0.499   9.549 -0.0792  0.1018  0.1216
33507ION     NA48976  18.056  18.203   5.519  0.0260  0.3326  0.2343
33508ION     NA48977  17.633   4.634   9.762 -0.1895 -0.0818  0.2248
33509ION     NA48978   1.246  16.883  15.066  0.4615 -0.2217  0.1782
33510ION     NA48979   4.128  11.296  10.405  0.6657 -0.0955  0.0780
33511ION     NA48980   0.317  17.266   5.063 -0.2304  0.1905  0.0947
33512ION     NA48981  10.250  16.248   5.203 -0.1721 -0.2526  0.0276
33513ION     NA48982   1.071  11.364  10.376  0.0247  0.1000 -0.0263
33514ION     NA48983   8.534   3.252  10.077 -0.5152  0.1428 -0.0167
33515ION     NA48984  18.289   0.020   2.747 -0.0225  0.3480  0.1468
33516ION     NA48985  10.767   8.725  11.183 -0.1930 -0.1521 -0.0875
33517ION     NA48986   9.565  11.765   5.792  0.1586 -0.1752 -0.3988
33518ION     NA48987  10.105   8.703   9.980  0.1772 -0.2606 -0.2574
33519ION     NA48988  12.444   5.668  13.014 -0.1543  0.0943 -0.2010
33520ION     NA48989   9.889   4.315   9.947 -0.2126 -0.1496 -0.1279
33521ION     NA48990   2.626  14.190   5.272 -0.1503  0.1230 -0.3923
33522ION     NA48991   7.221   2.937   9.745 -0.1755 -0.3182 -0.2420
33523ION     NA48992   9.213   7.168  10.113  0.1393  0.0052  0.6579
33524ION     NA48993   1.958   1.690   2.769 -0.0709  0.3373 -0.0562
33525ION     NA48994  13.645   3.784   9.715  0.1827  0.0310  0.4707
33526ION     NA48995   3.232  15.553  12.234 -0.0950 -0.0385  0.1872
33527ION     NA48996   1.354  17.404  10.787 -0.2236  0.0653 -0.1583
33528ION     NA48997   2.195   1.398   9.585  0.0391  0.1511  0.0057
33529ION     NA48998  14.768   5.962   9.954  0.0229 -0.0475  0.1770
33530ION     NA48999   3.316  11.589  10.424 -0.0695  0.1608 -0.0117
33531ION     NA49000  16.422   0.906   9.713 -0.1360 -0.1549  0.2984
33532ION     NA49001  13.733  11.780  11.473  0.0058  0.0708  0.0079
33533ION     NA49002   5.101  13.005  11.176  0.3984  0.2140  0.1130
33534ION     NA49003   9.660  14.424  10.948  0.0454 -0.1922  0.0581
33535ION     NA49004  15.655  13.687  10.015  0.2373 -0.0542 -0.2219
33536ION     NA49005   8.752   4.639  11.958  0.1385  0.2265  0.0015
33537ION     NA49006   3.037  16.592   9.774 -0.3006 -0.1036 -0.1003
33538ION     NA49007   7.650  17.726   3.584  0.1975  0.1194 -0.1721
33539ION     NA49008  14.545   3.782  10.174  0.0261 -0.0644  0.0252
33540ION     NA49009   0.176   3.174  14.270  0.0173  0.1522  0.3723
33541ION     NA49010  17.711   8.406   1.838  0.5016 -0.1300 -0.0747
33542ION     NA49011   7.503   4.731   5.341 -0.0714  0.2948 -0.1521
33543ION     NA49012   0.983   2.366   9.831  0.0494  0.0977 -0.3266
33544ION     NA49013   0.158   2.649   0.836  0.1644  0.2869 -0.0747
33545ION     NA49014  18.683   6.762   3.316  0.1503  0.2773  0.1044
33546ION     NA49015   5.528   4.478   9.618  0.1460 -0.0528 -0.0416
33547ION     NA49016   5.390   7.331  11.656  0.4351  0.3772  0.0657
33548ION     NA49017   6.479  15.545   5.472 -0.1195 -0.3297 -0.2767
33549ION     NA49018  14.571   3.107   5.187  0.1059  0.0016 -0.0777
33550ION     NA49019  16.172   2.074   5.228  0.3293  0.1977  0.2498
33551ION     NA49020   2.433   6.453  10.263 -0.1360 -0.1277  0.2457
33552ION     NA49021  12.795  13.184  10.248 -0.1209 -0.1295  0.1446
33553ION     NA49022   3.620   9.421   0.948  0.0096 -0.1889 -0.1898
33554ION     NA49023   7.927   2.825  13.017 -0.3709  0.1596 -0.2142
33555ION     NA49024  10.070   3.792   2.249  0.0104  0.0894 -0.2462
33556ION     NA49025  10.224  15.494  10.508  0.0134 -0.1045  0.0139
33557ION     NA49026   2.154   5.240   9.735 -0.0150  0.0958 -0.2535
33558ION     NA49027  15.454   4.691  10.067  0.0252  0.0457  0.1140
33559ION     NA49028  13.685  10.598  10.819 -0.0063 -0.0234 -0.4094
33560ION     NA49029  12.887   7.092  10.067 -0.0259  0.3784 -0.0433
33561ION     NA49030   6.865   1.747   9.590 -0.0577 -0.0326  0.3445
33562ION     NA49031  13.551   5.435   9.991 -0.0019  0.0552 -0.3962
33563ION     NA49032   7.206  16.467   9.976  0.0056  0.1755  0.3279
33564ION     NA49033   1.110  17.877   5.512 -0.1324  0.0640 -0.0077
33565ION     NA49034   6.994  18.607   4.360 -0.1038 -0.1431 -0.2242
33566ION     NA49035   6.747  17.903  14.898 -0.0273 -0.2546  0.1339
33567ION     NA49036  11.732   5.131  10.255  0.0220  0.5096  0.2051
33568ION     NA49037   0.151   9.161   5.701  0.0602 -0.1211  0.2055
33569ION     NA49038   7.056   7.548  15.189  0.0899  0.0392 -0.0074
33570ION     NA49039  10.681   4.643  11.956  0.2457  0.0226 -0.1155
33571ION     NA49040   5.413   2.639   2.785  0.1370 -0.3193  0.2735
33572ION     NA49041   7.452  17.041   9.866  0.0236 -0.1167  0.1251
33573ION     NA49042  12.794  14.315   2.184 -0.0086  0.0104 -0.0231
33574ION     NA49043  12.729  16.053   9.936  0.1273  0.2974 -0.0328
33575ION     NA49044   1.439  10.361  10.067 -0.0250  0.1565  0.1305
33576ION     NA49045  10.868   7.642  10.182  0.1731 -0.1001 -0.0137
33577ION     NA49046  17.429  16.042   5.176 -0.0300 -0.1814  0.1457
33578ION     NA49047   3.393   1.294   5.605 -0.1352 -0.0760 -0.0006
33579ION     NA49048   8.132  18.235  11.520 -0.0967 -0.0725  0.0087
33580ION     NA49049  12.804   5.777   5.157 -0.0359 -0.0745  0.0703
33581ION     NA49050  17.091  15.379  15.374 -0.0882  0.3165 -0.1345
33582ION     NA49051   6.007   4.179   9.843 -0.1662  0.2096 -0.2973
33583ION     NA49052   8.858   1.272  13.317  0.1797 -0.0920 -0.1949
33584ION     NA49053  15.622   1.711  10.579 -0.1389  0.1055  0.0081
33585ION     NA49054  13.501  16.626  10.045  0.3405  0.1239 -0.0539
33586ION     NA49055   0.109  10.040   5.665 -0.1452  0.1040  0.0673
33587ION     NA49056   0.597  12.772  10.092 -0.0343 -0.0908  0.4765
33588ION     NA49057  16.111  11.426  15.094 -0.1062 -0.0362  0.1237
33589ION     NA49058   2.280   4.076  14.507 -0.0141  0.1724  0.3613
33590ION     NA49059   5.899  14.241   4.456  0.2705 -0.0227 -0.4611
33591ION     NA49060  12.215   7.989   0.805 -0.0867 -0.0663 -0.1756
33592ION     NA49061   0.596  18.206   1.162  0.0817 -0.0207  0.0910
33593ION     NA49062  13.004  15.987  10.371 -0.0786  0.2215  0.1787
33594ION     NA49063   2.653  12.461   4.961  0.2036  0.1146  0.1232
33595ION     NA49064  11.372  13.981  10.246  0.1372  0.4604  0.0686
33596ION     NA49065   9.521   4.003  14.478 -0.0216 -0.0733  0.1031
33597ION     NA49066  12.003  10.486  10.421 -0.4282  0.5943  0.1478
33598ION     NA49067  14.617   3.436   3.270  0.0142  0.0808 -0.2973
33599ION     NA49068   5.012   1.386   9.849  0.0689 -0.0966 -0.1549
33600ION     NA49069   7.187  15.888   5.098 -0.3277 -0.1474 -0.2301
33601ION     NA49070  15.417   7.460   0.345  0.0252 -0.0398  0.1396
33602ION     NA49071   1.394  18.103   9.686 -0.1854 -0.3554  0.5581
33603ION     NA49072  12.021  11.537  10.016  0.2256  0.2636  0.1019
33604ION     NA49073  10.160   7.638   9.892 -0.1260  0.0698  0.0551
33605ION     NA49074  16.829   0.692   5.655  0.2243 -0.2235  0.1653
  18.69802  18.69802  15.78291
