INSANE! Membrane UpperLeaflet>loPI:POPI:DPPI:PYPI:ERGO=30.0:5.0:3.0:2.0:10.0 LowerLeaflet>PSPI:POPI:POPS:YOPS:POPE:YOPE:POPC:YOPC:ERGO=6.0:14.0:21.0:9.0:9.0:21.0:12.0:48.0:60.0
49074
    1loPI    C1    1   9.587  14.170   9.717 -0.1017 -0.2195  0.1510
    1loPI    C2    2   9.570  14.332  10.083 -0.1304 -0.2653  0.1699
    1loPI    C3    3   9.889  14.116   9.974 -0.0424 -0.1053  0.1062
    1loPI   PO4    4   9.666  14.367   9.481 -0.1988  0.0688  0.1142
    1loPI   GL1    5   9.687  14.426   9.035  0.1214 -0.1700  0.0147
    1loPI   GL2    6   9.403  14.254   9.031  0.1531  0.1469  0.2300
    1loPI   C1A    7   9.764  14.527   8.603  0.0598 -0.0332  0.0038
    1loPI   C2A    8   9.661  14.553   8.227  0.0978  0.2122  0.0496
    1loPI   C3A    9   9.870  14.661   7.844  0.4074 -0.0075  0.0679
    1loPI   C4A   10  10.112  14.466   7.537  0.0693  0.0735 -0.1760
    1loPI   C5A   11  10.420  14.128   7.529  0.0750 -0.0889 -0.2231
    1loPI   C6A   12  10.843  13.873   7.448  0.1496  0.2376  0.1452
    1loPI   C1B   13   9.374  14.116   8.540 -0.0062  0.0603 -0.1008
    1loPI   C2B   14   9.468  14.125   8.050  0.0213 -0.2701 -0.1310
    1loPI   C3B   15   9.384  14.245   7.679  0.3568 -0.0229 -0.2003
    1loPI   C4B   16   9.333  13.915   7.299 -0.3564  0.1999  0.0480
    2loPI    C1   17   3.293   8.649  10.659 -0.1156  0.0073 -0.0947
    2loPI    C2   18   3.317   8.690  11.056 -0.1020 -0.1412 -0.0799
    2loPI    C3   19   3.173   8.989  10.834  0.1924  0.0677  0.0046
    2loPI   PO4   20   3.530   8.507  10.589  0.0196 -0.1365 -0.1273
    2loPI   GL1   21   3.524   8.267  10.278  0.1591  0.1329 -0.3177
    2loPI   GL2   22   3.324   8.617  10.146  0.0486  0.0103  0.1455
    2loPI   C1A   23   3.395   8.228   9.895  0.0091 -0.1549 -0.1378
    2loPI   C2A   24   3.163   8.213   9.486 -0.0191  0.1810  0.1830
    2loPI   C3A   25   3.083   8.386   9.070 -0.1892  0.0858  0.1223
    2loPI   C4A   26   3.151   8.368   8.678  0.0837  0.1795  0.0098
    2loPI   C5A   27   3.518   8.450   8.405 -0.1963  0.0235 -0.2541
    2loPI   C6A   28   3.900   8.409   8.206 -0.0246 -0.0314 -0.1265
    2loPI   C1B   29   2.990   8.601   9.894  0.0846 -0.0607 -0.1696
    2loPI   C2B   30   2.684   8.278   9.572 -0.0881  0.1545 -0.2325
    2loPI   C3B   31   2.307   7.992   9.538 -0.2390 -0.2962 -0.0148
    2loPI   C4B   32   2.355   7.743   9.187 -0.2128  0.4064  0.0242
    3loPI    C1   33  12.172  10.371   9.924  0.0712  0.1465 -0.0938
    3loPI    C2   34  12.561  10.457   9.956  0.1476 -0.2681  0.1767
    3loPI    C3   35  12.316  10.517  10.267 -0.0410  0.1323 -0.0401
    3loPI   PO4   36  12.039  10.562   9.784  0.0277 -0.1237 -0.4734
    3loPI   GL1   37  12.038  10.653   9.410 -0.0133 -0.0091 -0.3916
    3loPI   GL2   38  12.340  10.837   9.171  0.3981 -0.0749  0.4435
    3loPI   C1A   39  12.172  10.393   9.052 -0.2121 -0.1560  0.2431
    3loPI   C2A   40  12.111  10.302   8.671  0.2410 -0.1273 -0.1897
    3loPI   C3A   41  12.074  10.146   8.244  0.2756  0.0214  0.1595
    3loPI   C4A   42  11.653  10.136   8.047  0.0755  0.1460 -0.0193
    3loPI   C5A   43  11.401  10.069   7.760 -0.0075  0.1734  0.0260
    3loPI   C6A   44  11.208  10.308   7.481 -0.1009  0.0246 -0.1319
    3loPI   C1B   45  12.348  10.773   8.754  0.0835 -0.0849 -0.0309
    3loPI   C2B   46  12.237  10.734   8.380 -0.2601 -0.2920 -0.2024
    3loPI   C3B   47  12.251  10.646   8.050 -0.2304 -0.1211 -0.0577
    3loPI   C4B   48  12.218  10.457   7.685  0.1235  0.1286  0.2324
    4loPI    C1   49  16.248   9.776  10.289  0.1450 -0.0726 -0.1194
    4loPI    C2   50  16.384  10.150  10.246 -0.1939  0.0366 -0.2794
    4loPI    C3   51  16.640   9.851  10.317  0.0655  0.3191  0.0084
    4loPI   PO4   52  16.075   9.733   9.984 -0.2398 -0.1919  0.1100
    4loPI   GL1   53  16.227   9.912   9.695 -0.1279  0.0894  0.1258
    4loPI   GL2   54  16.587   9.845   9.783 -0.0246  0.1526  0.0937
    4loPI   C1A   55  16.155  10.146   9.362 -0.0788  0.1054  0.1076
    4loPI   C2A   56  16.254  10.102   8.834  0.1118 -0.1882  0.1495
    4loPI   C3A   57  16.367   9.846   8.511 -0.2117  0.1881 -0.1881
    4loPI   C4A   58  16.628   9.514   8.334 -0.0658 -0.1235 -0.0964
    4loPI   C5A   59  16.729   9.160   8.049 -0.1130 -0.3045 -0.1764
    4loPI   C6A   60  16.828   8.786   7.786  0.0161  0.3470  0.1835
    4loPI   C1B   61  16.486   9.630   9.373  0.0285  0.2003 -0.0096
    4loPI   C2B   62  16.471   9.461   8.950 -0.1834 -0.1465  0.0126
    4loPI   C3B   63  16.701   9.125   8.675 -0.0293 -0.3326 -0.0012
    4loPI   C4B   64  16.618   8.864   8.426  0.1025  0.1588 -0.1585
    5loPI    C1   65   1.853  15.351  10.323 -0.1287 -0.0004 -0.0812
    5loPI    C2   66   1.699  15.240  10.676  0.0923 -0.1079 -0.0174
    5loPI    C3   67   2.074  15.379  10.655  0.0147  0.0823 -0.1828
    5loPI   PO4   68   1.784  15.165  10.198 -0.0733  0.1231  0.3890
    5loPI   GL1   69   1.860  15.256   9.705 -0.0779  0.2204 -0.0843
    5loPI   GL2   70   1.685  15.386   9.694  0.1575 -0.1667  0.3739
    5loPI   C1A   71   1.786  14.942   9.467 -0.4304 -0.2272  0.2628
    5loPI   C2A   72   1.839  14.908   9.055 -0.0056  0.3253  0.2935
    5loPI   C3A   73   1.932  14.978   8.588 -0.0054 -0.2029 -0.0832
    5loPI   C4A   74   2.065  15.104   8.112  0.1457 -0.0552 -0.0662
    5loPI   C5A   75   1.861  14.786   7.755  0.0896  0.1927  0.0542
    5loPI   C6A   76   1.557  14.468   7.540 -0.3563 -0.1070  0.1120
    5loPI   C1B   77   1.651  15.386   9.250  0.0871  0.0100 -0.1405
    5loPI   C2B   78   1.722  15.479   8.842  0.0362 -0.2853  0.1377
    5loPI   C3B   79   1.931  15.503   8.343  0.2726 -0.1192  0.2421
    5loPI   C4B   80   2.091  15.580   7.844 -0.2482  0.0009 -0.1081
    6loPI    C1   81  12.099   6.640  10.637  0.2234  0.1515  0.0262
    6loPI    C2   82  12.413   6.394  10.656  0.0601 -0.0782 -0.1780
    6loPI    C3   83  12.233   6.515  10.993  0.1642 -0.2086 -0.0744
    6loPI   PO4   84  12.046   6.491  10.361 -0.1652 -0.2273  0.1081
    6loPI   GL1   85  12.288   6.353  10.103 -0.0286  0.1925  0.1758
    6loPI   GL2   86  12.555   6.314  10.131 -0.7033  0.1521  0.3173
    6loPI   C1A   87  12.529   6.494   9.681 -0.0472  0.0825  0.1706
    6loPI   C2A   88  12.540   6.599   9.244 -0.2448  0.0782 -0.0432
    6loPI   C3A   89  12.560   6.580   8.781  0.1940  0.1263 -0.1296
    6loPI   C4A   90  12.563   6.243   8.423  0.1304 -0.0737 -0.3354
    6loPI   C5A   91  12.462   6.102   7.988  0.1523  0.4163 -0.0804
    6loPI   C6A   92  12.759   6.072   7.616 -0.0327  0.2841  0.3585
    6loPI   C1B   93  12.581   5.947   9.915 -0.1362  0.1889  0.0837
    6loPI   C2B   94  12.626   5.873   9.436  0.0615 -0.0344  0.1567
    6loPI   C3B   95  12.476   5.758   8.967 -0.0974 -0.0162 -0.0442
    6loPI   C4B   96  12.326   5.455   8.830  0.0219 -0.0101 -0.0714
    7loPI    C1   97   8.942   5.576  10.176  0.0181  0.0584  0.0138
    7loPI    C2   98   9.051   5.718  10.534  0.0010 -0.0091  0.0460
    7loPI    C3   99   8.781   5.424  10.509 -0.0074  0.0042 -0.0231
    7loPI   PO4  100   8.866   5.731  10.025 -0.1592  0.1607 -0.3266
    7loPI   GL1  101   8.905   5.590   9.680  0.0073 -0.0712  0.2963
    7loPI   GL2  102   9.233   5.521   9.702 -0.1561  0.0118 -0.2594
    7loPI   C1A  103   8.904   5.547   9.317  0.0422 -0.2249 -0.1958
    7loPI   C2A  104   8.939   5.441   8.884  0.0134  0.1472  0.0099
    7loPI   C3A  105   8.937   5.226   8.550 -0.1138  0.3865 -0.1718
    7loPI   C4A  106   8.996   4.889   8.208  0.0120  0.0099 -0.1129
    7loPI   C5A  107   8.923   4.584   7.914  0.0121 -0.1199 -0.4154
    7loPI   C6A  108   9.227   4.552   7.576 -0.2247  0.2352 -0.0172
    7loPI   C1B  109   9.420   5.549   9.253 -0.1544 -0.3042 -0.0722
    7loPI   C2B  110   9.401   5.728   8.917  0.1565  0.0434 -0.1095
    7loPI   C3B  111   9.371   5.556   8.614  0.0359  0.2574 -0.0530
    7loPI   C4B  112   9.250   5.419   8.144 -0.2164 -0.0127  0.2222
    8loPI    C1  113  12.776  10.953  10.025  0.0326  0.0459 -0.0448
    8loPI    C2  114  12.999  10.680  10.215 -0.0000 -0.0593 -0.1565
    8loPI    C3  115  12.849  10.992  10.417 -0.3804 -0.3880  0.0844
    8loPI   PO4  116  12.929  10.969   9.759 -0.2250  0.0471  0.1892
    8loPI   GL1  117  12.912  10.883   9.309  0.0264  0.0016  0.1691
    8loPI   GL2  118  13.085  10.767   9.324 -0.1504 -0.2886 -0.0098
    8loPI   C1A  119  12.816  10.952   8.896  0.0322 -0.1852  0.1314
    8loPI   C2A  120  12.906  10.894   8.552  0.0939  0.0746  0.2235
    8loPI   C3A  121  12.871  10.686   8.120 -0.2895 -0.1939  0.2529
    8loPI   C4A  122  12.675  10.563   7.797  0.1281  0.2455  0.0445
    8loPI   C5A  123  12.545  10.629   7.397  0.1749 -0.2401  0.0053
    8loPI   C6A  124  12.117  10.474   7.182  0.2609  0.1819 -0.0490
    8loPI   C1B  125  13.178  10.643   8.882  0.0678 -0.1065 -0.1261
    8loPI   C2B  126  13.207  10.524   8.457 -0.2886  0.3171 -0.1294
    8loPI   C3B  127  13.438  10.348   8.150  0.3892 -0.0612  0.0500
    8loPI   C4B  128  13.705  10.374   7.808  0.0440  0.0422  0.0089
    9loPI    C1  129   8.838   1.123  10.321 -0.0483  0.1626 -0.0564
    9loPI    C2  130   8.612   0.794  10.347  0.2195 -0.0245 -0.0438
    9loPI    C3  131   8.529   1.113  10.575 -0.0091 -0.1018 -0.0159
    9loPI   PO4  132   8.867   1.124  10.038  0.3169 -0.0600 -0.0507
    9loPI   GL1  133   8.800   0.956   9.624  0.1939  0.0321  0.0983
    9loPI   GL2  134   9.144   1.086   9.607  0.0881  0.1048 -0.0655
    9loPI   C1A  135   8.653   0.952   9.256  0.0365 -0.2595  0.3382
    9loPI   C2A  136   8.655   1.049   8.946 -0.1112 -0.2265  0.0424
    9loPI   C3A  137   8.584   1.230   8.477 -0.4326 -0.1149  0.0909
    9loPI   C4A  138   8.553   1.430   8.130  0.1422  0.1302 -0.0504
    9loPI   C5A  139   8.402   1.346   7.709  0.0009 -0.0452  0.1326
    9loPI   C6A  140   8.566   1.250   7.185 -0.0600 -0.1956  0.2730
    9loPI   C1B  141   9.094   1.226   9.139 -0.1669 -0.0255 -0.1722
    9loPI   C2B  142   9.243   1.111   8.826  0.1057 -0.2118 -0.1932
    9loPI   C3B  143   9.160   1.112   8.420  0.1955 -0.0496 -0.0020
    9loPI   C4B  144   9.434   1.263   7.991 -0.1360  0.2422 -0.0308
   10loPI    C1  145  12.526   7.296  10.315 -0.0634 -0.2514  0.3459
   10loPI    C2  146  12.888   7.347  10.476  0.0354  0.0813  0.0318
   10loPI    C3  147  12.570   7.527  10.639  0.0772  0.1250  0.0657
   10loPI   PO4  148  12.601   7.261  10.075 -0.2113  0.0535 -0.2163
   10loPI   GL1  149  12.531   7.510   9.663  0.2009 -0.1293 -0.1149
   10loPI   GL2  150  12.754   7.244   9.612 -0.2191 -0.1374 -0.3158
   10loPI   C1A  151  12.396   7.564   9.207  0.0278  0.1760 -0.1911
   10loPI   C2A  152  12.432   7.606   8.682  0.0762 -0.0628 -0.1555
   10loPI   C3A  153  12.507   7.486   8.163 -0.1861  0.0122  0.0787
   10loPI   C4A  154  12.421   7.289   7.669 -0.0355  0.0652 -0.3156
   10loPI   C5A  155  12.273   7.141   7.232  0.1609  0.2190  0.3435
   10loPI   C6A  156  12.141   7.147   6.788 -0.2369 -0.1871  0.3102
   10loPI   C1B  157  12.688   7.158   9.291 -0.0159  0.2997 -0.2732
   10loPI   C2B  158  12.804   7.043   8.938  0.0096  0.0498  0.1348
   10loPI   C3B  159  13.001   6.917   8.608 -0.1754 -0.0091  0.1874
   10loPI   C4B  160  13.168   6.736   8.235  0.0011 -0.1536 -0.1554
   11loPI    C1  161  10.424   6.372  10.244 -0.0796 -0.0212  0.1480
   11loPI    C2  162  10.311   6.750  10.308 -0.0213  0.0009  0.1210
   11loPI    C3  163  10.543   6.563  10.575 -0.0023  0.0035  0.1061
   11loPI   PO4  164  10.367   6.297   9.997  0.1306 -0.1122  0.1628
   11loPI   GL1  165  10.455   5.923   9.695 -0.0013  0.0264 -0.1685
   11loPI   GL2  166  10.274   5.610   9.673  0.2558  0.1589 -0.2327
   11loPI   C1A  167  10.797   5.993   9.348  0.1701  0.0975  0.3042
   11loPI   C2A  168  10.886   6.005   8.950  0.2847 -0.0912 -0.2917
   11loPI   C3A  169  10.853   5.668   8.713 -0.1434  0.2101 -0.0998
   11loPI   C4A  170  10.740   5.517   8.346 -0.0997  0.2691  0.0009
   11loPI   C5A  171  10.417   5.446   8.148 -0.4161  0.0860 -0.1590
   11loPI   C6A  172  10.147   5.228   7.895 -0.0989  0.3381 -0.0818
   11loPI   C1B  173  10.470   5.543   9.390  0.0665  0.1661  0.0068
   11loPI   C2B  174  10.465   5.396   8.847 -0.2305  0.2634 -0.1412
   11loPI   C3B  175  10.655   5.099   8.739 -0.1698  0.3193 -0.3320
   11loPI   C4B  176  11.027   5.019   8.465 -0.1821  0.1389 -0.2618
   12loPI    C1  177  15.861   8.824  10.521  0.2907 -0.1226  0.1219
   12loPI    C2  178  15.965   8.685  10.881  0.0769  0.1781  0.3044
   12loPI    C3  179  15.579   8.740  10.792  0.1341  0.2038  0.0652
   12loPI   PO4  180  16.162   8.858  10.424  0.0677  0.1394 -0.1506
   12loPI   GL1  181  16.467   8.868  10.117  0.2799  0.3458  0.0528
   12loPI   GL2  182  16.788   8.980  10.109 -0.2713  0.1173 -0.0374
   12loPI   C1A  183  16.188   8.520   9.843 -0.1847 -0.1241  0.2721
   12loPI   C2A  184  16.099   8.292   9.536 -0.1850  0.3562 -0.1451
   12loPI   C3A  185  15.973   8.252   9.097 -0.2222 -0.0596  0.0248
   12loPI   C4A  186  16.110   8.224   8.714  0.1982  0.3011  0.0830
   12loPI   C5A  187  15.868   7.845   8.474  0.0859  0.3692  0.0096
   12loPI   C6A  188  15.527   7.664   8.282 -0.0899  0.0878 -0.0366
   12loPI   C1B  189  16.654   8.904   9.686 -0.1708  0.0068 -0.0903
   12loPI   C2B  190  16.604   9.034   9.302  0.1820  0.0435  0.2262
   12loPI   C3B  191  16.794   8.890   9.075  0.3222  0.1059  0.0340
   12loPI   C4B  192  17.080   8.801   8.641 -0.1644  0.0368 -0.0800
   13loPI    C1  193  12.634   8.685  10.195  0.0814  0.3224 -0.0966
   13loPI    C2  194  12.981   8.505  10.282 -0.1636 -0.1429 -0.0490
   13loPI    C3  195  12.826   8.773  10.535  0.1322  0.0304 -0.0467
   13loPI   PO4  196  12.709   8.828   9.959  0.1273 -0.2840 -0.1590
   13loPI   GL1  197  12.569   8.674   9.647  0.2021 -0.1918  0.1445
   13loPI   GL2  198  12.702   8.554   9.372  0.1666  0.5130 -0.3123
   13loPI   C1A  199  12.142   8.716   9.381  0.2991  0.0362 -0.2446
   13loPI   C2A  200  11.932   8.773   9.028  0.0793 -0.1285  0.0104
   13loPI   C3A  201  11.773   8.770   8.674 -0.2814  0.0727  0.6382
   13loPI   C4A  202  11.716   8.659   8.328  0.1184 -0.5915 -0.0328
   13loPI   C5A  203  11.869   8.718   7.958  0.0781  0.1766  0.2108
   13loPI   C6A  204  11.814   9.036   7.571 -0.1075  0.0648 -0.0127
   13loPI   C1B  205  13.170   8.568   9.131 -0.1276 -0.1351 -0.0106
   13loPI   C2B  206  13.324   8.685   8.718 -0.0175 -0.3030 -0.0911
   13loPI   C3B  207  13.152   8.581   8.298  0.1490  0.3722  0.0459
   13loPI   C4B  208  12.743   8.531   8.053 -0.4937  0.0579  0.3257
   14loPI    C1  209   9.893  12.375  10.225 -0.1723 -0.0626  0.0248
   14loPI    C2  210   9.511  12.477  10.283 -0.1650 -0.0550  0.0604
   14loPI    C3  211   9.749  12.403  10.596 -0.0542  0.2441  0.0505
   14loPI   PO4  212   9.845  12.144  10.005 -0.0409 -0.3354 -0.2305
   14loPI   GL1  213   9.915  12.041   9.546  0.1113  0.2804 -0.1213
   14loPI   GL2  214  10.186  12.043   9.387  0.4054 -0.1113 -0.2196
   14loPI   C1A  215   9.765  11.967   9.199  0.3410 -0.4644  0.1149
   14loPI   C2A  216   9.692  12.089   8.785  0.1909  0.2262 -0.1087
   14loPI   C3A  217   9.581  12.016   8.328 -0.1406 -0.3126  0.1885
   14loPI   C4A  218   9.583  12.153   7.871 -0.0460  0.1848  0.1927
   14loPI   C5A  219   9.973  12.285   7.598 -0.1761  0.2922  0.2556
   14loPI   C6A  220  10.060  12.709   7.456  0.0018 -0.1094 -0.2721
   14loPI   C1B  221  10.164  11.878   8.919 -0.2503 -0.1627 -0.0798
   14loPI   C2B  222  10.015  11.777   8.499  0.0227 -0.2024 -0.5628
   14loPI   C3B  223  10.159  11.781   8.111  0.1262  0.0660 -0.1077
   14loPI   C4B  224  10.249  11.920   7.810 -0.1418  0.0556 -0.1123
   15loPI    C1  225  12.610  14.739  10.098 -0.0056 -0.1716  0.0861
   15loPI    C2  226  12.294  14.742  10.343 -0.0604  0.0220  0.0149
   15loPI    C3  227  12.664  14.738  10.494 -0.0952 -0.0521  0.0992
   15loPI   PO4  228  12.536  14.582   9.855 -0.0525  0.0571  0.3148
   15loPI   GL1  229  12.157  14.681   9.505  0.1018 -0.1041 -0.0955
   15loPI   GL2  230  12.294  14.977   9.594 -0.1239  0.2905 -0.2819
   15loPI   C1A  231  12.127  14.858   9.058  0.0090  0.2017  0.2169
   15loPI   C2A  232  12.146  14.706   8.641 -0.2807 -0.0284  0.2765
   15loPI   C3A  233  12.332  14.714   8.201  0.2189  0.0057 -0.2739
   15loPI   C4A  234  12.311  15.077   7.982  0.1298 -0.2828 -0.0622
   15loPI   C5A  235  12.359  15.451   7.864  0.0881  0.1496  0.0050
   15loPI   C6A  236  12.254  15.816   7.539  0.0956  0.0488  0.2749
   15loPI   C1B  237  12.468  15.113   9.209 -0.0312  0.1333 -0.0274
   15loPI   C2B  238  12.622  15.080   8.799  0.1204  0.1428  0.0450
   15loPI   C3B  239  12.673  15.109   8.310  0.0216 -0.4075 -0.0960
   15loPI   C4B  240  12.774  14.961   7.828  0.0715  0.1334 -0.2122
   16loPI    C1  241   0.078  10.508  10.257  0.0519 -0.0242 -0.0969
   16loPI    C2  242   0.151  10.753  10.565  0.0815 -0.0073 -0.1172
   16loPI    C3  243   0.161  10.357  10.617 -0.0281 -0.0044 -0.0697
   16loPI   PO4  244   0.163  10.571  10.101 -0.1256  0.0506 -0.1156
   16loPI   GL1  245   0.466  10.616   9.845 -0.1619 -0.2614  0.0681
   16loPI   GL2  246   0.301  10.887   9.672  0.3160  0.0330  0.1539
   16loPI   C1A  247   0.679  10.563   9.509  0.0416 -0.1538  0.1112
   16loPI   C2A  248   0.797  10.624   9.114 -0.0768 -0.1175  0.2722
   16loPI   C3A  249   0.957  10.486   8.711  0.0195  0.0538 -0.0134
   16loPI   C4A  250   1.147  10.421   8.334  0.2111 -0.3033  0.0318
   16loPI   C5A  251   1.034  10.217   7.981 -0.2631  0.1643  0.0964
   16loPI   C6A  252   1.015  10.429   7.531 -0.0773 -0.0451 -0.2662
   16loPI   C1B  253   0.363  10.844   9.276 -0.3975 -0.1918 -0.0101
   16loPI   C2B  254   0.483  10.938   8.808 -0.1375 -0.1455  0.0201
   16loPI   C3B  255   0.649  10.825   8.442 -0.3256 -0.0124  0.2341
   16loPI   C4B  256   0.860  10.659   8.051  0.0777  0.0946 -0.1736
   17loPI    C1  257   2.707   7.863  10.448 -0.3205 -0.2034 -0.1697
   17loPI    C2  258   2.553   8.228  10.499  0.3176  0.0648 -0.0668
   17loPI    C3  259   2.633   7.999  10.817  0.0041 -0.1348 -0.1270
   17loPI   PO4  260   2.567   7.671  10.280  0.3785 -0.1537  0.1900
   17loPI   GL1  261   2.804   7.513   9.972  0.2579  0.1417 -0.2568
   17loPI   GL2  262   3.046   7.682  10.108  0.3060 -0.1078 -0.1275
   17loPI   C1A  263   2.851   7.829   9.647  0.1056 -0.1394  0.1498
   17loPI   C2A  264   2.807   7.948   9.237 -0.2219  0.0696  0.4443
   17loPI   C3A  265   2.746   8.094   8.739  0.0851  0.2523 -0.1028
   17loPI   C4A  266   2.949   8.077   8.329  0.4349 -0.0231 -0.0469
   17loPI   C5A  267   3.128   8.198   7.965  0.1115 -0.2339 -0.1228
   17loPI   C6A  268   2.961   7.966   7.643  0.1977  0.0834  0.0948
   17loPI   C1B  269   3.356   7.733   9.770  0.1272 -0.0027 -0.1362
   17loPI   C2B  270   3.230   7.499   9.399  0.1699 -0.1596 -0.0451
   17loPI   C3B  271   3.149   7.473   9.029  0.0069  0.0613 -0.0216
   17loPI   C4B  272   3.216   7.329   8.653 -0.0373  0.3454  0.2233
   18loPI    C1  273  11.636  16.012  10.197 -0.1860  0.1425  0.0214
   18loPI    C2  274  11.473  16.089  10.554  0.1315  0.1910  0.1596
   18loPI    C3  275  11.723  15.780  10.510  0.0908  0.1825 -0.0230
   18loPI   PO4  276  11.536  16.258  10.075 -0.2053  0.0171  0.1666
   18loPI   GL1  277  11.551  16.752   9.848 -0.2749 -0.3083  0.1070
   18loPI   GL2  278  11.838  16.862   9.739 -0.0169  0.5145 -0.1690
   18loPI   C1A  279  11.534  16.583   9.429 -0.1227 -0.1930  0.0112
   18loPI   C2A  280  11.693  16.772   9.122 -0.2810  0.1999  0.0186
   18loPI   C3A  281  11.764  16.742   8.748 -0.4470 -0.0984 -0.1070
   18loPI   C4A  282  11.677  16.721   8.259 -0.1550  0.4803 -0.0523
   18loPI   C5A  283  11.859  16.678   7.885  0.2524  0.0315 -0.0784
   18loPI   C6A  284  12.239  16.331   7.746 -0.0405  0.1742  0.2332
   18loPI   C1B  285  12.096  16.809   9.385  0.1490  0.1021  0.1791
   18loPI   C2B  286  12.246  16.749   8.907  0.0848 -0.0306  0.0282
   18loPI   C3B  287  12.190  16.791   8.451  0.0999 -0.0659 -0.0226
   18loPI   C4B  288  12.361  16.770   8.052 -0.2402  0.2595 -0.2619
   19loPI    C1  289   1.939  10.268  10.278  0.1047  0.0065 -0.1203
   19loPI    C2  290   2.297  10.147  10.147  0.1173  0.2672 -0.3370
   19loPI    C3  291   2.272  10.402  10.454  0.1030 -0.0004 -0.1118
   19loPI   PO4  292   1.814  10.146  10.106  0.1449  0.0043 -0.0627
   19loPI   GL1  293   1.877   9.932   9.763 -0.1048 -0.1463 -0.1946
   19loPI   GL2  294   2.199   9.954   9.731  0.1119  0.0831  0.1092
   19loPI   C1A  295   1.825   9.776   9.420 -0.4085 -0.1597  0.0119
   19loPI   C2A  296   1.751   9.841   9.026 -0.2105  0.1640  0.1192
   19loPI   C3A  297   1.743   9.792   8.605  0.0348  0.2450  0.4930
   19loPI   C4A  298   1.583   9.662   8.095  0.3636 -0.2163  0.1851
   19loPI   C5A  299   1.585   9.736   7.705 -0.0285 -0.1245  0.2319
   19loPI   C6A  300   1.372   9.972   7.368  0.1574 -0.0041  0.1777
   19loPI   C1B  301   2.176  10.116   9.314 -0.3008  0.1123  0.1740
   19loPI   C2B  302   2.180  10.179   8.936  0.2741 -0.3637  0.2553
   19loPI   C3B  303   2.167  10.117   8.566 -0.1397  0.0310 -0.0618
   19loPI   C4B  304   2.469  10.053   8.173 -0.0251 -0.0037  0.4276
   20loPI    C1  305   5.214   8.807  10.880 -0.0607 -0.2195 -0.0836
   20loPI    C2  306   5.556   8.638  11.000  0.0230  0.1242  0.1753
   20loPI    C3  307   5.469   9.013  11.108 -0.4624  0.0225  0.1585
   20loPI   PO4  308   5.162   8.749  10.593 -0.1262  0.0544  0.3076
   20loPI   GL1  309   5.114   8.857  10.075  0.1193  0.1304 -0.3491
   20loPI   GL2  310   5.436   8.663  10.068 -0.2697 -0.3257  0.2730
   20loPI   C1A  311   5.201   9.040   9.750 -0.1905 -0.1454 -0.0652
   20loPI   C2A  312   5.299   8.996   9.291  0.2090 -0.1008 -0.1927
   20loPI   C3A  313   5.083   8.898   8.954 -0.0761  0.0312 -0.0542
   20loPI   C4A  314   4.743   8.904   8.652 -0.2322 -0.2563  0.0042
   20loPI   C5A  315   4.757   9.248   8.324  0.0340 -0.3459  0.1211
   20loPI   C6A  316   4.919   9.585   8.164  0.0963 -0.0147 -0.3030
   20loPI   C1B  317   5.390   8.597   9.613  0.3232 -0.1663 -0.1229
   20loPI   C2B  318   5.375   8.472   9.140  0.0796  0.0246  0.0190
   20loPI   C3B  319   5.600   8.488   8.788  0.3205 -0.1615  0.1699
   20loPI   C4B  320   5.772   8.609   8.494 -0.3910  0.1213 -0.1382
   21loPI    C1  321   4.427   2.914  10.273  0.1217 -0.0953  0.0825
   21loPI    C2  322   4.411   3.138  10.604  0.0374  0.1972 -0.1155
   21loPI    C3  323   4.094   2.921  10.495  0.0558  0.1216 -0.0210
   21loPI   PO4  324   4.440   3.060  10.115 -0.0527 -0.1366  0.0487
   21loPI   GL1  325   4.192   3.209   9.884 -0.2098 -0.1616  0.2594
   21loPI   GL2  326   3.897   3.159   9.799  0.1024 -0.1316  0.2282
   21loPI   C1A  327   4.234   3.592   9.634  0.1270  0.0299  0.2836
   21loPI   C2A  328   4.436   3.776   9.221 -0.0855 -0.1470  0.2347
   21loPI   C3A  329   4.550   3.915   8.808 -0.2085 -0.0995  0.0153
   21loPI   C4A  330   4.631   4.359   8.569 -0.0614  0.0394 -0.2472
   21loPI   C5A  331   4.492   4.611   8.188 -0.1495 -0.0766  0.2099
   21loPI   C6A  332   4.631   4.735   7.774 -0.1658 -0.2849 -0.2357
   21loPI   C1B  333   3.934   3.135   9.401 -0.0697  0.0785  0.0016
   21loPI   C2B  334   3.934   3.240   8.931 -0.1357  0.1774  0.0479
   21loPI   C3B  335   3.870   3.180   8.589 -0.2041  0.2325 -0.0834
   21loPI   C4B  336   3.655   3.078   8.331 -0.0508  0.4860 -0.2486
   22loPI    C1  337  10.164   3.577  10.651  0.0919  0.0788  0.2750
   22loPI    C2  338   9.839   3.706  10.843  0.0102 -0.0981  0.2580
   22loPI    C3  339   9.907   3.314  10.808  0.0933 -0.0654  0.0407
   22loPI   PO4  340  10.211   3.652  10.443 -0.3030 -0.1636  0.3986
   22loPI   GL1  341  10.067   3.536   9.994  0.0546 -0.4121 -0.0879
   22loPI   GL2  342  10.381   3.777  10.006  0.5622 -0.0140 -0.1246
   22loPI   C1A  343   9.865   3.420   9.593 -0.1851 -0.2278  0.1661
   22loPI   C2A  344   9.851   3.363   9.196  0.0510 -0.3967 -0.0827
   22loPI   C3A  345   9.744   3.383   8.824 -0.2474 -0.1966 -0.0295
   22loPI   C4A  346   9.693   3.434   8.364 -0.0680 -0.3273 -0.0731
   22loPI   C5A  347   9.604   3.730   8.053  0.3215  0.2543 -0.0304
   22loPI   C6A  348   9.317   3.671   7.927  0.1831  0.4234 -0.1252
   22loPI   C1B  349  10.392   3.607   9.553 -0.0263 -0.2307  0.0902
   22loPI   C2B  350  10.329   3.203   9.292 -0.0353  0.3016 -0.0480
   22loPI   C3B  351  10.298   3.226   8.872  0.0291 -0.1421 -0.2000
   22loPI   C4B  352  10.219   3.403   8.351 -0.1619  0.0363 -0.0445
   23loPI    C1  353  17.669   0.415  10.768 -0.1133 -0.2212 -0.0891
   23loPI    C2  354  17.996   0.184  10.785  0.0824  0.0672  0.1795
   23loPI    C3  355  18.028   0.581  10.829 -0.2619  0.1410 -0.1726
   23loPI   PO4  356  17.513   0.382  10.429  0.1193  0.0751 -0.2749
   23loPI   GL1  357  17.165   0.333  10.022 -0.0697 -0.1799 -0.0691
   23loPI   GL2  358  16.936   0.432   9.749  0.1043  0.1078  0.2966
   23loPI   C1A  359  17.385   0.308   9.521  0.0630 -0.2333 -0.1455
   23loPI   C2A  360  17.492   0.281   9.119 -0.2120  0.1194  0.2333
   23loPI   C3A  361  17.537   0.301   8.667  0.0460 -0.0164  0.0403
   23loPI   C4A  362  17.628   0.335   8.189 -0.3175 -0.1568  0.1344
   23loPI   C5A  363  17.848   0.526   7.958  0.2115 -0.0243  0.1137
   23loPI   C6A  364  18.047   0.816   7.664 -0.1998 -0.0637 -0.1907
   23loPI   C1B  365  16.914   0.252   9.344 -0.0120  0.2158 -0.0522
   23loPI   C2B  366  16.986   0.176   8.891 -0.1124 -0.0893 -0.0621
   23loPI   C3B  367  17.038   0.428   8.578 -0.0233 -0.3189 -0.3206
   23loPI   C4B  368  17.193   0.592   8.195  0.4872  0.2048  0.2352
   24loPI    C1  369   4.196   9.800  10.884 -0.0056 -0.1943 -0.1823
   24loPI    C2  370   3.895   9.592  11.045 -0.0905  0.0997  0.0490
   24loPI    C3  371   3.866   9.989  11.008  0.2979  0.1408  0.1412
   24loPI   PO4  372   4.289   9.725  10.714 -0.1815 -0.1222 -0.0170
   24loPI   GL1  373   4.443   9.826  10.310 -0.1666 -0.4099  0.0624
   24loPI   GL2  374   4.499   9.662  10.141 -0.3850 -0.0287  0.2259
   24loPI   C1A  375   4.354  10.073   9.995  0.2113  0.0384  0.1727
   24loPI   C2A  376   4.159  10.110   9.615 -0.1557 -0.3038 -0.0607
   24loPI   C3A  377   4.120   9.927   9.212 -0.1834  0.1804  0.1809
   24loPI   C4A  378   4.031   9.765   8.810  0.0347 -0.0534 -0.0189
   24loPI   C5A  379   4.005   9.461   8.579  0.0787 -0.0497  0.0897
   24loPI   C6A  380   3.812   9.476   8.174 -0.2220  0.3612 -0.2680
   24loPI   C1B  381   4.422   9.709   9.667  0.3896  0.1720  0.0764
   24loPI   C2B  382   4.396   9.539   9.396  0.0557 -0.0394  0.0204
   24loPI   C3B  383   4.543   9.510   8.993  0.0671 -0.0698  0.0648
   24loPI   C4B  384   4.548   9.609   8.615 -0.0821 -0.2010  0.0004
   25loPI    C1  385  13.959   9.455   9.997  0.0238  0.0075 -0.0866
   25loPI    C2  386  14.358   9.463   9.976  0.0251  0.1829 -0.0111
   25loPI    C3  387  14.178   9.369  10.321  0.0011  0.1666 -0.0279
   25loPI   PO4  388  13.902   9.598   9.809  0.3678 -0.2179  0.2283
   25loPI   GL1  389  13.999   9.706   9.368  0.0738  0.1256  0.0183
   25loPI   GL2  390  13.673   9.832   9.309  0.0665  0.3790 -0.1495
   25loPI   C1A  391  14.367   9.788   9.155  0.1518 -0.0287  0.4183
   25loPI   C2A  392  14.652   9.868   8.862 -0.2164  0.0638  0.0482
   25loPI   C3A  393  14.838   9.759   8.390  0.3274  0.3904 -0.1064
   25loPI   C4A  394  15.001   9.777   8.082 -0.0692 -0.0598  0.1863
   25loPI   C5A  395  15.230   9.879   7.669  0.0334  0.0287 -0.1789
   25loPI   C6A  396  15.245   9.719   7.264 -0.1046 -0.1621  0.3543
   25loPI   C1B  397  13.857   9.607   8.908  0.0577 -0.1654  0.2150
   25loPI   C2B  398  13.882   9.559   8.456 -0.1737  0.0316  0.0484
   25loPI   C3B  399  14.052   9.165   8.289  0.2418 -0.0666  0.2402
   25loPI   C4B  400  14.218   8.842   8.281 -0.1974 -0.2151 -0.1451
   26loPI    C1  401  10.007   5.411  10.498 -0.0973  0.2301 -0.1973
   26loPI    C2  402  10.160   5.724  10.695 -0.2854  0.2635 -0.1014
   26loPI    C3  403   9.933   5.457  10.888 -0.0456  0.0113 -0.1603
   26loPI   PO4  404  10.198   5.312  10.330 -0.0028  0.0373  0.2472
   26loPI   GL1  405  10.081   5.171   9.851  0.0150  0.0619  0.1343
   26loPI   GL2  406  10.298   4.926   9.967 -0.0703  0.0016  0.2039
   26loPI   C1A  407  10.157   5.151   9.415 -0.1246 -0.0731 -0.2855
   26loPI   C2A  408  10.192   4.972   8.970 -0.1320 -0.2377 -0.2954
   26loPI   C3A  409  10.356   4.738   8.601 -0.1812  0.1808 -0.1846
   26loPI   C4A  410  10.323   4.520   8.291 -0.1185 -0.1289  0.0441
   26loPI   C5A  411  10.175   4.264   7.900 -0.0326 -0.1085 -0.0613
   26loPI   C6A  412   9.778   4.080   7.761  0.0687 -0.1994 -0.3237
   26loPI   C1B  413  10.604   5.059   9.628  0.0366 -0.2330  0.1983
   26loPI   C2B  414  10.803   4.949   9.256  0.0622 -0.1668  0.2041
   26loPI   C3B  415  11.113   4.738   8.913  0.0592  0.0158  0.3291
   26loPI   C4B  416  11.352   4.673   8.625 -0.3260 -0.0909  0.1991
   27loPI    C1  417  17.244  13.790   9.974  0.1345  0.1551 -0.0001
   27loPI    C2  418  17.275  14.118  10.201  0.1702  0.0469  0.1533
   27loPI    C3  419  17.462  13.782  10.309  0.2579  0.0180 -0.0825
   27loPI   PO4  420  16.989  13.805   9.909 -0.3015  0.2107  0.1249
   27loPI   GL1  421  16.628  13.891   9.648  0.0106 -0.1958 -0.0372
   27loPI   GL2  422  16.899  14.053   9.500  0.2469 -0.2647 -0.0964
   27loPI   C1A  423  16.456  13.753   9.348 -0.0169 -0.0164  0.0737
   27loPI   C2A  424  16.528  13.748   8.884 -0.0554  0.2713 -0.1680
   27loPI   C3A  425  16.670  13.803   8.562  0.0577 -0.0758 -0.0981
   27loPI   C4A  426  16.886  13.756   8.226 -0.3525 -0.0134  0.2231
   27loPI   C5A  427  16.718  13.606   7.828 -0.2852  0.0706  0.0421
   27loPI   C6A  428  16.682  13.587   7.351 -0.2947  0.2687 -0.0541
   27loPI   C1B  429  16.996  14.063   9.079  0.2368 -0.0504  0.0058
   27loPI   C2B  430  17.085  14.040   8.602  0.0025  0.0848 -0.0512
   27loPI   C3B  431  17.021  14.312   8.211  0.0348 -0.0751  0.0630
   27loPI   C4B  432  16.742  14.174   7.883  0.2121 -0.0828  0.1689
   28loPI    C1  433  11.241  15.617  10.230 -0.3287 -0.0173 -0.1919
   28loPI    C2  434  10.867  15.704  10.343 -0.1053  0.2546  0.3749
   28loPI    C3  435  11.166  15.720  10.609  0.2729 -0.2435  0.0002
   28loPI   PO4  436  11.221  15.714  10.019 -0.0645 -0.4284  0.0108
   28loPI   GL1  437  11.247  16.005   9.713  0.2772  0.0900  0.0550
   28loPI   GL2  438  11.062  16.356   9.714 -0.3044 -0.0079  0.0093
   28loPI   C1A  439  11.398  16.128   9.408 -0.0924 -0.0671  0.2861
   28loPI   C2A  440  11.417  16.189   9.020  0.1426 -0.2951 -0.1205
   28loPI   C3A  441  11.451  16.325   8.628 -0.2267 -0.0631 -0.0466
   28loPI   C4A  442  11.409  16.271   8.172 -0.1642 -0.4134  0.1578
   28loPI   C5A  443  11.418  16.470   7.781 -0.0163 -0.1074 -0.1207
   28loPI   C6A  444  11.519  16.417   7.355 -0.0876 -0.1006 -0.0069
   28loPI   C1B  445  11.054  16.499   9.318 -0.1770  0.0838  0.0935
   28loPI   C2B  446  11.232  16.694   9.021  0.0537 -0.0971  0.0245
   28loPI   C3B  447  11.223  16.777   8.517 -0.2596  0.1195 -0.1834
   28loPI   C4B  448  11.188  16.928   8.081  0.0747  0.0709  0.1327
   29loPI    C1  449  12.777  16.197  10.594  0.0435  0.0987  0.4248
   29loPI    C2  450  12.637  15.824  10.563 -0.0057  0.1382  0.1435
   29loPI    C3  451  12.828  15.939  10.895 -0.2827 -0.0370  0.3683
   29loPI   PO4  452  12.960  16.192  10.378 -0.0465 -0.1088 -0.2369
   29loPI   GL1  453  13.057  16.099   9.864  0.0888  0.0097 -0.0962
   29loPI   GL2  454  12.780  16.301   9.705  0.0873 -0.1171  0.4291
   29loPI   C1A  455  13.165  15.856   9.555 -0.0605  0.1871  0.2954
   29loPI   C2A  456  13.321  15.914   9.156  0.2259 -0.0833  0.0434
   29loPI   C3A  457  13.255  15.796   8.668 -0.0733 -0.1244 -0.2517
   29loPI   C4A  458  13.002  15.923   8.283  0.1469 -0.0691  0.1975
   29loPI   C5A  459  13.119  16.138   7.822 -0.0865  0.1703 -0.0464
   29loPI   C6A  460  12.816  16.121   7.461 -0.1489  0.0167 -0.0898
   29loPI   C1B  461  12.840  16.123   9.317  0.0670 -0.1392  0.0765
   29loPI   C2B  462  12.942  16.187   8.903 -0.0413 -0.1850 -0.4014
   29loPI   C3B  463  12.987  16.328   8.558  0.0288 -0.1183 -0.3068
   29loPI   C4B  464  13.365  16.304   8.280  0.2985  0.1291  0.0103
   30loPI    C1  465  10.738  13.220  10.031  0.0748 -0.0527  0.1578
   30loPI    C2  466  10.511  13.442   9.789  0.0274  0.0287  0.2757
   30loPI    C3  467  10.568  13.555  10.168 -0.0530 -0.1966  0.3566
   30loPI   PO4  468  11.110  13.228   9.833  0.3359  0.2628 -0.0415
   30loPI   GL1  469  11.062  13.139   9.408 -0.0039  0.3308 -0.0448
   30loPI   GL2  470  10.827  13.284   9.398  0.0005 -0.0353 -0.1617
   30loPI   C1A  471  11.073  12.922   9.135 -0.1481 -0.3676 -0.1216
   30loPI   C2A  472  11.182  12.894   8.801  0.1822 -0.2145  0.1595
   30loPI   C3A  473  11.142  12.733   8.418  0.1861 -0.4208 -0.1297
   30loPI   C4A  474  11.000  12.522   8.100 -0.1139  0.0026  0.0256
   30loPI   C5A  475  11.313  12.460   7.753 -0.0545  0.4829  0.2101
   30loPI   C6A  476  11.784  12.571   7.629 -0.1115 -0.2689  0.0253
   30loPI   C1B  477  10.741  13.263   8.910  0.1257 -0.3904  0.0788
   30loPI   C2B  478  10.823  13.199   8.485  0.0318  0.2166  0.0024
   30loPI   C3B  479  10.865  13.046   8.050  0.0665  0.0071  0.1271
   30loPI   C4B  480  10.649  12.814   7.732 -0.1990 -0.2498 -0.1347
   31loPI    C1  481  13.974   5.061  10.840  0.0108 -0.1410  0.2524
   31loPI    C2  482  14.051   5.450  10.785 -0.3242 -0.0892  0.1285
   31loPI    C3  483  13.996   5.308  11.155  0.0726 -0.0755  0.1976
   31loPI   PO4  484  14.136   4.913  10.642 -0.0226 -0.2748 -0.1936
   31loPI   GL1  485  14.048   4.949  10.149  0.2481  0.0339  0.2432
   31loPI   GL2  486  13.836   5.019   9.995  0.0066 -0.0086 -0.2017
   31loPI   C1A  487  13.663   4.625  10.035 -0.0546  0.4158 -0.2474
   31loPI   C2A  488  13.440   4.600   9.719 -0.0696 -0.1804 -0.0702
   31loPI   C3A  489  13.365   4.619   9.374  0.1548 -0.2591  0.0052
   31loPI   C4A  490  13.369   4.606   8.830 -0.0704  0.1052  0.2161
   31loPI   C5A  491  13.208   4.803   8.534 -0.2333 -0.0123  0.1186
   31loPI   C6A  492  12.929   4.640   8.278  0.1889 -0.2379 -0.0408
   31loPI   C1B  493  13.654   5.010   9.548 -0.1904  0.1961  0.1889
   31loPI   C2B  494  13.636   4.973   9.177 -0.0339 -0.3095 -0.0030
   31loPI   C3B  495  13.863   4.803   8.986  0.2973  0.1468 -0.4605
   31loPI   C4B  496  13.938   4.727   8.587 -0.2080 -0.1692  0.0589
   32loPI    C1  497   3.361  18.211  10.234 -0.2592  0.1803 -0.0586
   32loPI    C2  498   3.482  18.541  10.425  0.0787  0.0873 -0.1048
   32loPI    C3  499   3.368  18.220  10.634 -0.2431  0.2272 -0.0598
   32loPI   PO4  500   3.560  18.212  10.019 -0.1357 -0.1149 -0.0733
   32loPI   GL1  501   3.567  17.955   9.660  0.2950  0.1542  0.2323
   32loPI   GL2  502   3.435  18.326   9.569  0.1247  0.0751  0.1925
   32loPI   C1A  503   3.651  17.822   9.239  0.0563  0.2948 -0.2181
   32loPI   C2A  504   3.630  17.881   8.846  0.2345  0.0737  0.2070
   32loPI   C3A  505   3.581  17.881   8.426  0.0577  0.0861  0.0448
   32loPI   C4A  506   3.570  17.827   8.127  0.1630  0.2123 -0.2124
   32loPI   C5A  507   3.856  17.853   7.789 -0.1019  0.1856 -0.1813
   32loPI   C6A  508   4.224  18.065   7.521 -0.3690  0.0465  0.1780
   32loPI   C1B  509   3.392  18.356   9.137  0.2940 -0.3445 -0.2144
   32loPI   C2B  510   3.398  18.308   8.654 -0.0966  0.4576  0.1794
   32loPI   C3B  511   3.386  18.328   8.213 -0.0152  0.3981  0.0604
   32loPI   C4B  512   3.278  18.125   7.775  0.0356  0.0514  0.0628
   33loPI    C1  513   7.723   3.119  10.217  0.0146  0.0640  0.0553
   33loPI    C2  514   7.815   2.735  10.157  0.1333  0.1204 -0.1315
   33loPI    C3  515   7.745   2.868  10.528  0.5114  0.0102 -0.0163
   33loPI   PO4  516   7.639   3.182  10.012  0.0080 -0.0163 -0.0003
   33loPI   GL1  517   7.807   3.178   9.640 -0.0810  0.0520  0.3693
   33loPI   GL2  518   8.028   2.950   9.714  0.1471 -0.1057  0.1094
   33loPI   C1A  519   7.737   2.772   9.363  0.2169 -0.5748 -0.1096
   33loPI   C2A  520   7.643   2.732   8.890 -0.0897  0.2581 -0.0024
   33loPI   C3A  521   7.588   3.075   8.502  0.0315 -0.1181 -0.3123
   33loPI   C4A  522   7.637   3.190   8.132  0.0578  0.0366 -0.0348
   33loPI   C5A  523   7.972   2.991   7.901  0.1420  0.1653 -0.2840
   33loPI   C6A  524   8.255   2.749   7.751  0.1537  0.4268 -0.0128
   33loPI   C1B  525   8.020   3.100   9.107  0.1184 -0.0115  0.0501
   33loPI   C2B  526   8.130   3.093   8.573 -0.1692  0.0801  0.1446
   33loPI   C3B  527   8.422   2.862   8.317 -0.0600  0.1467 -0.0709
   33loPI   C4B  528   8.729   2.813   8.081  0.0071  0.0491  0.1860
   34loPI    C1  529  13.351  15.905  10.257  0.0237 -0.0239  0.0712
   34loPI    C2  530  13.122  15.647  10.054 -0.1609  0.2166 -0.0312
   34loPI    C3  531  13.110  15.654  10.454  0.0261 -0.0959 -0.0169
   34loPI   PO4  532  13.632  15.894  10.096 -0.0236  0.1113 -0.0684
   34loPI   GL1  533  13.666  16.076   9.585 -0.1517  0.0230  0.2346
   34loPI   GL2  534  13.659  15.757   9.626  0.3671  0.0318 -0.3751
   34loPI   C1A  535  13.277  16.301   9.451  0.2697  0.1962 -0.1070
   34loPI   C2A  536  13.046  16.605   9.356  0.3852  0.0823 -0.2617
   34loPI   C3A  537  12.779  16.682   9.015 -0.0889 -0.1639  0.1407
   34loPI   C4A  538  12.708  16.834   8.617  0.2212 -0.2641  0.0966
   34loPI   C5A  539  12.893  16.791   8.209  0.0236 -0.1070 -0.1039
   34loPI   C6A  540  12.807  16.435   8.027  0.1761  0.0098  0.0954
   34loPI   C1B  541  13.888  15.755   9.219  0.1931  0.1290 -0.1728
   34loPI   C2B  542  13.711  15.856   8.778  0.0274 -0.3241 -0.0990
   34loPI   C3B  543  13.686  15.896   8.385 -0.0991  0.0841 -0.3157
   34loPI   C4B  544  13.535  15.850   7.897  0.0779  0.0744 -0.0835
   35loPI    C1  545  12.577   2.874  10.752  0.1897  0.1327  0.0750
   35loPI    C2  546  12.942   2.818  10.907  0.1746 -0.1166  0.0242
   35loPI    C3  547  12.713   2.503  10.814 -0.1238  0.0381  0.2178
   35loPI   PO4  548  12.627   3.004  10.538 -0.1699  0.1352 -0.2611
   35loPI   GL1  549  12.543   3.040  10.225  0.5821  0.2504  0.2173
   35loPI   GL2  550  12.288   2.991   9.991  0.1428 -0.0784  0.3493
   35loPI   C1A  551  12.596   3.384  10.010  0.0543  0.1561 -0.2486
   35loPI   C2A  552  12.720   3.304   9.554  0.0443  0.1774 -0.1943
   35loPI   C3A  553  12.782   3.503   9.142 -0.0134 -0.1995 -0.2984
   35loPI   C4A  554  12.392   3.642   8.878 -0.2354 -0.1266 -0.0670
   35loPI   C5A  555  12.192   3.622   8.497 -0.0434  0.3506  0.5196
   35loPI   C6A  556  12.312   3.638   8.106  0.2120  0.3743  0.0077
   35loPI   C1B  557  12.307   3.078   9.605 -0.3561 -0.1611  0.0439
   35loPI   C2B  558  12.348   3.157   9.126  0.0337 -0.0409 -0.1029
   35loPI   C3B  559  12.355   3.067   8.757  0.0477  0.0924  0.1134
   35loPI   C4B  560  12.577   2.775   8.561 -0.2341 -0.1110 -0.2132
   36loPI    C1  561   3.486  13.494  10.616 -0.2423 -0.0608 -0.1411
   36loPI    C2  562   3.809  13.616  10.819 -0.2002 -0.1388 -0.1609
   36loPI    C3  563   3.639  13.264  10.906 -0.3329 -0.0581 -0.0908
   36loPI   PO4  564   3.572  13.581  10.339 -0.1941 -0.2074  0.0061
   36loPI   GL1  565   3.516  13.577   9.880  0.0718 -0.3780 -0.0872
   36loPI   GL2  566   3.227  13.606   9.792  0.0209  0.0516 -0.0798
   36loPI   C1A  567   3.680  13.313   9.583  0.1828 -0.1858 -0.0308
   36loPI   C2A  568   3.673  13.265   9.091  0.0857 -0.0521  0.1503
   36loPI   C3A  569   3.693  13.210   8.646 -0.0322 -0.3034  0.0761
   36loPI   C4A  570   3.824  13.008   8.189  0.1288  0.0199 -0.2298
   36loPI   C5A  571   4.138  13.018   7.913  0.1986 -0.4367  0.3386
   36loPI   C6A  572   4.554  13.035   7.798 -0.2195 -0.1641 -0.0210
   36loPI   C1B  573   3.273  13.411   9.397 -0.2446  0.0456  0.2150
   36loPI   C2B  574   3.198  13.353   8.997  0.1231 -0.1658 -0.0560
   36loPI   C3B  575   3.220  13.275   8.592  0.0180 -0.0075 -0.0870
   36loPI   C4B  576   3.303  13.292   8.186  0.2205 -0.2481 -0.0059
   37loPI    C1  577  16.384  14.461  10.232 -0.1390 -0.0144 -0.2538
   37loPI    C2  578  16.138  14.743  10.093 -0.0455  0.0436 -0.3026
   37loPI    C3  579  16.268  14.760  10.471 -0.0346  0.0695 -0.3074
   37loPI   PO4  580  16.345  14.287  10.090 -0.0653  0.1063  0.2257
   37loPI   GL1  581  16.257  14.159   9.718  0.0915 -0.1082 -0.0983
   37loPI   GL2  582  16.136  13.863   9.702  0.1357 -0.2693 -0.0722
   37loPI   C1A  583  16.508  14.292   9.315  0.2008  0.3769  0.0737
   37loPI   C2A  584  16.591  14.208   8.911  0.0742 -0.3044  0.0616
   37loPI   C3A  585  16.620  14.270   8.474  0.2808 -0.2058  0.2140
   37loPI   C4A  586  16.332  14.462   8.263  0.2593 -0.1926 -0.1298
   37loPI   C5A  587  16.289  14.429   7.944 -0.0100 -0.1635 -0.1015
   37loPI   C6A  588  16.469  14.570   7.592 -0.1842 -0.0263  0.0843
   37loPI   C1B  589  16.068  13.967   9.241  0.2981 -0.2233 -0.0249
   37loPI   C2B  590  16.105  14.098   8.903  0.1985 -0.0432 -0.3056
   37loPI   C3B  591  16.090  14.080   8.515  0.4002  0.1135 -0.1944
   37loPI   C4B  592  16.136  13.895   8.169 -0.0416 -0.2760 -0.1867
   38loPI    C1  593   3.728   3.313  10.417 -0.1552  0.4553 -0.3546
   38loPI    C2  594   4.095   3.426  10.306 -0.0632  0.3512 -0.1604
   38loPI    C3  595   3.983   3.459  10.689 -0.1063 -0.0162 -0.1377
   38loPI   PO4  596   3.719   3.104  10.281  0.0369 -0.2034 -0.0506
   38loPI   GL1  597   3.320   3.052  10.020  0.2277  0.3849  0.3586
   38loPI   GL2  598   3.500   2.715   9.908  0.0103  0.0961 -0.1470
   38loPI   C1A  599   3.455   3.207   9.609 -0.2490  0.3389 -0.0944
   38loPI   C2A  600   3.512   3.405   9.203 -0.0477  0.3408 -0.0258
   38loPI   C3A  601   3.600   3.553   8.742 -0.1797  0.1414 -0.0905
   38loPI   C4A  602   3.569   3.555   8.364  0.1427  0.0784 -0.2336
   38loPI   C5A  603   3.620   3.383   7.975  0.2369 -0.1403  0.3259
   38loPI   C6A  604   3.759   3.068   7.749  0.1935 -0.0875  0.2640
   38loPI   C1B  605   3.598   2.776   9.520  0.0074 -0.1888 -0.0199
   38loPI   C2B  606   3.762   2.668   9.172  0.2545  0.0975  0.4374
   38loPI   C3B  607   3.584   2.696   8.726 -0.1661 -0.2125 -0.0663
   38loPI   C4B  608   3.310   2.637   8.421 -0.0327  0.0761 -0.4035
   39loPI    C1  609   1.273   8.464  10.424  0.0434 -0.0454 -0.1962
   39loPI    C2  610   1.496   8.174  10.585 -0.0584 -0.0253 -0.0154
   39loPI    C3  611   1.567   8.557  10.679 -0.0992 -0.0112 -0.0417
   39loPI   PO4  612   1.107   8.266  10.192 -0.2180  0.0924 -0.0613
   39loPI   GL1  613   0.970   8.458   9.827 -0.0744  0.0367  0.1962
   39loPI   GL2  614   0.701   8.384   9.960  0.0315  0.1104 -0.3737
   39loPI   C1A  615   1.051   8.193   9.472 -0.0259 -0.0280 -0.3942
   39loPI   C2A  616   1.050   7.950   9.101 -0.3268 -0.0782 -0.1763
   39loPI   C3A  617   1.164   7.581   8.862  0.0498 -0.0712 -0.3582
   39loPI   C4A  618   1.130   7.461   8.528 -0.1759 -0.1265  0.2052
   39loPI   C5A  619   1.128   7.640   8.123 -0.0474  0.0451 -0.0034
   39loPI   C6A  620   1.065   8.036   7.914 -0.1402 -0.0052 -0.2130
   39loPI   C1B  621   0.532   8.221   9.526 -0.1176 -0.1114 -0.1268
   39loPI   C2B  622   0.438   8.106   9.126 -0.2546  0.0149 -0.5030
   39loPI   C3B  623   0.678   8.022   8.731  0.2276 -0.1645 -0.3729
   39loPI   C4B  624   1.006   7.970   8.451  0.1608  0.2885 -0.0714
   40loPI    C1  625  10.250  15.974  10.005 -0.0218  0.0065  0.1733
   40loPI    C2  626  10.172  16.253  10.280 -0.3349 -0.1030  0.2002
   40loPI    C3  627  10.518  16.053  10.290 -0.1699  0.1801  0.2666
   40loPI   PO4  628  10.239  16.061   9.764  0.0822  0.2430  0.0949
   40loPI   GL1  629  10.013  15.985   9.448  0.1002 -0.0939 -0.0449
   40loPI   GL2  630   9.949  16.316   9.439  0.0124 -0.0186 -0.1240
   40loPI   C1A  631  10.042  15.816   9.060 -0.1003 -0.1309 -0.0763
   40loPI   C2A  632  10.303  15.811   8.739  0.1051  0.1325  0.3029
   40loPI   C3A  633  10.326  15.619   8.306 -0.0150 -0.1841 -0.0621
   40loPI   C4A  634  10.274  15.513   7.925  0.0806  0.0780 -0.1098
   40loPI   C5A  635  10.570  15.312   7.617  0.0694 -0.2560 -0.0013
   40loPI   C6A  636  10.713  15.428   7.250  0.0861  0.2313 -0.0045
   40loPI   C1B  637   9.872  16.267   8.933  0.0105  0.0541  0.3426
   40loPI   C2B  638   9.926  16.309   8.480 -0.2489 -0.2238  0.0136
   40loPI   C3B  639  10.078  16.497   8.104 -0.3319 -0.3876  0.4506
   40loPI   C4B  640  10.435  16.494   7.927  0.1042  0.3628 -0.1899
   41loPI    C1  641  13.164  13.637   9.987  0.1721  0.0000 -0.0601
   41loPI    C2  642  13.330  14.000   9.984  0.2477 -0.0341 -0.0280
   41loPI    C3  643  13.109  13.884  10.296  0.4098 -0.0989  0.0641
   41loPI   PO4  644  13.383  13.526   9.931 -0.2771  0.0383  0.1447
   41loPI   GL1  645  13.619  13.231   9.637 -0.0002  0.1309 -0.0655
   41loPI   GL2  646  13.378  13.034   9.587 -0.1652 -0.3523  0.0599
   41loPI   C1A  647  13.844  13.155   9.200 -0.0677 -0.0154  0.2640
   41loPI   C2A  648  13.911  13.093   8.816 -0.0289  0.0827  0.2336
   41loPI   C3A  649  14.157  13.060   8.382 -0.1017 -0.0729  0.1237
   41loPI   C4A  650  14.334  12.782   8.130  0.1804 -0.0381  0.1082
   41loPI   C5A  651  14.140  12.576   7.754  0.1895 -0.2846 -0.3543
   41loPI   C6A  652  13.868  12.056   7.702 -0.3665  0.2759 -0.0984
   41loPI   C1B  653  13.269  13.265   9.195 -0.1017  0.2480 -0.2416
   41loPI   C2B  654  13.403  13.120   8.722  0.0282 -0.0844 -0.1219
   41loPI   C3B  655  13.671  13.080   8.401  0.0881 -0.2551 -0.1460
   41loPI   C4B  656  13.862  12.850   8.009  0.0479 -0.1732 -0.2132
   42loPI    C1  657  10.321  12.063   9.864  0.1380 -0.0477  0.2173
   42loPI    C2  658  10.473  12.432   9.835 -0.2829  0.1316  0.2295
   42loPI    C3  659  10.376  12.283  10.193 -0.2292  0.0567  0.2132
   42loPI   PO4  660  10.441  11.851   9.803  0.3507  0.3366 -0.0495
   42loPI   GL1  661  10.370  11.558   9.411  0.1504  0.0875 -0.1408
   42loPI   GL2  662  10.645  11.513   9.419  0.1336 -0.0483 -0.0781
   42loPI   C1A  663  10.064  11.341   9.042  0.2881 -0.0088 -0.2482
   42loPI   C2A  664  10.070  11.295   8.598 -0.0388  0.0555 -0.0531
   42loPI   C3A  665  10.038  11.291   8.158  0.1693  0.1492 -0.0536
   42loPI   C4A  666  10.174  11.321   7.786  0.0758  0.1382  0.0074
   42loPI   C5A  667  10.343  11.400   7.364 -0.2802 -0.0654 -0.2074
   42loPI   C6A  668  10.444  11.358   6.979  0.1454  0.1361 -0.2542
   42loPI   C1B  669  10.495  11.488   8.879 -0.1144 -0.3708  0.0729
   42loPI   C2B  670  10.521  11.505   8.450 -0.1608  0.0051 -0.3549
   42loPI   C3B  671  10.685  11.416   8.038 -0.2052  0.0867  0.2032
   42loPI   C4B  672  10.860  11.199   7.635 -0.0418 -0.1347 -0.1663
   43loPI    C1  673  10.405  13.929   9.889  0.1552 -0.0452 -0.0678
   43loPI    C2  674  10.105  13.709   9.742  0.1837 -0.1480  0.0262
   43loPI    C3  675  10.144  13.755  10.137  0.2014 -0.0064  0.0084
   43loPI   PO4  676  10.428  14.086   9.581  0.0927  0.1329  0.2481
   43loPI   GL1  677  10.625  13.780   9.260 -0.1369 -0.5042  0.0315
   43loPI   GL2  678  10.428  13.581   9.280 -0.1439 -0.1347 -0.1488
   43loPI   C1A  679  10.991  13.694   9.003  0.0011  0.2933  0.0820
   43loPI   C2A  680  10.963  13.676   8.587  0.1990 -0.0841  0.0875
   43loPI   C3A  681  10.932  13.634   8.177  0.3145 -0.0325 -0.0048
   43loPI   C4A  682  11.179  13.396   7.840  0.2103 -0.1758 -0.2875
   43loPI   C5A  683  11.713  13.501   7.639  0.1637  0.0208  0.2730
   43loPI   C6A  684  12.124  13.630   7.410  0.0402 -0.2619  0.1569
   43loPI   C1B  685  10.440  13.670   8.819 -0.2454 -0.0190 -0.1108
   43loPI   C2B  686  10.356  13.592   8.279 -0.0746  0.1915 -0.0295
   43loPI   C3B  687  10.592  13.507   7.861  0.2351 -0.2191 -0.0802
   43loPI   C4B  688  10.758  13.352   7.587 -0.1739  0.1372 -0.2024
   44loPI    C1  689  10.821   9.412  10.301  0.1661 -0.0813  0.1598
   44loPI    C2  690  11.153   9.511  10.500  0.0911 -0.1505  0.3209
   44loPI    C3  691  10.798   9.650  10.621  0.0659 -0.0337  0.1177
   44loPI   PO4  692  10.901   9.423  10.021  0.1290 -0.0190  0.0345
   44loPI   GL1  693  10.775   9.440   9.562  0.2788  0.0690 -0.0812
   44loPI   GL2  694  10.874   9.099   9.401 -0.1120  0.1127  0.1027
   44loPI   C1A  695  10.508   9.381   9.389 -0.1703 -0.0915  0.1652
   44loPI   C2A  696  10.199   9.318   9.032 -0.0246  0.1257  0.2928
   44loPI   C3A  697  10.142   9.235   8.631  0.1162  0.0369  0.0882
   44loPI   C4A  698  10.125   9.171   8.173  0.0959  0.1372  0.0847
   44loPI   C5A  699   9.721   8.971   7.863 -0.0614 -0.0610 -0.2586
   44loPI   C6A  700   9.307   9.052   7.911  0.0493 -0.1926 -0.3572
   44loPI   C1B  701  10.983   9.101   8.982 -0.0676 -0.2430  0.0437
   44loPI   C2B  702  11.217   8.814   8.697  0.2130  0.0881 -0.1129
   44loPI   C3B  703  11.278   8.839   8.219 -0.4179 -0.0523  0.0344
   44loPI   C4B  704  11.269   9.026   7.773 -0.0638 -0.1306  0.0183
   45loPI    C1  705   0.273  11.984  10.243 -0.0155  0.3474 -0.1842
   45loPI    C2  706   0.123  12.115  10.590 -0.1540 -0.0052 -0.1070
   45loPI    C3  707   0.518  12.114  10.531 -0.0897 -0.4546  0.2709
   45loPI   PO4  708   0.153  12.116  10.085  0.1775  0.0323  0.0729
   45loPI   GL1  709  -0.112  12.220   9.859 -0.0867  0.0488 -0.3479
   45loPI   GL2  710  -0.418  12.289   9.887 -0.1019 -0.0853 -0.1206
   45loPI   C1A  711   0.092  12.239   9.456 -0.1079  0.0908 -0.1481
   45loPI   C2A  712   0.108  12.247   9.026  0.0528  0.2391  0.0904
   45loPI   C3A  713   0.029  12.200   8.617 -0.0594 -0.0949  0.3209
   45loPI   C4A  714   0.494  12.427   8.434  0.2788  0.1024  0.0775
   45loPI   C5A  715   0.708  12.409   8.068  0.0076  0.1142 -0.3127
   45loPI   C6A  716   1.067  12.222   7.943 -0.1964  0.2347  0.3019
   45loPI   C1B  717  -0.392  12.261   9.432  0.0875  0.2615 -0.3398
   45loPI   C2B  718  -0.312  12.410   9.112 -0.3807  0.0244  0.4907
   45loPI   C3B  719  -0.374  12.474   8.660 -0.0147  0.2540 -0.2558
   45loPI   C4B  720  -0.468  12.182   8.214  0.1333  0.2389  0.1140
   46loPI    C1  721  18.178  11.308  10.381 -0.1217  0.1725 -0.1450
   46loPI    C2  722  18.532  11.495  10.388  0.0383 -0.1298  0.2617
   46loPI    C3  723  18.264  11.562  10.678 -0.2313  0.0748 -0.0282
   46loPI   PO4  724  18.231  10.996  10.348 -0.1557  0.0508  0.0317
   46loPI   GL1  725  18.240  10.805   9.960 -0.1154  0.4264  0.1151
   46loPI   GL2  726  18.255  11.172   9.813 -0.0633 -0.4672  0.0592
   46loPI   C1A  727  18.290  10.670   9.515  0.0620 -0.3429 -0.2162
   46loPI   C2A  728  18.348  10.580   9.154 -0.1320 -0.1515  0.1143
   46loPI   C3A  729  18.534  10.717   8.757 -0.0811 -0.1124  0.2917
   46loPI   C4A  730  18.575  10.622   8.316  0.2154 -0.4694  0.3386
   46loPI   C5A  731  18.657  10.930   8.011  0.2182 -0.1038  0.0333
   46loPI   C6A  732  18.868  10.918   7.633  0.0350  0.1282  0.5357
   46loPI   C1B  733  18.416  11.125   9.321  0.3012  0.1523  0.2055
   46loPI   C2B  734  18.398  11.224   8.917 -0.2207  0.1114 -0.1933
   46loPI   C3B  735  18.113  11.398   8.719 -0.2162 -0.2292 -0.1390
   46loPI   C4B  736  17.852  11.555   8.478  0.0173 -0.2809  0.1853
   47loPI    C1  737   8.398   9.858  10.511 -0.0098  0.1688 -0.3042
   47loPI    C2  738   8.027   9.999  10.463 -0.0610  0.1942  0.1253
   47loPI    C3  739   8.272  10.169  10.729  0.0945 -0.1248  0.1915
   47loPI   PO4  740   8.443   9.786  10.142 -0.0225  0.1014  0.1148
   47loPI   GL1  741   8.477   9.808   9.790 -0.2517  0.0511  0.1751
   47loPI   GL2  742   8.311   9.623   9.708  0.1554  0.1738  0.0419
   47loPI   C1A  743   8.808   9.857   9.501  0.0999 -0.3909 -0.1578
   47loPI   C2A  744   8.719   9.890   9.114  0.1411  0.3801 -0.2314
   47loPI   C3A  745   8.723   9.815   8.697 -0.1066  0.0808 -0.2777
   47loPI   C4A  746   8.683   9.590   8.390 -0.1105  0.2546  0.3514
   47loPI   C5A  747   8.778   9.196   8.047 -0.0524  0.0262 -0.0139
   47loPI   C6A  748   8.789   8.821   7.826  0.0949 -0.1282  0.1081
   47loPI   C1B  749   8.303   9.664   9.289 -0.0531  0.0399 -0.0496
   47loPI   C2B  750   8.228   9.589   8.818  0.1436  0.3130  0.3572
   47loPI   C3B  751   8.227   9.666   8.389  0.2939 -0.1740  0.0953
   47loPI   C4B  752   8.351   9.555   7.983 -0.4607  0.1604  0.0822
   48loPI    C1  753   0.514  15.422   9.979 -0.0353 -0.1291 -0.1578
   48loPI    C2  754   0.563  15.528  10.362  0.2145 -0.3177 -0.1348
   48loPI    C3  755   0.760  15.213  10.215 -0.0331 -0.3676 -0.3678
   48loPI   PO4  756   0.228  15.517   9.942 -0.1574 -0.1693 -0.1000
   48loPI   GL1  757   0.077  15.705   9.632  0.1030 -0.0363 -0.1185
   48loPI   GL2  758   0.144  15.973   9.513  0.2396  0.1247 -0.3172
   48loPI   C1A  759   0.051  15.541   9.264 -0.1604 -0.0841  0.1343
   48loPI   C2A  760   0.052  15.629   8.791  0.0530  0.1469  0.1630
   48loPI   C3A  761   0.319  15.809   8.377 -0.0079 -0.0237 -0.1126
   48loPI   C4A  762   0.525  15.604   8.069  0.1541  0.0756 -0.2821
   48loPI   C5A  763   0.626  15.658   7.700 -0.1695  0.1788 -0.2101
   48loPI   C6A  764   0.561  15.731   7.251  0.1386  0.0404  0.2137
   48loPI   C1B  765   0.090  16.062   9.097  0.3069 -0.0355 -0.2709
   48loPI   C2B  766   0.050  16.186   8.655  0.0063  0.1334 -0.2046
   48loPI   C3B  767   0.084  16.207   8.369  0.1645  0.2400 -0.0823
   48loPI   C4B  768   0.177  15.989   7.856  0.0238  0.0730  0.0666
   49loPI    C1  769   9.470   1.760  10.680  0.0101  0.0069  0.0712
   49loPI    C2  770   9.722   1.700  10.985 -0.0354 -0.0405  0.0996
   49loPI    C3  771   9.561   2.062  10.925 -0.0343 -0.0337  0.1381
   49loPI   PO4  772   9.561   1.744  10.312 -0.0148  0.2833  0.0738
   49loPI   GL1  773   9.780   1.942  10.017  0.1477 -0.2054 -0.1745
   49loPI   GL2  774   9.847   1.597   9.886  0.3891 -0.2303 -0.1266
   49loPI   C1A  775   9.614   2.125   9.595  0.2922 -0.0766 -0.1786
   49loPI   C2A  776   9.618   2.036   9.172  0.1793  0.1027 -0.2320
   49loPI   C3A  777   9.537   2.012   8.695  0.1341 -0.2415  0.2254
   49loPI   C4A  778   9.421   1.741   8.320 -0.0410  0.0437 -0.1758
   49loPI   C5A  779   9.060   1.581   8.225 -0.0103 -0.0559  0.0111
   49loPI   C6A  780   8.972   1.460   7.811 -0.0326  0.1433  0.1858
   49loPI   C1B  781  10.027   1.693   9.383  0.0091  0.3457  0.1715
   49loPI   C2B  782   9.978   1.678   8.936 -0.0114 -0.2456  0.3862
   49loPI   C3B  783  10.111   1.705   8.525 -0.0803  0.1757  0.0228
   49loPI   C4B  784  10.260   1.522   8.145  0.0369 -0.3288  0.3683
   50loPI    C1  785  15.063   0.099  10.250  0.1214  0.3954 -0.0112
   50loPI    C2  786  14.679   0.047  10.352  0.1669 -0.1699 -0.0958
   50loPI    C3  787  14.967   0.009  10.628  0.1917 -0.1918 -0.1247
   50loPI   PO4  788  15.022   0.258  10.022  0.0996 -0.0742  0.0997
   50loPI   GL1  789  15.093   0.046   9.598 -0.1044  0.4420  0.1465
   50loPI   GL2  790  14.752   0.059   9.584 -0.0965  0.2995 -0.2411
   50loPI   C1A  791  15.208   0.163   9.143  0.0813  0.0769 -0.2220
   50loPI   C2A  792  15.028   0.227   8.752  0.1420  0.0466  0.2063
   50loPI   C3A  793  15.018   0.427   8.393 -0.0332  0.0967  0.1911
   50loPI   C4A  794  14.770   0.651   8.147 -0.2559  0.1382 -0.0300
   50loPI   C5A  795  14.658   1.072   8.050 -0.0333 -0.1371  0.2265
   50loPI   C6A  796  14.414   1.332   7.746 -0.1749 -0.2249  0.0858
   50loPI   C1B  797  14.714  -0.040   9.165 -0.0597  0.0143  0.0111
   50loPI   C2B  798  14.555  -0.111   8.748  0.4957 -0.1968 -0.0908
   50loPI   C3B  799  14.578   0.183   8.413 -0.0877  0.1038  0.0030
   50loPI   C4B  800  14.350   0.014   8.047 -0.0486  0.2347 -0.2126
   51loPI    C1  801   9.796  17.948  10.141  0.0806  0.1135 -0.0526
   51loPI    C2  802  10.156  17.798  10.230  0.0874  0.1658  0.0087
   51loPI    C3  803   9.921  17.941  10.521 -0.0099  0.0725 -0.0230
   51loPI   PO4  804   9.744  18.098   9.892  0.1113 -0.3168  0.0426
   51loPI   GL1  805   9.965  18.194   9.572 -0.3205 -0.2791 -0.0442
   51loPI   GL2  806  10.227  18.285   9.434  0.1115 -0.0544  0.3491
   51loPI   C1A  807   9.843  17.876   9.199 -0.0400  0.1123 -0.0472
   51loPI   C2A  808   9.892  17.920   8.770 -0.2377 -0.0247  0.2063
   51loPI   C3A  809   9.883  18.016   8.350  0.2493  0.1756  0.1935
   51loPI   C4A  810   9.794  18.063   7.973  0.2390  0.0245 -0.1630
   51loPI   C5A  811   9.475  18.167   7.595  0.1032 -0.2048 -0.1384
   51loPI   C6A  812   9.100  18.388   7.493  0.1143  0.1264  0.1287
   51loPI   C1B  813  10.140  18.296   9.004 -0.0236 -0.1705  0.2682
   51loPI   C2B  814  10.164  18.323   8.613 -0.0043  0.0458 -0.2716
   51loPI   C3B  815  10.176  18.413   8.211 -0.0974 -0.0851  0.2296
   51loPI   C4B  816  10.268  18.343   7.721 -0.1059  0.0196  0.0927
   52loPI    C1  817   0.994   4.405  10.892  0.2177 -0.1489  0.2025
   52loPI    C2  818   0.720   4.157  11.045  0.0116 -0.0148  0.0561
   52loPI    C3  819   0.728   4.541  11.159  0.1502 -0.0222  0.0726
   52loPI   PO4  820   0.938   4.390  10.590 -0.2903 -0.2239 -0.2007
   52loPI   GL1  821   0.637   4.446  10.309 -0.1160  0.0761 -0.2074
   52loPI   GL2  822   0.640   4.811  10.326 -0.1858  0.0577 -0.1524
   52loPI   C1A  823   0.704   4.480   9.855 -0.2595  0.4836  0.1886
   52loPI   C2A  824   0.952   4.379   9.510 -0.1542 -0.1032 -0.0622
   52loPI   C3A  825   0.875   4.633   9.057  0.0531  0.3727  0.1518
   52loPI   C4A  826   0.692   4.705   8.570  0.0880 -0.0719  0.2878
   52loPI   C5A  827   0.606   5.065   8.220 -0.0679 -0.0885  0.4891
   52loPI   C6A  828   0.460   5.277   7.884 -0.0994  0.1987  0.0903
   52loPI   C1B  829   0.655   4.956   9.864  0.0785 -0.0636 -0.2377
   52loPI   C2B  830   0.546   4.710   9.441 -0.0347 -0.1190  0.4065
   52loPI   C3B  831   0.346   4.693   9.067  0.0287 -0.2875  0.0244
   52loPI   C4B  832   0.247   4.952   8.692  0.0795 -0.0437 -0.1266
   53loPI    C1  833   4.962   9.242  10.709 -0.3211  0.0337 -0.1249
   53loPI    C2  834   4.746   9.457  10.968 -0.0588  0.1253  0.0217
   53loPI    C3  835   4.748   9.058  10.992 -0.0344  0.1334  0.1643
   53loPI   PO4  836   4.976   9.196  10.434  0.0451 -0.0235  0.1434
   53loPI   GL1  837   5.171   9.443  10.085 -0.1924  0.0005 -0.0403
   53loPI   GL2  838   5.441   9.472  10.125  0.4134  0.3058  0.0947
   53loPI   C1A  839   4.995   9.525   9.668  0.1047 -0.1350 -0.0224
   53loPI   C2A  840   4.992   9.451   9.207 -0.1716  0.1949  0.1724
   53loPI   C3A  841   4.957   9.380   8.741 -0.1367  0.1721  0.1710
   53loPI   C4A  842   5.172   9.069   8.430  0.0051 -0.0111 -0.3379
   53loPI   C5A  843   5.250   8.605   8.430 -0.0374 -0.0695  0.3029
   53loPI   C6A  844   5.208   8.175   8.568  0.2555 -0.2876  0.0184
   53loPI   C1B  845   5.499   9.481   9.705 -0.0473 -0.5443 -0.0280
   53loPI   C2B  846   5.561   9.415   9.316 -0.0691  0.2051  0.3500
   53loPI   C3B  847   5.533   9.342   8.908  0.0416 -0.0752 -0.1904
   53loPI   C4B  848   5.577   8.983   8.745  0.2066 -0.0160 -0.2204
   54loPI    C1  849  11.270   4.223  10.774  0.2269  0.0734  0.2526
   54loPI    C2  850  11.124   4.223  11.147 -0.2230  0.0830  0.0823
   54loPI    C3  851  11.143   4.564  10.940 -0.1488  0.0474  0.0299
   54loPI   PO4  852  11.125   4.067  10.638  0.1025 -0.1703  0.3801
   54loPI   GL1  853  10.971   4.173  10.127  0.0572  0.1321  0.0547
   54loPI   GL2  854  11.128   3.929  10.021 -0.2219 -0.3437  0.0782
   54loPI   C1A  855  10.666   4.108   9.747  0.0049  0.0262  0.1793
   54loPI   C2A  856  10.506   4.140   9.288 -0.2397 -0.1140 -0.1064
   54loPI   C3A  857  10.417   4.106   8.858 -0.2656  0.2325  0.0789
   54loPI   C4A  858  10.357   4.019   8.429  0.0172  0.0023 -0.1187
   54loPI   C5A  859  10.086   3.802   8.112 -0.1213  0.2595  0.1353
   54loPI   C6A  860  10.129   3.691   7.740 -0.1859  0.3496  0.0192
   54loPI   C1B  861  11.226   3.830   9.552 -0.2025  0.1884 -0.0794
   54loPI   C2B  862  10.920   3.764   9.307  0.0403 -0.1506  0.2511
   54loPI   C3B  863  10.549   3.698   9.050  0.1049 -0.0511 -0.1561
   54loPI   C4B  864  10.496   3.645   8.748 -0.1523 -0.4432 -0.0637
   55loPI    C1  865   6.577   9.150  11.010  0.0959 -0.0903 -0.0256
   55loPI    C2  866   6.845   8.864  10.933  0.0598 -0.1071 -0.0906
   55loPI    C3  867   6.758   8.961  11.312  0.2182 -0.0440 -0.0696
   55loPI   PO4  868   6.332   9.005  10.815 -0.0376 -0.0233 -0.0167
   55loPI   GL1  869   6.235   8.864  10.398  0.3289  0.2119 -0.1102
   55loPI   GL2  870   5.927   8.769  10.251 -0.2873 -0.2894  0.0446
   55loPI   C1A  871   6.623   8.779  10.107  0.2434 -0.0996  0.1874
   55loPI   C2A  872   6.812   8.740   9.824  0.4339 -0.0713  0.0267
   55loPI   C3A  873   6.923   8.448   9.449  0.1417  0.0929 -0.1065
   55loPI   C4A  874   7.123   8.546   9.058 -0.0303  0.1412  0.1765
   55loPI   C5A  875   7.226   8.744   8.557  0.0664 -0.2708 -0.2296
   55loPI   C6A  876   6.861   8.788   8.202  0.0666 -0.0683 -0.1204
   55loPI   C1B  877   6.206   8.845   9.946  0.0853 -0.2198  0.0382
   55loPI   C2B  878   6.297   8.775   9.573 -0.0530  0.1058 -0.0449
   55loPI   C3B  879   6.664   8.801   9.212 -0.1744  0.1682 -0.1721
   55loPI   C4B  880   6.765   8.784   8.764  0.2199  0.1976  0.1656
   56loPI    C1  881  10.704  17.994  10.159 -0.1868 -0.2822  0.0093
   56loPI    C2  882  10.506  18.230  10.413  0.1758  0.0488 -0.0066
   56loPI    C3  883  10.814  18.012  10.543  0.0676 -0.1430 -0.0681
   56loPI   PO4  884  10.767  18.202   9.988  0.3584 -0.0282 -0.2435
   56loPI   GL1  885  10.790  18.247   9.627 -0.1868 -0.1573  0.1205
   56loPI   GL2  886  11.033  18.549   9.766 -0.2914  0.0205 -0.0610
   56loPI   C1A  887  10.656  18.116   9.205 -0.1404  0.1354 -0.1512
   56loPI   C2A  888  10.709  18.273   8.770 -0.1930  0.0362 -0.1145
   56loPI   C3A  889  10.975  18.308   8.378  0.1845  0.0720  0.0964
   56loPI   C4A  890  11.198  18.345   7.944  0.0918  0.0090 -0.0941
   56loPI   C5A  891  11.374  18.102   7.623  0.0356  0.1892 -0.1095
   56loPI   C6A  892  11.295  18.050   7.203  0.1265 -0.0848  0.0836
   56loPI   C1B  893  11.192  18.862   9.620  0.0551  0.1430  0.3056
   56loPI   C2B  894  11.189  18.998   9.247 -0.2844  0.0277 -0.0915
   56loPI   C3B  895  11.032  19.096   8.849  0.1078  0.0666 -0.1308
   56loPI   C4B  896  10.746  19.101   8.387  0.5243  0.0489  0.0473
   57loPI    C1  897  15.093  11.120  10.136 -0.1370  0.1544  0.1133
   57loPI    C2  898  15.101  10.952  10.499  0.0598 -0.3317 -0.1079
   57loPI    C3  899  14.979  10.739  10.183 -0.1099  0.0869 -0.3311
   57loPI   PO4  900  14.984  11.319  10.179  0.2517 -0.0556  0.2702
   57loPI   GL1  901  14.677  11.518   9.881  0.0530  0.0576  0.0736
   57loPI   GL2  902  14.631  11.224   9.851 -0.1765 -0.0184 -0.2608
   57loPI   C1A  903  14.672  11.638   9.396  0.1019 -0.1249 -0.2489
   57loPI   C2A  904  14.793  11.581   9.006 -0.1548 -0.1704  0.0182
   57loPI   C3A  905  15.001  11.511   8.634  0.0821 -0.0782  0.0667
   57loPI   C4A  906  14.964  11.556   8.177  0.1413  0.0657 -0.0954
   57loPI   C5A  907  14.708  11.587   8.015  0.1185  0.2401 -0.1764
   57loPI   C6A  908  14.391  11.540   7.827 -0.0566 -0.2321  0.1396
   57loPI   C1B  909  14.985  11.254   9.566  0.2085  0.0774 -0.0855
   57loPI   C2B  910  15.180  11.301   9.291 -0.1315  0.0105  0.3841
   57loPI   C3B  911  15.308  11.111   8.884 -0.0406 -0.0453 -0.0080
   57loPI   C4B  912  15.295  11.025   8.484 -0.0744  0.0542  0.1824
   58loPI    C1  913  10.856   0.716  10.433 -0.3509 -0.0893 -0.0402
   58loPI    C2  914  11.110   0.407  10.421 -0.2232  0.0137 -0.0143
   58loPI    C3  915  10.944   0.515  10.768  0.1491  0.3070  0.0790
   58loPI   PO4  916  10.913   0.911  10.293 -0.2660  0.0156  0.1859
   58loPI   GL1  917  10.886   1.006   9.893  0.1307  0.1801 -0.1185
   58loPI   GL2  918  10.697   1.296   9.936  0.0185  0.0176  0.1106
   58loPI   C1A  919  11.252   0.938   9.578 -0.1613  0.0986 -0.2440
   58loPI   C2A  920  11.365   1.010   9.079 -0.3714 -0.1095 -0.2311
   58loPI   C3A  921  11.485   0.931   8.627 -0.3080  0.0409  0.1048
   58loPI   C4A  922  11.219   0.755   8.377  0.3534 -0.3435  0.1394
   58loPI   C5A  923  11.213   0.718   7.944  0.2592  0.1970  0.0322
   58loPI   C6A  924  11.067   1.056   7.863 -0.2770  0.1073 -0.1338
   58loPI   C1B  925  10.792   1.207   9.465 -0.1138  0.0673 -0.2507
   58loPI   C2B  926  10.993   1.432   9.081 -0.1242  0.0851 -0.0597
   58loPI   C3B  927  11.085   1.400   8.633  0.1415  0.1627 -0.1636
   58loPI   C4B  928  11.171   1.368   8.215 -0.2283  0.1707 -0.0486
   59loPI    C1  929   8.779  17.415  10.005  0.3476  0.0585  0.0907
   59loPI    C2  930   8.656  17.157  10.285  0.1772 -0.0608 -0.0919
   59loPI    C3  931   8.714  17.541  10.379  0.1513 -0.1064  0.1136
   59loPI   PO4  932   8.973  17.320   9.909  0.3022  0.4574  0.0639
   59loPI   GL1  933   8.828  17.057   9.496 -0.3217  0.0296 -0.3884
   59loPI   GL2  934   8.603  17.172   9.414  0.0615 -0.0065 -0.0160
   59loPI   C1A  935   9.150  17.199   9.218  0.2299 -0.0847 -0.3757
   59loPI   C2A  936   9.367  17.196   8.848 -0.0540 -0.2144  0.0011
   59loPI   C3A  937   9.487  17.270   8.537  0.1095 -0.0083  0.1609
   59loPI   C4A  938   9.456  17.159   8.220 -0.1366  0.0698  0.0500
   59loPI   C5A  939   9.306  17.233   7.703  0.0484  0.2118  0.0547
   59loPI   C6A  940   9.293  17.114   7.260 -0.1828 -0.1351 -0.2004
   59loPI   C1B  941   8.623  17.036   8.994 -0.0914  0.0373 -0.1039
   59loPI   C2B  942   8.562  16.812   8.615  0.2835  0.5399 -0.0713
   59loPI   C3B  943   8.522  16.645   8.110  0.3363  0.0964  0.2001
   59loPI   C4B  944   8.805  16.578   7.709  0.0102 -0.0219  0.2065
   60loPI    C1  945   8.195  14.323   9.928  0.1374 -0.0528  0.1182
   60loPI    C2  946   7.813  14.221   9.988  0.1281 -0.4160 -0.4794
   60loPI    C3  947   8.101  14.056  10.211 -0.0768  0.1597  0.2515
   60loPI   PO4  948   8.165  14.279   9.601 -0.1195 -0.0153  0.0085
   60loPI   GL1  949   8.021  14.570   9.386 -0.0944 -0.0095  0.0688
   60loPI   GL2  950   7.808  14.404   9.310  0.0216 -0.1179  0.1665
   60loPI   C1A  951   8.015  14.583   8.937 -0.0179 -0.0542  0.0118
   60loPI   C2A  952   7.941  14.603   8.426 -0.0871  0.0718  0.0989
   60loPI   C3A  953   8.189  14.523   8.155  0.0631  0.2531 -0.0544
   60loPI   C4A  954   8.077  14.569   7.741 -0.1356  0.1161 -0.0258
   60loPI   C5A  955   7.979  14.655   7.384 -0.1013  0.0831 -0.4457
   60loPI   C6A  956   7.892  14.749   6.943  0.2667  0.0833  0.0197
   60loPI   C1B  957   7.516  14.373   8.935 -0.0681  0.1424 -0.0536
   60loPI   C2B  958   7.466  14.352   8.542  0.0482 -0.3969 -0.1485
   60loPI   C3B  959   7.382  14.283   8.078 -0.6805  0.0901  0.1981
   60loPI   C4B  960   7.532  14.399   7.630  0.0528 -0.1054 -0.0243
   61loPI    C1  961  17.044   8.725  10.472 -0.0471 -0.2028 -0.1451
   61loPI    C2  962  16.755   8.557  10.690  0.0715 -0.0413  0.1429
   61loPI    C3  963  16.740   8.948  10.607  0.1206 -0.0667  0.0131
   61loPI   PO4  964  17.123   8.591  10.315  0.0831  0.2375 -0.3029
   61loPI   GL1  965  17.314   8.596   9.977 -0.0674  0.0357  0.1090
   61loPI   GL2  966  17.188   8.855   9.838 -0.1216 -0.2358 -0.2461
   61loPI   C1A  967  17.496   8.508   9.580 -0.0392 -0.2391  0.1326
   61loPI   C2A  968  17.592   8.198   9.346 -0.1575  0.2796 -0.1483
   61loPI   C3A  969  17.941   8.242   9.068  0.1085 -0.0027 -0.3892
   61loPI   C4A  970  18.037   8.569   8.751 -0.1319 -0.1090  0.1247
   61loPI   C5A  971  17.995   8.876   8.409  0.1206 -0.3368  0.2579
   61loPI   C6A  972  18.092   9.043   7.925 -0.0679 -0.0341 -0.2243
   61loPI   C1B  973  17.031   8.737   9.451  0.4229  0.1688  0.0146
   61loPI   C2B  974  17.131   8.509   9.085  0.0933 -0.0070 -0.2576
   61loPI   C3B  975  17.002   8.277   8.741  0.0262  0.0391 -0.2103
   61loPI   C4B  976  17.157   8.068   8.418  0.0351  0.2912 -0.2140
   62loPI    C1  977  11.094  12.598   9.926 -0.1197  0.0462 -0.1504
   62loPI    C2  978  11.319  12.763   9.639 -0.1493 -0.0348 -0.2211
   62loPI    C3  979  11.408  12.825  10.025 -0.0258 -0.0398 -0.2482
   62loPI   PO4  980  10.895  12.652   9.915 -0.0281 -0.0940 -0.1212
   62loPI   GL1  981  10.737  12.826   9.624 -0.0053  0.3188  0.2577
   62loPI   GL2  982  10.414  12.976   9.628  0.2051  0.0690 -0.0412
   62loPI   C1A  983  10.671  12.701   9.290 -0.3324  0.2163 -0.1137
   62loPI   C2A  984  10.638  12.658   8.785  0.0423 -0.0101  0.0208
   62loPI   C3A  985  10.496  12.558   8.387  0.0548  0.1343 -0.1176
   62loPI   C4A  986  10.396  12.448   8.084 -0.0074 -0.2141 -0.2070
   62loPI   C5A  987  10.445  12.364   7.698 -0.3507 -0.0226  0.1623
   62loPI   C6A  988  10.796  12.430   7.450 -0.0032  0.1169  0.0912
   62loPI   C1B  989  10.387  13.106   9.272 -0.3254 -0.0656  0.2215
   62loPI   C2B  990  10.290  12.978   8.944  0.2568  0.0595  0.3876
   62loPI   C3B  991  10.339  13.164   8.645 -0.0726  0.1681 -0.1771
   62loPI   C4B  992  10.391  13.146   8.197 -0.0232 -0.2457  0.1027
   63loPI    C1  993   5.536   1.895  10.336 -0.2618 -0.0911  0.0098
   63loPI    C2  994   5.531   2.159  10.637 -0.1585 -0.1678  0.0796
   63loPI    C3  995   5.430   1.778  10.704 -0.1516 -0.1814  0.0133
   63loPI   PO4  996   5.703   1.970  10.144 -0.0989 -0.0455 -0.3163
   63loPI   GL1  997   5.828   2.002   9.751 -0.2656 -0.2034  0.0162
   63loPI   GL2  998   5.615   1.873   9.640  0.2687  0.1793  0.0595
   63loPI   C1A  999   5.924   2.306   9.353 -0.0619 -0.0020 -0.2218
   63loPI   C2A 1000   5.777   2.353   8.878 -0.0313  0.0632  0.0824
   63loPI   C3A 1001   5.821   2.499   8.455 -0.0032 -0.1063 -0.1437
   63loPI   C4A 1002   5.664   2.169   8.282 -0.3675  0.1634 -0.1317
   63loPI   C5A 1003   5.523   2.066   7.919  0.0479 -0.1501  0.1947
   63loPI   C6A 1004   5.649   1.851   7.519 -0.0448  0.3742 -0.2435
   63loPI   C1B 1005   5.536   1.990   9.260  0.2235  0.3080  0.2637
   63loPI   C2B 1006   5.426   2.016   8.798 -0.0958  0.0045  0.3245
   63loPI   C3B 1007   5.211   2.084   8.464 -0.3547 -0.2865  0.1219
   63loPI   C4B 1008   5.118   2.039   8.168  0.1611  0.0520  0.1521
   64loPI    C1 1009  11.675   8.928  10.205  0.0966  0.0750  0.0002
   64loPI    C2 1010  11.550   8.583  10.046 -0.2620  0.1512  0.1068
   64loPI    C3 1011  11.531   8.639  10.441  0.1385  0.1587  0.1292
   64loPI   PO4 1012  11.613   9.082  10.015  0.0395  0.1536  0.0798
   64loPI   GL1 1013  11.723   8.999   9.520  0.0479 -0.3054 -0.2998
   64loPI   GL2 1014  11.665   8.677   9.488 -0.0460  0.1759 -0.0687
   64loPI   C1A 1015  11.502   9.065   9.121  0.4152  0.0698  0.3378
   64loPI   C2A 1016  11.668   9.237   8.633 -0.0584 -0.1944 -0.2167
   64loPI   C3A 1017  11.540   9.295   8.101  0.2367  0.0225 -0.0538
   64loPI   C4A 1018  11.534   9.534   7.703  0.0093  0.1044 -0.1034
   64loPI   C5A 1019  11.309   9.770   7.377  0.2090  0.1934  0.1604
   64loPI   C6A 1020  11.098   9.808   7.001  0.3845  0.0218  0.1475
   64loPI   C1B 1021  11.484   8.344   9.179 -0.1630 -0.0998 -0.4056
   64loPI   C2B 1022  11.303   8.359   8.765 -0.2777 -0.1844  0.1592
   64loPI   C3B 1023  11.304   8.319   8.342  0.0780  0.0702 -0.4349
   64loPI   C4B 1024  11.308   8.384   7.864 -0.0357 -0.0522  0.0185
   65loPI    C1 1025   0.652   1.474  10.715  0.1002 -0.1988  0.0561
   65loPI    C2 1026   0.832   1.760  10.930 -0.1852  0.1336 -0.1381
   65loPI    C3 1027   0.447   1.672  10.996 -0.0678 -0.2979  0.0046
   65loPI   PO4 1028   0.693   1.548  10.458 -0.1024 -0.1110 -0.3454
   65loPI   GL1 1029   1.030   1.354  10.109 -0.0270  0.1250 -0.0003
   65loPI   GL2 1030   1.241   1.045  10.080  0.0703  0.2491 -0.4532
   65loPI   C1A 1031   0.904   1.150   9.749 -0.2423  0.0835  0.2061
   65loPI   C2A 1032   0.850   1.156   9.298  0.3147 -0.1977 -0.1700
   65loPI   C3A 1033   0.819   1.319   8.934  0.1406  0.1292 -0.1279
   65loPI   C4A 1034   0.956   1.492   8.565  0.1490 -0.0355  0.1621
   65loPI   C5A 1035   1.213   1.625   8.276  0.0965  0.4319  0.0732
   65loPI   C6A 1036   1.417   1.982   8.286  0.1962  0.1347 -0.1886
   65loPI   C1B 1037   1.316   0.858   9.721 -0.0606 -0.3919  0.2045
   65loPI   C2B 1038   1.299   0.930   9.198  0.0352  0.0594  0.1060
   65loPI   C3B 1039   1.322   1.184   8.943 -0.0501 -0.0605 -0.0223
   65loPI   C4B 1040   1.416   1.263   8.614 -0.0878  0.1549  0.3378
   66loPI    C1 1041   7.847  17.048  10.170  0.0254 -0.0540 -0.0097
   66loPI    C2 1042   8.218  16.906  10.226  0.0593  0.0760  0.1005
   66loPI    C3 1043   7.902  16.700  10.361  0.0870 -0.0650 -0.0472
   66loPI   PO4 1044   7.821  17.060   9.871  0.0997  0.1155  0.3614
   66loPI   GL1 1045   7.814  17.019   9.486 -0.0454 -0.1406  0.0453
   66loPI   GL2 1046   8.107  17.269   9.384 -0.0088 -0.1793  0.3429
   66loPI   C1A 1047   7.698  17.033   9.123  0.0452  0.1115 -0.4673
   66loPI   C2A 1048   7.639  17.157   8.593 -0.1614  0.0794  0.2798
   66loPI   C3A 1049   7.689  17.060   8.209 -0.3530  0.0492 -0.1460
   66loPI   C4A 1050   7.638  16.964   7.686  0.1672 -0.1433 -0.0530
   66loPI   C5A 1051   7.857  16.781   7.362  0.0538  0.0626  0.2619
   66loPI   C6A 1052   8.032  16.728   7.070 -0.1968 -0.3514 -0.3291
   66loPI   C1B 1053   8.046  17.291   8.891 -0.1643 -0.0310 -0.1475
   66loPI   C2B 1054   8.051  17.409   8.434 -0.3563 -0.0491 -0.1681
   66loPI   C3B 1055   8.183  17.542   8.086  0.1760 -0.1133 -0.2931
   66loPI   C4B 1056   8.202  17.800   7.764  0.0305 -0.1151 -0.0034
   67loPI    C1 1057  13.478  11.544  10.229 -0.0478  0.1971 -0.0314
   67loPI    C2 1058  13.348  11.171  10.165 -0.0225  0.2282 -0.2712
   67loPI    C3 1059  13.170  11.400  10.440 -0.1767  0.1125 -0.2732
   67loPI   PO4 1060  13.454  11.658   9.978 -0.1618  0.0345  0.0539
   67loPI   GL1 1061  13.489  11.772   9.673  0.0096 -0.1728  0.0656
   67loPI   GL2 1062  13.717  11.533   9.562 -0.0140  0.3206 -0.2956
   67loPI   C1A 1063  13.305  11.846   9.222  0.0447  0.5054 -0.2301
   67loPI   C2A 1064  13.280  11.762   8.858 -0.2564 -0.1235 -0.1013
   67loPI   C3A 1065  13.325  11.569   8.435 -0.0711 -0.2279  0.1272
   67loPI   C4A 1066  13.420  11.441   7.981  0.1015  0.1487  0.4130
   67loPI   C5A 1067  13.594  11.619   7.619 -0.2076  0.0592 -0.2554
   67loPI   C6A 1068  14.028  11.693   7.422  0.2696 -0.0837 -0.1351
   67loPI   C1B 1069  13.678  11.528   9.062  0.0735 -0.1142  0.0377
   67loPI   C2B 1070  13.813  11.522   8.686 -0.0206  0.0445  0.2929
   67loPI   C3B 1071  14.035  11.409   8.368  0.0114  0.4753  0.0274
   67loPI   C4B 1072  13.949  11.485   7.927 -0.1224  0.3040  0.0428
   68loPI    C1 1073   1.440  13.817  10.004  0.0506  0.1765  0.0732
   68loPI    C2 1074   1.284  13.969  10.340 -0.1811  0.1477 -0.0196
   68loPI    C3 1075   1.044  13.830  10.052  0.0146  0.2083 -0.2155
   68loPI   PO4 1076   1.592  13.570  10.042  0.3245 -0.2836 -0.0979
   68loPI   GL1 1077   1.840  13.396   9.832  0.1082 -0.0215  0.3337
   68loPI   GL2 1078   2.251  13.319   9.994 -0.0601  0.4505  0.0006
   68loPI   C1A 1079   1.910  13.311   9.363  0.1563  0.0908  0.0890
   68loPI   C2A 1080   2.018  13.279   8.936  0.2427  0.2759  0.0292
   68loPI   C3A 1081   2.167  13.246   8.609 -0.1364  0.1259  0.1640
   68loPI   C4A 1082   2.339  12.992   8.161  0.2119  0.0667 -0.0619
   68loPI   C5A 1083   2.205  12.600   8.031  0.4637 -0.3481 -0.2759
   68loPI   C6A 1084   2.151  12.162   7.896  0.2648  0.2278 -0.0611
   68loPI   C1B 1085   2.357  13.383   9.588 -0.2213  0.1736 -0.1749
   68loPI   C2B 1086   2.417  13.500   9.241 -0.0745 -0.0250  0.0264
   68loPI   C3B 1087   2.269  13.716   8.841  0.2743  0.1794 -0.1106
   68loPI   C4B 1088   1.995  14.019   8.794  0.1333  0.4441 -0.0129
   69loPI    C1 1089   1.333   2.998  10.526  0.0189  0.0690  0.1269
   69loPI    C2 1090   1.689   3.059  10.353  0.0780  0.0582  0.2435
   69loPI    C3 1091   1.667   2.993  10.746 -0.0525  0.0482  0.2350
   69loPI   PO4 1092   1.142   2.837  10.410 -0.0202  0.3945 -0.1625
   69loPI   GL1 1093   0.805   2.651  10.290  0.0398  0.2507 -0.1103
   69loPI   GL2 1094   0.697   2.407  10.071 -0.1383  0.0907 -0.0163
   69loPI   C1A 1095   0.610   2.849   9.860 -0.0342  0.0726  0.0767
   69loPI   C2A 1096   0.795   2.985   9.499  0.0018  0.0456 -0.1851
   69loPI   C3A 1097   0.744   3.085   9.006 -0.2858 -0.0517  0.0946
   69loPI   C4A 1098   0.702   3.227   8.598  0.2729  0.0598  0.1747
   69loPI   C5A 1099   0.429   3.274   8.236 -0.1251  0.0376 -0.2234
   69loPI   C6A 1100   0.133   3.579   8.126  0.1944 -0.0613 -0.1109
   69loPI   C1B 1101   1.026   2.461   9.698 -0.2457 -0.3298 -0.1005
   69loPI   C2B 1102   0.827   2.504   9.341 -0.0318 -0.1875 -0.1098
   69loPI   C3B 1103   0.706   2.586   8.998  0.1074  0.2610 -0.1339
   69loPI   C4B 1104   0.681   2.481   8.603 -0.1269  0.1563 -0.1611
   70loPI    C1 1105  15.308   7.973  10.638 -0.1385 -0.0870  0.0494
   70loPI    C2 1106  15.550   8.000  10.321  0.2357 -0.0776  0.3277
   70loPI    C3 1107  15.381   8.329  10.472  0.1437 -0.0684  0.2066
   70loPI   PO4 1108  15.180   7.752  10.603 -0.2354  0.5195  0.1163
   70loPI   GL1 1109  15.003   7.418  10.290  0.0460  0.1207 -0.0999
   70loPI   GL2 1110  15.363   7.367  10.282 -0.1336 -0.2516  0.0331
   70loPI   C1A 1111  15.111   7.516   9.869 -0.1867 -0.1274  0.1365
   70loPI   C2A 1112  15.191   7.697   9.439  0.1305  0.1799 -0.0518
   70loPI   C3A 1113  15.149   7.676   9.103 -0.1719 -0.1337  0.2092
   70loPI   C4A 1114  15.060   7.868   8.801 -0.0537  0.0253 -0.1854
   70loPI   C5A 1115  15.159   8.023   8.483  0.3079 -0.2203 -0.2252
   70loPI   C6A 1116  15.257   8.366   8.195  0.1150  0.1059  0.0998
   70loPI   C1B 1117  15.719   7.496   9.914  0.2086  0.0681 -0.0977
   70loPI   C2B 1118  15.771   7.420   9.483 -0.1377 -0.1512 -0.2087
   70loPI   C3B 1119  15.740   7.467   9.025  0.0964 -0.3512 -0.1324
   70loPI   C4B 1120  15.419   7.541   8.720  0.0111  0.3149  0.0254
   71loPI    C1 1121   2.941  16.652  10.464 -0.4293 -0.0151  0.3635
   71loPI    C2 1122   3.277  16.532  10.645 -0.1180  0.0354 -0.1616
   71loPI    C3 1123   3.050  16.815  10.813  0.1769  0.1047  0.1292
   71loPI   PO4 1124   2.969  16.606  10.261  0.2749  0.0445 -0.0721
   71loPI   GL1 1125   3.021  16.358   9.981  0.0074 -0.0456  0.2579
   71loPI   GL2 1126   3.103  16.481   9.659  0.2808  0.0394 -0.3971
   71loPI   C1A 1127   2.924  16.024   9.693 -0.1519  0.3145  0.0694
   71loPI   C2A 1128   2.948  15.941   9.349  0.0051  0.1355  0.0053
   71loPI   C3A 1129   2.862  15.934   8.892 -0.0030 -0.0879  0.1058
   71loPI   C4A 1130   2.797  16.036   8.382  0.0221 -0.0877 -0.0387
   71loPI   C5A 1131   2.854  16.297   7.988  0.0775  0.0903 -0.1190
   71loPI   C6A 1132   3.011  16.504   7.630 -0.1686 -0.2635  0.2639
   71loPI   C1B 1133   3.256  16.668   9.333 -0.3163 -0.2356 -0.3632
   71loPI   C2B 1134   3.267  16.707   8.870  0.0522 -0.1950 -0.0483
   71loPI   C3B 1135   3.259  16.946   8.368  0.3523  0.0710  0.2870
   71loPI   C4B 1136   2.989  16.832   8.000  0.0209  0.0510  0.0136
   72loPI    C1 1137  11.493  10.261  10.119  0.1015 -0.2348 -0.0293
   72loPI    C2 1138  11.854  10.334  10.275  0.0348 -0.0644  0.0478
   72loPI    C3 1139  11.529  10.354  10.507 -0.0765  0.2900 -0.1312
   72loPI   PO4 1140  11.570  10.412   9.892 -0.2033  0.2523  0.3690
   72loPI   GL1 1141  11.540  10.464   9.453 -0.2911  0.2059  0.0437
   72loPI   GL2 1142  11.297  10.318   9.458  0.2003 -0.0701 -0.0229
   72loPI   C1A 1143  11.687  10.398   9.141 -0.0083 -0.0478 -0.0793
   72loPI   C2A 1144  11.594  10.234   8.743 -0.1044  0.0100 -0.0045
   72loPI   C3A 1145  11.440   9.882   8.482 -0.2417  0.0183 -0.2361
   72loPI   C4A 1146  11.224   9.699   8.152 -0.0801  0.1985 -0.1143
   72loPI   C5A 1147  10.838   9.719   8.056 -0.1649  0.3120  0.0302
   72loPI   C6A 1148  10.510   9.450   8.266  0.2769 -0.2032 -0.0817
   72loPI   C1B 1149  11.210  10.115   9.094 -0.1358  0.0781  0.0709
   72loPI   C2B 1150  11.042  10.059   8.723 -0.1519 -0.3361 -0.2210
   72loPI   C3B 1151  10.993  10.110   8.254 -0.0336 -0.0511 -0.0918
   72loPI   C4B 1152  10.935  10.313   7.892  0.3076 -0.4808  0.1199
   73loPI    C1 1153  11.940   6.911  10.045 -0.2967  0.2810 -0.1121
   73loPI    C2 1154  11.692   6.835  10.350 -0.2890 -0.1808 -0.2137
   73loPI    C3 1155  12.016   7.062  10.408 -0.3008 -0.2433  0.1171
   73loPI   PO4 1156  11.989   6.713   9.942  0.1263 -0.0880  0.2660
   73loPI   GL1 1157  12.008   6.636   9.539  0.2660 -0.1806  0.0171
   73loPI   GL2 1158  11.864   6.359   9.621 -0.1027  0.2681 -0.4129
   73loPI   C1A 1159  12.034   6.536   9.052 -0.3927 -0.0003 -0.0561
   73loPI   C2A 1160  12.075   6.569   8.699 -0.0040 -0.0576  0.2999
   73loPI   C3A 1161  12.311   6.633   8.355  0.1659  0.1346 -0.2513
   73loPI   C4A 1162  12.649   6.839   8.251 -0.0846 -0.1347 -0.1108
   73loPI   C5A 1163  12.866   7.114   8.013  0.0959  0.3121  0.2666
   73loPI   C6A 1164  13.002   7.165   7.647 -0.2595 -0.3851  0.1765
   73loPI   C1B 1165  11.623   6.283   9.274 -0.0993  0.0508  0.0879
   73loPI   C2B 1166  11.669   6.296   8.822  0.2343  0.0012  0.0630
   73loPI   C3B 1167  11.546   6.287   8.419 -0.0460  0.2773  0.2632
   73loPI   C4B 1168  11.420   5.975   8.050 -0.0605 -0.0853 -0.2283
   74loPI    C1 1169   9.989  11.256  10.340  0.1897  0.0360 -0.1552
   74loPI    C2 1170  10.364  11.327  10.461  0.1503  0.1469 -0.0982
   74loPI    C3 1171  10.137  11.062  10.657  0.0605  0.3821  0.1233
   74loPI   PO4 1172  10.000  11.223  10.069  0.0613  0.1355  0.2018
   74loPI   GL1 1173  10.095  11.071   9.593  0.3318 -0.0699 -0.0161
   74loPI   GL2 1174   9.776  11.035   9.598 -0.4099  0.2688 -0.0010
   74loPI   C1A 1175  10.514  11.072   9.160  0.0916  0.0468  0.0547
   74loPI   C2A 1176  10.493  11.025   8.767 -0.2493 -0.1990 -0.0267
   74loPI   C3A 1177  10.471  11.035   8.377  0.0191 -0.0237 -0.2762
   74loPI   C4A 1178  10.477  10.977   7.966  0.0075  0.0177  0.2529
   74loPI   C5A 1179  10.475  10.907   7.542  0.1010 -0.0398  0.1109
   74loPI   C6A 1180  10.695  10.749   7.138  0.0120  0.4105  0.0155
   74loPI   C1B 1181   9.669  10.962   9.218  0.2108 -0.2601 -0.1117
   74loPI   C2B 1182   9.539  10.905   8.754  0.2194 -0.1775  0.0374
   74loPI   C3B 1183   9.676  10.958   8.373 -0.2138  0.1072 -0.1500
   74loPI   C4B 1184   9.626  11.020   7.938 -0.1535  0.1474 -0.2393
   75loPI    C1 1185  16.513   4.236  10.641  0.2025 -0.1407 -0.1183
   75loPI    C2 1186  16.683   4.135  10.989  0.0895 -0.1689 -0.0706
   75loPI    C3 1187  16.911   4.243  10.678  0.1888 -0.0957  0.0267
   75loPI   PO4 1188  16.477   4.038  10.475  0.0299  0.0744 -0.0426
   75loPI   GL1 1189  16.667   3.749  10.164  0.2327 -0.2332 -0.2140
   75loPI   GL2 1190  16.789   3.403   9.954 -0.0208  0.0214 -0.0075
   75loPI   C1A 1191  16.835   3.865   9.767 -0.1815  0.0740  0.0388
   75loPI   C2A 1192  16.650   4.077   9.463  0.2297 -0.2090  0.1654
   75loPI   C3A 1193  16.395   4.253   9.264 -0.2958 -0.2096 -0.1307
   75loPI   C4A 1194  16.486   4.348   8.824 -0.0633  0.2675 -0.0441
   75loPI   C5A 1195  16.530   4.010   8.538  0.0681  0.3083 -0.0132
   75loPI   C6A 1196  16.157   3.958   8.307  0.1050 -0.0098 -0.4935
   75loPI   C1B 1197  16.923   3.323   9.587  0.0923  0.0277  0.1006
   75loPI   C2B 1198  17.023   3.345   9.044  0.1923 -0.3093  0.0996
   75loPI   C3B 1199  17.079   3.122   8.741  0.0220 -0.4169 -0.0213
   75loPI   C4B 1200  17.185   2.975   8.397  0.0997  0.1161 -0.0583
   76loPI    C1 1201   6.965   0.080  10.104  0.0101 -0.0066 -0.1886
   76loPI    C2 1202   6.670  -0.174  10.011  0.0258 -0.1174  0.0567
   76loPI    C3 1203   7.028  -0.315  10.120  0.2103  0.0168 -0.3552
   76loPI   PO4 1204   7.009   0.282   9.893 -0.1941  0.1077  0.2014
   76loPI   GL1 1205   7.161   0.233   9.357 -0.1740 -0.1339  0.2501
   76loPI   GL2 1206   7.078   0.540   9.451  0.0369 -0.0577 -0.0068
   76loPI   C1A 1207   7.368   0.090   9.004 -0.1925  0.2579  0.0373
   76loPI   C2A 1208   7.600   0.191   8.564  0.0676  0.1119 -0.1921
   76loPI   C3A 1209   7.760   0.036   8.222 -0.2839  0.0404  0.0757
   76loPI   C4A 1210   7.972   0.022   7.897  0.0003 -0.1394 -0.1889
   76loPI   C5A 1211   8.151   0.241   7.645  0.2069 -0.0351 -0.0108
   76loPI   C6A 1212   8.561   0.148   7.654  0.2077  0.0298 -0.0053
   76loPI   C1B 1213   6.877   0.441   9.048  0.1286 -0.0420 -0.0005
   76loPI   C2B 1214   7.041   0.402   8.683 -0.0293 -0.0888  0.2461
   76loPI   C3B 1215   7.176   0.148   8.311 -0.0070  0.3409  0.0976
   76loPI   C4B 1216   7.372   0.015   7.883  0.0816  0.2825 -0.0339
   77loPI    C1 1217   2.258   5.106  10.858  0.0004  0.0716 -0.1475
   77loPI    C2 1218   2.318   5.463  11.029  0.3331 -0.0434 -0.0151
   77loPI    C3 1219   2.259   5.139  11.257 -0.0708 -0.0605 -0.1359
   77loPI   PO4 1220   2.461   5.157  10.631 -0.0913 -0.0484 -0.0284
   77loPI   GL1 1221   2.478   5.250  10.199  0.0633  0.1694  0.2308
   77loPI   GL2 1222   2.507   4.984   9.901  0.2144 -0.0211 -0.1526
   77loPI   C1A 1223   2.352   5.545   9.832  0.4055  0.1111 -0.0842
   77loPI   C2A 1224   2.237   5.639   9.414 -0.2811 -0.0431 -0.3985
   77loPI   C3A 1225   2.427   5.555   9.107  0.1937  0.2883  0.1168
   77loPI   C4A 1226   2.696   5.470   8.824  0.4080 -0.0420  0.0795
   77loPI   C5A 1227   2.567   5.381   8.391  0.1350 -0.0110  0.0905
   77loPI   C6A 1228   2.602   5.427   7.918  0.1466  0.1022  0.0141
   77loPI   C1B 1229   2.815   5.057   9.577 -0.6084  0.0167 -0.0413
   77loPI   C2B 1230   2.910   5.445   9.285 -0.0425  0.0676  0.0029
   77loPI   C3B 1231   3.180   5.446   9.057 -0.0537  0.0583 -0.0177
   77loPI   C4B 1232   3.120   5.365   8.594 -0.1258 -0.2250  0.0496
   78loPI    C1 1233   7.912   5.232  10.175 -0.0052  0.0360 -0.0085
   78loPI    C2 1234   8.042   4.955  10.433  0.3846  0.0702 -0.1609
   78loPI    C3 1235   7.922   5.313  10.567  0.1602 -0.0656  0.0093
   78loPI   PO4 1236   8.079   5.211   9.980  0.0441  0.0383  0.1014
   78loPI   GL1 1237   8.432   5.429   9.885  0.2180 -0.0353  0.0605
   78loPI   GL2 1238   8.370   5.704   9.862  0.1193  0.1354  0.1295
   78loPI   C1A 1239   8.419   5.367   9.447  0.1378 -0.0495 -0.1275
   78loPI   C2A 1240   8.425   5.379   9.043 -0.1485 -0.0323  0.0409
   78loPI   C3A 1241   8.477   5.425   8.661  0.1102 -0.0384  0.0897
   78loPI   C4A 1242   8.366   5.744   8.404 -0.0834 -0.2622 -0.2097
   78loPI   C5A 1243   8.098   6.042   8.089  0.0379 -0.0715  0.3378
   78loPI   C6A 1244   7.997   6.260   7.828 -0.0368 -0.1391 -0.2091
   78loPI   C1B 1245   8.126   5.745   9.478  0.0004 -0.0399 -0.0830
   78loPI   C2B 1246   8.074   5.856   9.004  0.0652  0.0760 -0.0219
   78loPI   C3B 1247   7.933   5.988   8.541 -0.4409  0.2097  0.1935
   78loPI   C4B 1248   7.753   6.341   8.356 -0.3387  0.2398  0.0234
   79loPI    C1 1249   6.390  16.062   9.666 -0.1607  0.0208  0.2156
   79loPI    C2 1250   6.577  16.413   9.710 -0.0381 -0.0236  0.0588
   79loPI    C3 1251   6.558  16.156  10.016 -0.0903  0.1005  0.1608
   79loPI   PO4 1252   6.176  16.045   9.610 -0.0182 -0.0187  0.1156
   79loPI   GL1 1253   5.977  16.039   9.259  0.0856 -0.1753  0.2917
   79loPI   GL2 1254   6.267  15.973   9.115 -0.1383 -0.1589 -0.0055
   79loPI   C1A 1255   5.831  16.244   8.870 -0.0610  0.0547 -0.1031
   79loPI   C2A 1256   5.766  16.356   8.535 -0.1754 -0.0282 -0.1125
   79loPI   C3A 1257   5.823  16.111   8.157  0.1610  0.1642  0.0042
   79loPI   C4A 1258   5.958  16.046   7.777 -0.0486  0.0763 -0.3029
   79loPI   C5A 1259   5.900  15.823   7.412 -0.1479 -0.0907 -0.0922
   79loPI   C6A 1260   6.068  15.745   7.117  0.2327 -0.2696  0.3503
   79loPI   C1B 1261   6.602  16.037   8.816  0.1221  0.2455  0.0895
   79loPI   C2B 1262   6.743  15.977   8.410 -0.1305  0.1227 -0.1617
   79loPI   C3B 1263   6.824  16.036   7.908 -0.0608  0.1117 -0.2077
   79loPI   C4B 1264   6.914  15.748   7.464  0.0897 -0.2907 -0.0823
   80loPI    C1 1265   7.828   3.940  10.590  0.2078  0.0663 -0.0169
   80loPI    C2 1266   7.811   3.699  10.908 -0.0384  0.0723 -0.0242
   80loPI    C3 1267   7.948   4.072  10.948 -0.0782  0.0764  0.0771
   80loPI   PO4 1268   7.992   3.883  10.278 -0.0062  0.0261 -0.0190
   80loPI   GL1 1269   7.796   3.786   9.923  0.0644  0.0336  0.3366
   80loPI   GL2 1270   7.670   3.644   9.695 -0.0241 -0.2527 -0.2856
   80loPI   C1A 1271   8.161   3.694   9.633 -0.1457  0.3073  0.1362
   80loPI   C2A 1272   8.295   3.697   9.311 -0.0756  0.2314 -0.1624
   80loPI   C3A 1273   8.308   3.667   8.920  0.3713 -0.0185  0.2085
   80loPI   C4A 1274   8.279   3.584   8.540  0.0124  0.5136 -0.5994
   80loPI   C5A 1275   8.085   3.461   8.220 -0.3714 -0.3499  0.1756
   80loPI   C6A 1276   8.023   3.550   7.863  0.2448 -0.0095 -0.2076
   80loPI   C1B 1277   7.787   3.661   9.219  0.1175  0.2585  0.0319
   80loPI   C2B 1278   7.845   3.464   8.771 -0.0934 -0.1503 -0.0126
   80loPI   C3B 1279   7.663   3.653   8.395 -0.1375 -0.2507 -0.0508
   80loPI   C4B 1280   7.330   3.969   8.297 -0.3358  0.2147  0.2583
   81loPI    C1 1281  11.291  11.313  10.181  0.2325 -0.3302 -0.2477
   81loPI    C2 1282  10.917  11.171  10.171  0.0746  0.0550 -0.0500
   81loPI    C3 1283  11.168  11.054  10.460 -0.0308  0.1215  0.0694
   81loPI   PO4 1284  11.394  11.211   9.937  0.0282 -0.1733 -0.0251
   81loPI   GL1 1285  11.467  11.488   9.512 -0.2308  0.1081  0.1291
   81loPI   GL2 1286  11.583  11.713   9.416 -0.1257 -0.0718 -0.1073
   81loPI   C1A 1287  11.456  11.314   9.077  0.0362  0.0291 -0.2264
   81loPI   C2A 1288  11.416  11.230   8.620  0.0193 -0.2552  0.2562
   81loPI   C3A 1289  11.507  11.085   8.235 -0.0125  0.1079 -0.1365
   81loPI   C4A 1290  11.435  11.064   7.855 -0.1425  0.1775  0.0557
   81loPI   C5A 1291  11.412  11.235   7.478 -0.2043  0.4186 -0.0190
   81loPI   C6A 1292  11.033  11.509   7.256 -0.1829 -0.3122 -0.0587
   81loPI   C1B 1293  11.416  11.931   9.025 -0.0487  0.1965  0.0778
   81loPI   C2B 1294  11.495  11.758   8.536 -0.2844  0.1526  0.4217
   81loPI   C3B 1295  11.649  11.615   8.207 -0.0525 -0.1719 -0.0367
   81loPI   C4B 1296  11.672  11.472   7.821  0.0085 -0.0500 -0.1552
   82loPI    C1 1297   8.197  11.511  10.495 -0.0635 -0.1163 -0.0381
   82loPI    C2 1298   7.922  11.375  10.752 -0.0600  0.0163  0.0368
   82loPI    C3 1299   7.928  11.762  10.652 -0.1017 -0.0459 -0.2138
   82loPI   PO4 1300   8.157  11.278  10.221  0.1827  0.0953  0.4624
   82loPI   GL1 1301   8.038  10.866   9.961  0.2229  0.2085 -0.1640
   82loPI   GL2 1302   8.194  10.554   9.756  0.0577 -0.1038  0.0767
   82loPI   C1A 1303   7.831  11.006   9.537  0.0153 -0.1781 -0.0010
   82loPI   C2A 1304   7.865  11.037   9.115  0.2960  0.0069 -0.2755
   82loPI   C3A 1305   7.728  10.899   8.697  0.1338  0.2076 -0.1646
   82loPI   C4A 1306   7.751  10.870   8.235  0.1316  0.0339 -0.3104
   82loPI   C5A 1307   7.695  10.958   7.763  0.0760 -0.0582 -0.0216
   82loPI   C6A 1308   7.927  11.111   7.499 -0.0792 -0.1665  0.1597
   82loPI   C1B 1309   8.043  10.592   9.321  0.0508 -0.0028  0.1177
   82loPI   C2B 1310   8.122  10.608   8.923 -0.0975 -0.3359 -0.0460
   82loPI   C3B 1311   8.319  10.641   8.561 -0.1740  0.1704  0.1610
   82loPI   C4B 1312   8.333  10.574   8.086 -0.0409 -0.5572  0.0324
   83loPI    C1 1313  17.673   7.335  10.945  0.0646 -0.1428  0.0944
   83loPI    C2 1314  17.314   7.387  11.114  0.0026 -0.1200 -0.0423
   83loPI    C3 1315  17.638   7.561  11.274 -0.0259 -0.2460  0.1562
   83loPI   PO4 1316  17.646   7.481  10.671  0.0623 -0.0081 -0.0856
   83loPI   GL1 1317  17.663   7.349  10.354  0.1851  0.0669 -0.0570
   83loPI   GL2 1318  17.825   7.245  10.199 -0.0566  0.0960  0.1045
   83loPI   C1A 1319  17.421   7.418   9.968  0.2533 -0.0936  0.1957
   83loPI   C2A 1320  17.461   7.632   9.608  0.0879  0.0697  0.4553
   83loPI   C3A 1321  17.445   7.725   9.190  0.0290 -0.0993  0.0630
   83loPI   C4A 1322  17.600   7.984   8.746  0.0398 -0.4182 -0.0530
   83loPI   C5A 1323  17.879   8.188   8.422  0.0849 -0.3300  0.1213
   83loPI   C6A 1324  18.158   8.531   8.153 -0.2923  0.1215  0.4317
   83loPI   C1B 1325  17.841   7.269   9.752  0.1510 -0.1771 -0.3545
   83loPI   C2B 1326  17.674   7.254   9.375  0.4462 -0.0163  0.0586
   83loPI   C3B 1327  17.584   7.257   8.950  0.1810 -0.2255 -0.3554
   83loPI   C4B 1328  17.568   7.185   8.478  0.0176  0.2039 -0.2062
   84loPI    C1 1329   1.475   6.898  10.646 -0.0039  0.0719  0.1609
   84loPI    C2 1330   1.246   6.752  10.940 -0.0140  0.2015  0.2179
   84loPI    C3 1331   1.344   7.140  10.936  0.1502  0.1605  0.1578
   84loPI   PO4 1332   1.399   6.733  10.438 -0.1398  0.0420  0.3501
   84loPI   GL1 1333   1.281   6.486  10.126 -0.0492  0.0413  0.0710
   84loPI   GL2 1334   1.595   6.425   9.963  0.1561  0.1982 -0.4452
   84loPI   C1A 1335   1.124   6.269   9.677  0.1194  0.0152  0.0823
   84loPI   C2A 1336   1.221   6.272   9.259 -0.1612  0.1738  0.2618
   84loPI   C3A 1337   1.167   6.245   8.835 -0.2156  0.1891 -0.1645
   84loPI   C4A 1338   1.425   6.329   8.471 -0.3096  0.1640  0.0103
   84loPI   C5A 1339   1.605   6.277   8.104  0.1254  0.1754 -0.0292
   84loPI   C6A 1340   1.761   6.185   7.723 -0.1668  0.1278 -0.2826
   84loPI   C1B 1341   1.728   6.373   9.508 -0.2067 -0.2790 -0.0278
   84loPI   C2B 1342   1.714   6.465   9.047 -0.1439  0.2464 -0.2388
   84loPI   C3B 1343   1.929   6.202   8.596  0.2484 -0.4751  0.2116
   84loPI   C4B 1344   2.168   6.302   8.275 -0.3190  0.0818  0.2786
   85loPI    C1 1345   6.355  17.312  10.048 -0.2419 -0.5072  0.2630
   85loPI    C2 1346   6.740  17.263  10.145 -0.1242 -0.1739 -0.0158
   85loPI    C3 1347   6.454  17.103  10.374  0.1746 -0.3255  0.2591
   85loPI   PO4 1348   6.328  17.463   9.879 -0.0213  0.0553 -0.2242
   85loPI   GL1 1349   6.301  17.605   9.473 -0.0138  0.2322 -0.2805
   85loPI   GL2 1350   6.480  17.334   9.415 -0.0803  0.3403  0.0574
   85loPI   C1A 1351   6.234  17.801   9.097  0.1827 -0.1015 -0.2739
   85loPI   C2A 1352   6.325  17.952   8.803 -0.1416 -0.0035 -0.1014
   85loPI   C3A 1353   6.403  18.012   8.384 -0.0033  0.1448 -0.3192
   85loPI   C4A 1354   6.336  17.854   7.881 -0.0552 -0.0798 -0.1669
   85loPI   C5A 1355   6.164  18.071   7.431  0.0008  0.0713 -0.0318
   85loPI   C6A 1356   6.386  18.321   7.305  0.2767  0.0553  0.1568
   85loPI   C1B 1357   6.508  16.965   9.092  0.2247  0.0939  0.0666
   85loPI   C2B 1358   6.347  17.039   8.627  0.6021  0.3341 -0.3656
   85loPI   C3B 1359   6.306  16.918   8.181  0.3166 -0.3240 -0.0301
   85loPI   C4B 1360   5.984  17.024   7.908  0.1261 -0.1776 -0.4756
   86loPI    C1 1361   3.632  12.971  10.474 -0.0959  0.0767 -0.0645
   86loPI    C2 1362   3.794  13.133  10.146  0.1595 -0.0104  0.0167
   86loPI    C3 1363   3.917  13.248  10.509 -0.1225  0.0858  0.0846
   86loPI   PO4 1364   3.489  12.770  10.297 -0.0828  0.0672  0.3337
   86loPI   GL1 1365   3.518  12.629   9.831  0.0730 -0.1234  0.1368
   86loPI   GL2 1366   3.377  12.866   9.759  0.1042  0.3942 -0.0635
   86loPI   C1A 1367   3.749  12.648   9.487  0.0956 -0.1334  0.4853
   86loPI   C2A 1368   3.851  12.578   9.047  0.0972 -0.2781 -0.1320
   86loPI   C3A 1369   3.847  12.636   8.653 -0.0391 -0.0187  0.0044
   86loPI   C4A 1370   3.984  12.534   8.339 -0.0467  0.2613 -0.1073
   86loPI   C5A 1371   3.982  12.477   7.907  0.2204 -0.0960 -0.2099
   86loPI   C6A 1372   3.827  12.554   7.491 -0.2043 -0.1353  0.2801
   86loPI   C1B 1373   3.304  12.934   9.379 -0.2258 -0.1420 -0.0284
   86loPI   C2B 1374   3.410  12.842   8.929  0.2964  0.1373 -0.3283
   86loPI   C3B 1375   3.425  12.793   8.455  0.1172 -0.0465  0.0931
   86loPI   C4B 1376   3.531  12.537   8.157  0.2119 -0.0132  0.1119
   87loPI    C1 1377  16.677   4.641  11.013  0.0600 -0.0976  0.1760
   87loPI    C2 1378  16.325   4.798  11.118  0.1185  0.1141  0.0613
   87loPI    C3 1379  16.459   4.468  11.300 -0.0053  0.1973  0.3074
   87loPI   PO4 1380  16.704   4.685  10.652  0.0335 -0.0241 -0.0576
   87loPI   GL1 1381  16.662   4.448  10.202  0.0026  0.1800  0.0951
   87loPI   GL2 1382  16.952   4.684  10.188 -0.1514  0.1105  0.1303
   87loPI   C1A 1383  16.438   4.599   9.836  0.0705  0.0354  0.1046
   87loPI   C2A 1384  16.585   4.632   9.479 -0.1121 -0.1961  0.0773
   87loPI   C3A 1385  16.789   4.586   9.059  0.0505 -0.1803  0.0077
   87loPI   C4A 1386  16.960   4.464   8.667 -0.0928  0.5862  0.3084
   87loPI   C5A 1387  16.855   4.257   8.265 -0.0966  0.3233  0.1639
   87loPI   C6A 1388  16.684   4.011   7.841 -0.0815 -0.2367  0.5086
   87loPI   C1B 1389  17.021   4.827   9.775 -0.2404  0.3145 -0.0042
   87loPI   C2B 1390  17.133   4.892   9.332  0.1715  0.2150  0.1372
   87loPI   C3B 1391  17.242   4.739   8.932 -0.1265  0.4579 -0.4343
   87loPI   C4B 1392  17.238   4.715   8.414 -0.1646 -0.1895  0.0909
   88loPI    C1 1393   1.043  18.214  10.411 -0.1738 -0.1745  0.0323
   88loPI    C2 1394   1.160  18.263  10.790  0.1748 -0.2522 -0.0622
   88loPI    C3 1395   1.239  17.921  10.599  0.0173 -0.2061 -0.2123
   88loPI   PO4 1396   1.122  18.567  10.288  0.1145 -0.2207 -0.1448
   88loPI   GL1 1397   0.919  18.751   9.930  0.2963  0.3131 -0.1061
   88loPI   GL2 1398   0.862  19.068   9.926  0.4203 -0.0077  0.2406
   88loPI   C1A 1399   0.816  18.610   9.406 -0.1834 -0.2038  0.2007
   88loPI   C2A 1400   0.772  18.647   9.010  0.0938 -0.2976 -0.3978
   88loPI   C3A 1401   1.040  18.765   8.560  0.0781  0.0223  0.4295
   88loPI   C4A 1402   1.222  18.798   8.144  0.0309 -0.1912 -0.1419
   88loPI   C5A 1403   1.430  18.405   7.912 -0.0157 -0.0884 -0.0090
   88loPI   C6A 1404   1.790  18.165   7.919  0.1603  0.1130 -0.1083
   88loPI   C1B 1405   0.868  19.134   9.523  0.3646  0.0295 -0.1458
   88loPI   C2B 1406   0.883  19.176   9.011 -0.3833  0.1999 -0.0169
   88loPI   C3B 1407   1.041  19.405   8.582  0.2111  0.0553 -0.3516
   88loPI   C4B 1408   1.355  19.524   8.184 -0.2542 -0.1500  0.0212
   89loPI    C1 1409  14.625   2.423  10.603  0.1754 -0.1601 -0.4495
   89loPI    C2 1410  14.969   2.543  10.769 -0.0236 -0.0417 -0.1152
   89loPI    C3 1411  14.824   2.179  10.850 -0.0045 -0.0716 -0.2142
   89loPI   PO4 1412  14.632   2.468  10.298  0.4475  0.0583  0.1743
   89loPI   GL1 1413  14.659   2.413   9.824 -0.0790 -0.0293  0.0584
   89loPI   GL2 1414  15.085   2.267   9.758 -0.0506  0.2043 -0.0363
   89loPI   C1A 1415  14.622   2.807   9.697 -0.0253 -0.0059  0.0810
   89loPI   C2A 1416  14.413   3.042   9.341 -0.0226 -0.0447  0.3940
   89loPI   C3A 1417  14.035   3.118   9.243  0.2531 -0.1385 -0.0490
   89loPI   C4A 1418  13.876   3.377   8.930 -0.4340  0.2873 -0.1572
   89loPI   C5A 1419  13.661   3.316   8.590 -0.2215  0.0686  0.1506
   89loPI   C6A 1420  13.786   3.081   8.253  0.2712 -0.2240 -0.0064
   89loPI   C1B 1421  14.906   2.371   9.375 -0.3601  0.2659 -0.2522
   89loPI   C2B 1422  14.569   2.604   9.239 -0.0258  0.1662 -0.0651
   89loPI   C3B 1423  14.586   2.751   8.780 -0.1202  0.1385  0.0515
   89loPI   C4B 1424  14.527   2.849   8.432 -0.1116  0.4292 -0.1215
   90loPI    C1 1425   5.965   9.310  10.615  0.0549  0.0539 -0.0434
   90loPI    C2 1426   5.800   8.966  10.735  0.1949 -0.0273 -0.0803
   90loPI    C3 1427   5.945   9.222  11.005  0.0401  0.0297 -0.0495
   90loPI   PO4 1428   5.888   9.321  10.347 -0.1145 -0.1355 -0.0723
   90loPI   GL1 1429   5.971   9.372  10.000 -0.1647  0.0226 -0.2810
   90loPI   GL2 1430   5.693   9.115   9.913  0.3448 -0.0168 -0.1511
   90loPI   C1A 1431   6.079   9.326   9.575  0.0523  0.1514  0.4444
   90loPI   C2A 1432   6.059   9.314   9.189 -0.1373 -0.0258 -0.3764
   90loPI   C3A 1433   6.142   9.241   8.748 -0.1015  0.1378  0.1960
   90loPI   C4A 1434   5.984   9.132   8.447 -0.3157 -0.0573  0.1968
   90loPI   C5A 1435   5.892   9.052   8.026 -0.1056  0.4965  0.0593
   90loPI   C6A 1436   6.069   9.046   7.575  0.0993 -0.1242 -0.2003
   90loPI   C1B 1437   5.732   8.986   9.651 -0.1402 -0.1059 -0.0403
   90loPI   C2B 1438   5.788   8.881   9.187  0.0983 -0.3618  0.3699
   90loPI   C3B 1439   6.165   8.766   9.031  0.3433 -0.2665 -0.2277
   90loPI   C4B 1440   6.274   8.727   8.712  0.0650 -0.0683 -0.0195
   91loPI    C1 1441  14.398  15.070  10.310  0.0531  0.0902  0.0455
   91loPI    C2 1442  14.542  14.945  10.661 -0.2173  0.2203  0.2062
   91loPI    C3 1443  14.586  15.327  10.552  0.1945  0.1000 -0.0734
   91loPI   PO4 1444  14.467  14.905  10.171  0.2097  0.1079 -0.2814
   91loPI   GL1 1445  14.502  14.838   9.749 -0.1709  0.2263  0.2378
   91loPI   GL2 1446  14.481  14.511   9.619 -0.0091 -0.0384 -0.2580
   91loPI   C1A 1447  14.446  14.945   9.293  0.0155  0.1720  0.1621
   91loPI   C2A 1448  14.480  14.907   8.910  0.1646 -0.1103 -0.0325
   91loPI   C3A 1449  14.387  14.800   8.548  0.0560 -0.3331  0.1462
   91loPI   C4A 1450  14.471  14.722   8.102 -0.1644  0.1981  0.0152
   91loPI   C5A 1451  14.219  14.649   7.667  0.1737  0.1788  0.0979
   91loPI   C6A 1452  14.175  14.537   7.236  0.0384  0.0251  0.1102
   91loPI   C1B 1453  14.474  14.460   9.095 -0.1242  0.0480 -0.0715
   91loPI   C2B 1454  14.515  14.325   8.699  0.1539  0.0633 -0.1524
   91loPI   C3B 1455  14.484  14.262   8.290 -0.1698  0.0430  0.0515
   91loPI   C4B 1456  14.589  14.250   7.923  0.0217 -0.1215  0.1963
   92loPI    C1 1457   0.972   7.284  10.377 -0.1120  0.0476 -0.1367
   92loPI    C2 1458   0.893   7.055  10.695  0.0288 -0.0337 -0.1594
   92loPI    C3 1459   0.954   7.448  10.741 -0.2102  0.0006 -0.1198
   92loPI   PO4 1460   1.228   7.202  10.343  0.1710 -0.1720 -0.5279
   92loPI   GL1 1461   1.287   6.982   9.965 -0.2114 -0.1550  0.3082
   92loPI   GL2 1462   0.988   6.750   9.832 -0.1361  0.0414  0.0594
   92loPI   C1A 1463   1.485   6.785   9.598 -0.1495  0.0999  0.1787
   92loPI   C2A 1464   1.392   6.736   9.147  0.4692  0.0196 -0.1625
   92loPI   C3A 1465   1.421   6.799   8.747  0.0880  0.1710  0.2022
   92loPI   C4A 1466   1.301   6.846   8.312  0.0154  0.2383  0.4961
   92loPI   C5A 1467   1.266   6.640   7.967 -0.3084 -0.2247  0.2900
   92loPI   C6A 1468   0.969   6.463   7.714 -0.0579 -0.1660  0.1812
   92loPI   C1B 1469   0.948   6.777   9.429  0.0052 -0.0753 -0.2172
   92loPI   C2B 1470   0.877   6.681   8.943  0.1425 -0.1648 -0.0376
   92loPI   C3B 1471   0.801   6.525   8.502  0.0378 -0.1639 -0.0247
   92loPI   C4B 1472   0.752   6.277   8.170  0.2052 -0.1153  0.1091
   93loPI    C1 1473   2.805   6.415  10.535 -0.1660 -0.0484 -0.1182
   93loPI    C2 1474   2.703   6.028  10.552  0.0032 -0.0808  0.2590
   93loPI    C3 1475   2.955   6.181  10.823  0.0982  0.2489 -0.0085
   93loPI   PO4 1476   2.932   6.461  10.271  0.3340  0.0654  0.0572
   93loPI   GL1 1477   3.195   6.351   9.931  0.2016 -0.1837  0.0108
   93loPI   GL2 1478   3.310   6.577   9.833 -0.0911  0.0798 -0.0183
   93loPI   C1A 1479   3.379   6.145   9.633  0.1401  0.1325  0.2255
   93loPI   C2A 1480   3.299   5.910   9.211  0.1321 -0.0226 -0.0523
   93loPI   C3A 1481   3.067   5.863   8.832  0.1139 -0.3133  0.2584
   93loPI   C4A 1482   3.096   5.920   8.321  0.2133 -0.1297  0.0293
   93loPI   C5A 1483   3.041   5.700   7.991  0.0409 -0.1407  0.2960
   93loPI   C6A 1484   3.000   5.323   8.135  0.2411  0.2826 -0.0215
   93loPI   C1B 1485   3.369   6.655   9.423  0.2395 -0.1222 -0.0928
   93loPI   C2B 1486   3.466   6.477   9.212  0.2909  0.1140  0.4199
   93loPI   C3B 1487   3.420   6.328   8.800  0.0384  0.0126 -0.1314
   93loPI   C4B 1488   3.385   6.299   8.324  0.0058 -0.2869 -0.0940
   94loPI    C1 1489  18.282  17.836  10.581 -0.1196 -0.1349 -0.0978
   94loPI    C2 1490  18.044  17.626  10.825 -0.0988 -0.0329  0.0111
   94loPI    C3 1491  18.424  17.512  10.769 -0.0841 -0.0180  0.0791
   94loPI   PO4 1492  18.088  17.910  10.342 -0.2909  0.1247  0.0134
   94loPI   GL1 1493  17.875  17.964   9.988 -0.0814 -0.0171 -0.1914
   94loPI   GL2 1494  17.671  17.705   9.878  0.2897  0.1629 -0.3196
   94loPI   C1A 1495  17.970  17.916   9.524 -0.0234 -0.1406  0.0311
   94loPI   C2A 1496  18.065  17.909   9.076  0.1305 -0.1021  0.2180
   94loPI   C3A 1497  17.978  17.865   8.582  0.0710 -0.1234 -0.1657
   94loPI   C4A 1498  18.022  17.955   8.130  0.1700 -0.1199 -0.0411
   94loPI   C5A 1499  18.084  17.706   7.720  0.2477 -0.5900 -0.0754
   94loPI   C6A 1500  18.446  17.790   7.462 -0.0784 -0.1007 -0.0007
   94loPI   C1B 1501  17.496  17.729   9.410 -0.1862 -0.0277 -0.0319
   94loPI   C2B 1502  17.406  17.814   9.049 -0.0867 -0.0583  0.0663
   94loPI   C3B 1503  17.392  17.806   8.663  0.3395  0.3864  0.2829
   94loPI   C4B 1504  17.266  17.956   8.245 -0.0544  0.2988 -0.5723
   95loPI    C1 1505   9.574   8.624  10.460 -0.0716 -0.1855  0.0963
   95loPI    C2 1506   9.260   8.867  10.410 -0.1271 -0.2196  0.2694
   95loPI    C3 1507   9.458   8.865  10.758  0.4154  0.2092 -0.0187
   95loPI   PO4 1508   9.568   8.595  10.177 -0.0946 -0.1654 -0.1475
   95loPI   GL1 1509   9.230   8.624   9.847 -0.0059  0.3169  0.4033
   95loPI   GL2 1510   9.457   8.867   9.800  0.1758  0.0515  0.1878
   95loPI   C1A 1511   9.195   8.601   9.407 -0.2749 -0.1828 -0.1441
   95loPI   C2A 1512   9.009   8.704   9.044  0.2599  0.0618 -0.0219
   95loPI   C3A 1513   9.045   8.550   8.716  0.1564 -0.2130 -0.0628
   95loPI   C4A 1514   8.877   8.383   8.287  0.1956  0.2224 -0.0819
   95loPI   C5A 1515   8.855   7.949   8.137  0.0725  0.1341 -0.0009
   95loPI   C6A 1516   8.998   7.547   8.067  0.0507 -0.0291 -0.2317
   95loPI   C1B 1517   9.724   8.875   9.402 -0.0153 -0.0951  0.0699
   95loPI   C2B 1518   9.568   8.639   9.069  0.1616  0.1984  0.1131
   95loPI   C3B 1519   9.535   8.525   8.645  0.1520  0.1837 -0.0167
   95loPI   C4B 1520   9.384   8.548   8.297  0.4402 -0.1530 -0.0015
   96loPI    C1 1521   3.940  16.334  10.513  0.0717  0.0011 -0.0222
   96loPI    C2 1522   3.884  16.562  10.836  0.0952 -0.1426  0.0841
   96loPI    C3 1523   3.656  16.239  10.777 -0.2155  0.1342 -0.2772
   96loPI   PO4 1524   3.948  16.512  10.338  0.0314  0.1129 -0.1885
   96loPI   GL1 1525   3.814  16.549   9.969 -0.0594 -0.1247  0.4086
   96loPI   GL2 1526   3.885  16.228   9.791  0.2465  0.0548 -0.1522
   96loPI   C1A 1527   3.730  16.544   9.480  0.1327  0.1559  0.0718
   96loPI   C2A 1528   3.783  16.287   9.157 -0.0180 -0.1154  0.2593
   96loPI   C3A 1529   3.747  16.282   8.728  0.1184 -0.2317  0.0056
   96loPI   C4A 1530   3.705  16.529   8.405  0.2120 -0.1834 -0.0480
   96loPI   C5A 1531   3.635  16.824   8.005 -0.0080 -0.2410 -0.1183
   96loPI   C6A 1532   3.358  16.877   7.659 -0.1245 -0.4132  0.0894
   96loPI   C1B 1533   3.844  15.819   9.574 -0.2395 -0.1747 -0.0680
   96loPI   C2B 1534   3.815  15.748   9.143 -0.0125  0.0487  0.3202
   96loPI   C3B 1535   3.833  15.804   8.689 -0.1114  0.1469  0.2187
   96loPI   C4B 1536   3.638  16.027   8.251 -0.0030  0.1175  0.2602
   97loPI    C1 1537   3.759   6.058  10.628 -0.1722  0.0010 -0.2144
   97loPI    C2 1538   3.577   6.310  10.881  0.1834  0.2020 -0.1522
   97loPI    C3 1539   3.394   5.973  10.768 -0.0637  0.2086  0.2124
   97loPI   PO4 1540   3.914   6.235  10.511  0.0350  0.0907 -0.2101
   97loPI   GL1 1541   4.167   6.278  10.106 -0.0781 -0.2259  0.0758
   97loPI   GL2 1542   3.909   6.531  10.140 -0.0083 -0.0849  0.0849
   97loPI   C1A 1543   4.130   6.370   9.721  0.3011  0.1527 -0.1911
   97loPI   C2A 1544   4.326   6.356   9.201 -0.2208  0.2878 -0.1951
   97loPI   C3A 1545   4.347   6.473   8.750 -0.1552 -0.0508 -0.0596
   97loPI   C4A 1546   4.130   6.555   8.330  0.1642 -0.3068 -0.0684
   97loPI   C5A 1547   3.734   6.401   8.008  0.0238  0.1871  0.0987
   97loPI   C6A 1548   3.508   6.435   7.661  0.2711 -0.1189 -0.1797
   97loPI   C1B 1549   4.287   6.928  10.044 -0.3184 -0.0478 -0.0281
   97loPI   C2B 1550   4.438   7.077   9.773 -0.0600  0.0853 -0.1131
   97loPI   C3B 1551   4.770   7.367   9.649 -0.0452  0.0222  0.3086
   97loPI   C4B 1552   5.084   7.671   9.593 -0.0419  0.4282 -0.0206
   98loPI    C1 1553  17.744   4.295  10.796 -0.0315  0.2849  0.1648
   98loPI    C2 1554  18.127   4.297  10.683 -0.0785 -0.1162 -0.0157
   98loPI    C3 1555  18.017   4.102  11.014 -0.1488 -0.1359 -0.0505
   98loPI   PO4 1556  17.715   4.577  10.822 -0.0477 -0.1550  0.0476
   98loPI   GL1 1557  17.487   4.970  10.525 -0.3163  0.3536  0.3010
   98loPI   GL2 1558  17.897   4.838  10.469  0.0307  0.1848 -0.0120
   98loPI   C1A 1559  17.595   4.746   9.999  0.0931 -0.0395 -0.0877
   98loPI   C2A 1560  17.534   4.751   9.661 -0.1126 -0.2366 -0.0374
   98loPI   C3A 1561  17.644   4.802   9.246  0.0615  0.3161  0.0517
   98loPI   C4A 1562  17.917   4.632   8.752  0.1499 -0.0130 -0.1185
   98loPI   C5A 1563  17.870   4.646   8.323 -0.0728  0.1166  0.1432
   98loPI   C6A 1564  17.781   4.772   7.875  0.3307 -0.0990  0.0584
   98loPI   C1B 1565  18.047   4.539  10.245  0.0999 -0.0932  0.0550
   98loPI   C2B 1566  18.108   4.501   9.865  0.0353  0.3063 -0.1225
   98loPI   C3B 1567  18.060   4.551   9.486  0.1153  0.2133  0.0340
   98loPI   C4B 1568  18.033   4.539   9.197  0.2835 -0.2745  0.1572
   99loPI    C1 1569  17.155   6.574  10.855 -0.0031  0.1616 -0.1562
   99loPI    C2 1570  17.297   6.851  11.106 -0.0902  0.0405  0.0288
   99loPI    C3 1571  17.124   6.520  11.250  0.2818 -0.2541 -0.1837
   99loPI   PO4 1572  17.159   6.671  10.570 -0.2720 -0.0431 -0.0902
   99loPI   GL1 1573  17.220   6.457  10.195 -0.2571 -0.1538  0.0327
   99loPI   GL2 1574  16.905   6.621  10.142 -0.0360  0.3886  0.2155
   99loPI   C1A 1575  17.261   6.233   9.793  0.1237  0.1537 -0.1525
   99loPI   C2A 1576  16.904   6.023   9.505  0.2463  0.3205 -0.0726
   99loPI   C3A 1577  16.949   5.852   9.061 -0.2434  0.0859  0.0238
   99loPI   C4A 1578  17.175   5.685   8.677 -0.2135  0.1060 -0.1088
   99loPI   C5A 1579  17.561   5.664   8.546 -0.2009 -0.3847 -0.5438
   99loPI   C6A 1580  17.944   5.903   8.533 -0.1086 -0.2018  0.3125
   99loPI   C1B 1581  16.817   6.506   9.668  0.2971 -0.0511 -0.0349
   99loPI   C2B 1582  16.789   6.519   9.211 -0.2224  0.1160 -0.2496
   99loPI   C3B 1583  17.064   6.575   8.904 -0.2044  0.2295 -0.1790
   99loPI   C4B 1584  17.040   6.433   8.498 -0.0306 -0.1794 -0.1436
  100loPI    C1 1585  14.611   8.479  10.861  0.0489  0.0327 -0.0534
  100loPI    C2 1586  14.548   8.122  11.031  0.2044  0.0509  0.0444
  100loPI    C3 1587  14.245   8.380  10.989  0.1470  0.0129  0.2182
  100loPI   PO4 1588  14.812   8.362  10.616  0.0801 -0.1604 -0.2624
  100loPI   GL1 1589  15.014   8.358  10.135 -0.0519 -0.2581  0.0188
  100loPI   GL2 1590  15.026   8.052  10.234 -0.2036 -0.0441  0.1597
  100loPI   C1A 1591  14.876   8.315   9.750  0.0433 -0.0187 -0.2797
  100loPI   C2A 1592  15.063   8.249   9.301  0.0354  0.2646 -0.4627
  100loPI   C3A 1593  15.197   8.416   8.880 -0.1472 -0.3290  0.1313
  100loPI   C4A 1594  15.310   8.683   8.608 -0.0819  0.1926  0.0930
  100loPI   C5A 1595  15.269   8.848   8.219 -0.1176  0.2377  0.0798
  100loPI   C6A 1596  15.453   8.709   7.890 -0.2162 -0.1337 -0.0750
  100loPI   C1B 1597  15.280   8.054   9.817 -0.1764 -0.1297  0.1614
  100loPI   C2B 1598  15.577   8.375   9.597  0.3775 -0.1291  0.1162
  100loPI   C3B 1599  15.370   8.598   9.284  0.1238  0.1841  0.0864
  100loPI   C4B 1600  15.321   9.055   9.380  0.1886  0.5975 -0.0971
  101loPI    C1 1601   2.011  15.904  10.687 -0.0181 -0.0363  0.0990
  101loPI    C2 1602   1.686  15.843  10.463 -0.0901  0.0213  0.1868
  101loPI    C3 1603   1.676  15.763  10.855  0.0482 -0.1189  0.1629
  101loPI   PO4 1604   2.193  15.856  10.396  0.2134 -0.1200 -0.1557
  101loPI   GL1 1605   1.964  15.991  10.081 -0.0566  0.0037  0.4408
  101loPI   GL2 1606   2.019  15.710   9.934 -0.1337 -0.2335  0.0704
  101loPI   C1A 1607   2.057  16.199   9.700  0.0366  0.5988  0.1484
  101loPI   C2A 1608   2.148  16.325   9.208  0.0748 -0.0746  0.3425
  101loPI   C3A 1609   2.365  16.275   8.863  0.0334  0.1795 -0.1315
  101loPI   C4A 1610   2.344  16.272   8.415  0.2047 -0.0522  0.0019
  101loPI   C5A 1611   2.221  16.388   8.005  0.0045  0.2473 -0.3227
  101loPI   C6A 1612   2.491  16.384   7.554  0.1730  0.0227 -0.1134
  101loPI   C1B 1613   1.947  15.717   9.510 -0.1635  0.0559  0.1188
  101loPI   C2B 1614   1.984  15.839   9.076  0.0372 -0.1289  0.2072
  101loPI   C3B 1615   1.990  15.896   8.627  0.1621  0.0392 -0.2643
  101loPI   C4B 1616   1.928  15.970   8.134  0.0050 -0.0875  0.3361
  102loPI    C1 1617   4.531   1.387  10.300 -0.1066 -0.3282 -0.1582
  102loPI    C2 1618   4.360   1.429  10.659  0.0502  0.0586 -0.1234
  102loPI    C3 1619   4.747   1.331  10.632  0.0274 -0.0148 -0.1889
  102loPI   PO4 1620   4.359   1.508  10.075 -0.0932 -0.3251  0.1962
  102loPI   GL1 1621   4.425   1.620   9.628 -0.1204 -0.0417  0.1827
  102loPI   GL2 1622   4.232   1.831   9.683  0.0827 -0.2063 -0.1880
  102loPI   C1A 1623   4.431   1.548   9.201 -0.1977 -0.1570  0.2769
  102loPI   C2A 1624   4.524   1.648   8.796  0.1655 -0.2337  0.2415
  102loPI   C3A 1625   4.661   1.759   8.381  0.0430  0.0770  0.0936
  102loPI   C4A 1626   4.544   2.104   8.045  0.0055  0.0608 -0.3070
  102loPI   C5A 1627   4.833   2.103   7.714  0.1409 -0.2344 -0.1183
  102loPI   C6A 1628   5.040   2.285   7.449 -0.0924  0.0527  0.1406
  102loPI   C1B 1629   4.034   1.775   9.305  0.4019  0.1016 -0.1574
  102loPI   C2B 1630   3.956   1.732   8.897  0.0345  0.0786  0.1333
  102loPI   C3B 1631   3.679   1.764   8.577  0.0720  0.1539  0.0286
  102loPI   C4B 1632   3.718   1.719   8.038  0.1065 -0.0946 -0.1908
  103loPI    C1 1633   9.197  12.965   9.994 -0.0350  0.2935 -0.0929
  103loPI    C2 1634   9.476  13.250   9.952  0.3789 -0.0631  0.1579
  103loPI    C3 1635   9.425  13.069  10.306 -0.1603 -0.0233  0.1091
  103loPI   PO4 1636   9.287  12.801   9.710  0.2035 -0.3129 -0.1382
  103loPI   GL1 1637   9.355  12.975   9.376  0.0916 -0.0934 -0.3341
  103loPI   GL2 1638   9.694  12.931   9.503 -0.0699 -0.0013  0.2104
  103loPI   C1A 1639   9.408  13.022   8.895  0.0538  0.1367 -0.4095
  103loPI   C2A 1640   9.409  13.049   8.414  0.1440  0.1373 -0.1247
  103loPI   C3A 1641   9.508  13.102   8.026 -0.0178 -0.3472 -0.0822
  103loPI   C4A 1642   9.638  13.145   7.487 -0.0240  0.0316  0.4653
  103loPI   C5A 1643   9.644  13.473   7.236  0.1175  0.1802 -0.2083
  103loPI   C6A 1644   9.538  13.706   6.921  0.1146  0.0121 -0.0058
  103loPI   C1B 1645   9.841  12.955   9.153 -0.1910  0.3845  0.2031
  103loPI   C2B 1646   9.871  12.949   8.679  0.3485  0.1433  0.1663
  103loPI   C3B 1647  10.074  12.753   8.348  0.1459 -0.0136 -0.0629
  103loPI   C4B 1648  10.137  12.872   7.931 -0.2189  0.1321  0.0296
  104loPI    C1 1649  13.062  14.597  10.003  0.2100  0.3227  0.0730
  104loPI    C2 1650  12.886  14.326  10.239  0.3425 -0.1471 -0.3490
  104loPI    C3 1651  13.267  14.429  10.303  0.1840  0.2318  0.0400
  104loPI   PO4 1652  12.997  14.418   9.706  0.2839  0.2725  0.2491
  104loPI   GL1 1653  13.021  14.612   9.347 -0.0368  0.2525 -0.0504
  104loPI   GL2 1654  12.640  14.588   9.328  0.1730  0.2448 -0.1235
  104loPI   C1A 1655  13.073  14.784   8.936  0.0923 -0.1958 -0.0741
  104loPI   C2A 1656  13.118  14.886   8.489 -0.0151 -0.0157 -0.6474
  104loPI   C3A 1657  13.187  14.893   8.108  0.1156 -0.0501 -0.0319
  104loPI   C4A 1658  13.344  15.109   7.841  0.2935  0.0268 -0.4417
  104loPI   C5A 1659  13.345  15.350   7.588 -0.0454 -0.1420 -0.0657
  104loPI   C6A 1660  13.641  15.630   7.368 -0.1166  0.0472  0.0716
  104loPI   C1B 1661  12.587  14.625   8.975 -0.1133 -0.3106  0.1317
  104loPI   C2B 1662  12.675  14.652   8.563  0.0339  0.0895 -0.0080
  104loPI   C3B 1663  12.859  14.555   8.186  0.0659  0.2486  0.0210
  104loPI   C4B 1664  13.083  14.498   7.804 -0.0830 -0.3324  0.1303
  105loPI    C1 1665   8.973   3.637  10.574 -0.0123 -0.2380 -0.1144
  105loPI    C2 1666   9.234   3.892  10.737 -0.3088 -0.0175  0.0235
  105loPI    C3 1667   9.304   3.499  10.752 -0.0624  0.0304  0.1959
  105loPI   PO4 1668   8.827   3.848  10.358 -0.0443 -0.1119  0.1694
  105loPI   GL1 1669   8.929   4.010   9.882  0.0214  0.0045 -0.3928
  105loPI   GL2 1670   9.156   4.163   9.791  0.0875  0.2239  0.0483
  105loPI   C1A 1671   8.659   4.148   9.587 -0.0337  0.1597 -0.0101
  105loPI   C2A 1672   8.616   4.127   9.033 -0.4026 -0.2651  0.2115
  105loPI   C3A 1673   8.531   4.078   8.569 -0.0779  0.1768  0.2508
  105loPI   C4A 1674   8.333   3.960   8.213 -0.3328 -0.2095  0.1232
  105loPI   C5A 1675   7.888   3.995   8.038 -0.1039  0.1559 -0.0867
  105loPI   C6A 1676   7.584   4.215   7.910 -0.1580 -0.1572  0.0593
  105loPI   C1B 1677   9.110   4.162   9.295 -0.1694  0.1331  0.0650
  105loPI   C2B 1678   9.052   4.051   8.830  0.1904 -0.3896 -0.0236
  105loPI   C3B 1679   9.020   4.243   8.414  0.0424  0.3393  0.2300
  105loPI   C4B 1680   9.401   4.121   8.117 -0.2812 -0.0575 -0.0155
  106loPI    C1 1681   9.911  10.726  10.191 -0.1371 -0.1330  0.1790
  106loPI    C2 1682   9.708  10.408  10.325 -0.1293 -0.1777  0.0856
  106loPI    C3 1683   9.942  10.616  10.574 -0.1982 -0.1961  0.1661
  106loPI   PO4 1684  10.002  10.619   9.897 -0.1458 -0.3889 -0.1857
  106loPI   GL1 1685  10.307  10.602   9.531  0.0600 -0.0944 -0.1406
  106loPI   GL2 1686  10.058  10.332   9.466 -0.0313 -0.2193 -0.0339
  106loPI   C1A 1687  10.118  10.713   9.126  0.2514  0.0751 -0.1108
  106loPI   C2A 1688  10.017  10.695   8.733  0.0862 -0.2490  0.0739
  106loPI   C3A 1689  10.134  10.661   8.250 -0.0214  0.1916 -0.0452
  106loPI   C4A 1690  10.080  10.825   7.825 -0.3169 -0.0051  0.1801
  106loPI   C5A 1691   9.815  11.065   7.521 -0.0286  0.0704  0.1752
  106loPI   C6A 1692   9.752  11.446   7.327 -0.2529 -0.2619  0.0695
  106loPI   C1B 1693  10.149  10.233   9.012 -0.1769  0.1488  0.0102
  106loPI   C2B 1694  10.093  10.233   8.500 -0.4160 -0.0271  0.0591
  106loPI   C3B 1695  10.035  10.203   8.064 -0.2999 -0.1686  0.0541
  106loPI   C4B 1696  10.019  10.192   7.691 -0.1844 -0.0418 -0.2857
  107loPI    C1 1697   0.861   3.652  10.929 -0.0085 -0.3639  0.0421
  107loPI    C2 1698   1.142   3.929  10.860 -0.2703 -0.1240 -0.0825
  107loPI    C3 1699   1.203   3.646  11.136 -0.0497  0.1337  0.1384
  107loPI   PO4 1700   0.836   3.536  10.661  0.0290  0.0748 -0.0560
  107loPI   GL1 1701   0.979   3.338  10.333  0.0023 -0.0215  0.0220
  107loPI   GL2 1702   0.938   3.177  10.032 -0.1081  0.2083  0.0922
  107loPI   C1A 1703   1.336   3.424  10.009 -0.1176  0.1189 -0.3438
  107loPI   C2A 1704   1.555   3.353   9.824  0.0734  0.0089 -0.0683
  107loPI   C3A 1705   1.563   3.356   9.387  0.0459 -0.2772  0.0951
  107loPI   C4A 1706   1.623   3.313   8.910  0.0736  0.0147  0.1331
  107loPI   C5A 1707   1.876   3.291   8.516 -0.0885 -0.2382  0.0354
  107loPI   C6A 1708   2.140   3.526   8.313  0.3848  0.1185  0.1770
  107loPI   C1B 1709   1.069   3.354   9.525  0.0020 -0.0316  0.2749
  107loPI   C2B 1710   1.125   3.348   9.153 -0.0976  0.1101 -0.1148
  107loPI   C3B 1711   1.186   3.211   8.739  0.2441 -0.0459 -0.2356
  107loPI   C4B 1712   1.391   3.513   8.398 -0.1393  0.0972  0.2202
  108loPI    C1 1713   2.329   8.820  10.359 -0.3877  0.1296  0.1197
  108loPI    C2 1714   2.328   9.216  10.298 -0.2659  0.0906 -0.1468
  108loPI    C3 1715   2.166   9.065  10.631 -0.1474  0.3778  0.0446
  108loPI   PO4 1716   2.233   8.707  10.133 -0.3260  0.2826 -0.2011
  108loPI   GL1 1717   2.077   8.612   9.804 -0.1074  0.1478 -0.1186
  108loPI   GL2 1718   1.869   8.294   9.713 -0.2324  0.0214 -0.0588
  108loPI   C1A 1719   2.293   8.501   9.394  0.0605 -0.1020  0.2584
  108loPI   C2A 1720   2.354   8.301   9.003 -0.1340 -0.1011 -0.1498
  108loPI   C3A 1721   2.354   8.317   8.469 -0.3580  0.0878 -0.0282
  108loPI   C4A 1722   2.504   8.356   8.063 -0.2025 -0.1262  0.2630
  108loPI   C5A 1723   2.615   8.317   7.677  0.1990  0.1485 -0.3380
  108loPI   C6A 1724   2.858   8.412   7.374  0.1605  0.0825 -0.1618
  108loPI   C1B 1725   1.910   8.183   9.307  0.0390 -0.1246  0.0905
  108loPI   C2B 1726   1.604   8.200   9.016 -0.1794  0.2100  0.4048
  108loPI   C3B 1727   1.556   7.873   8.787  0.0315 -0.0553  0.1911
  108loPI   C4B 1728   1.484   8.014   8.324 -0.1928  0.0698 -0.0453
  109loPI    C1 1729  12.571   0.038  10.460  0.0626  0.1671  0.0338
  109loPI    C2 1730  12.224  -0.035  10.275  0.0856 -0.0954  0.0907
  109loPI    C3 1731  12.330  -0.250  10.595  0.1925  0.1435  0.2185
  109loPI   PO4 1732  12.611   0.282  10.297 -0.0101  0.1668  0.2709
  109loPI   GL1 1733  12.575   0.264   9.893 -0.0467  0.0680  0.3780
  109loPI   GL2 1734  12.606   0.045   9.584 -0.0592  0.1181 -0.0175
  109loPI   C1A 1735  12.776   0.462   9.481 -0.1635 -0.4013  0.0007
  109loPI   C2A 1736  12.739   0.577   9.020 -0.3152  0.2946  0.0961
  109loPI   C3A 1737  12.514   0.935   8.855 -0.1249 -0.0666 -0.0401
  109loPI   C4A 1738  12.423   1.347   8.643 -0.0220  0.1465 -0.0475
  109loPI   C5A 1739  12.502   1.776   8.438 -0.4348 -0.1333  0.3700
  109loPI   C6A 1740  12.796   1.898   8.182 -0.0638 -0.0218  0.1883
  109loPI   C1B 1741  12.444   0.179   9.194  0.1542  0.1339 -0.2254
  109loPI   C2B 1742  12.525   0.243   8.685 -0.0859 -0.2136 -0.0294
  109loPI   C3B 1743  12.764   0.427   8.364  0.2428 -0.3457 -0.0939
  109loPI   C4B 1744  12.641   0.518   8.020  0.1052 -0.3438 -0.0509
  110loPI    C1 1745   0.040  16.159  10.133 -0.0455  0.1651  0.2946
  110loPI    C2 1746  -0.219  15.905   9.964  0.1543  0.0897  0.0970
  110loPI    C3 1747  -0.010  15.792  10.285  0.0801  0.0840  0.1435
  110loPI   PO4 1748   0.198  16.351   9.892 -0.1071 -0.0717  0.2867
  110loPI   GL1 1749   0.066  16.525   9.600 -0.2918 -0.0245 -0.3399
  110loPI   GL2 1750  -0.234  16.321   9.630 -0.0678  0.4114  0.0692
  110loPI   C1A 1751   0.060  16.545   9.114  0.3484  0.0140 -0.1346
  110loPI   C2A 1752  -0.031  16.660   8.593  0.2042 -0.2437 -0.3549
  110loPI   C3A 1753  -0.116  16.711   8.179 -0.2185 -0.0336  0.0589
  110loPI   C4A 1754  -0.104  16.475   7.835 -0.2079  0.0591 -0.2637
  110loPI   C5A 1755   0.139  16.329   7.480  0.0097 -0.1350  0.0290
  110loPI   C6A 1756   0.555  16.120   7.516  0.0176 -0.3906 -0.1383
  110loPI   C1B 1757  -0.372  16.317   9.177 -0.1772  0.0539 -0.3126
  110loPI   C2B 1758  -0.379  16.394   8.765  0.2366  0.1180 -0.0784
  110loPI   C3B 1759  -0.450  16.365   8.313 -0.0818 -0.2409  0.0490
  110loPI   C4B 1760  -0.515  16.224   7.957 -0.0256  0.0139 -0.1211
  111loPI    C1 1761   5.419   2.850  10.270 -0.1643  0.0634  0.1133
  111loPI    C2 1762   5.675   3.137  10.379 -0.0130 -0.0281  0.0043
  111loPI    C3 1763   5.380   3.027  10.627  0.0450  0.0867  0.1258
  111loPI   PO4 1764   5.384   2.854  10.068 -0.0539 -0.0651 -0.0237
  111loPI   GL1 1765   5.530   3.185   9.811 -0.2453 -0.2529 -0.4537
  111loPI   GL2 1766   5.705   3.368   9.931  0.0186  0.1490  0.2379
  111loPI   C1A 1767   5.419   3.473   9.449  0.0942  0.1835  0.3409
  111loPI   C2A 1768   5.361   3.623   9.086 -0.1206 -0.0677  0.3774
  111loPI   C3A 1769   5.429   3.457   8.678  0.1239  0.1304  0.0333
  111loPI   C4A 1770   5.223   3.323   8.260  0.0413  0.1014  0.2452
  111loPI   C5A 1771   4.954   3.257   7.900  0.1774  0.0061  0.0679
  111loPI   C6A 1772   4.621   3.362   7.760 -0.2500  0.2059  0.0907
  111loPI   C1B 1773   5.877   3.527   9.526  0.1761  0.0495 -0.1331
  111loPI   C2B 1774   5.879   3.493   9.148  0.0580  0.3347 -0.0427
  111loPI   C3B 1775   5.934   3.408   8.662 -0.2681 -0.1912 -0.0463
  111loPI   C4B 1776   5.857   3.538   8.258 -0.0872 -0.2518 -0.1235
  112loPI    C1 1777   2.393  14.701  10.279  0.1981 -0.1615 -0.0437
  112loPI    C2 1778   2.070  14.886  10.426  0.2440  0.1116 -0.2770
  112loPI    C3 1779   2.027  14.559  10.200  0.1459  0.0060 -0.1081
  112loPI   PO4 1780   2.556  15.044  10.431 -0.0016 -0.0989  0.1316
  112loPI   GL1 1781   2.882  15.193  10.172  0.0187  0.0115  0.0522
  112loPI   GL2 1782   2.731  14.939   9.956 -0.1268  0.1439  0.1501
  112loPI   C1A 1783   2.924  15.347   9.718  0.0747 -0.2421  0.0852
  112loPI   C2A 1784   2.790  15.448   9.273 -0.2037  0.1503 -0.1719
  112loPI   C3A 1785   2.810  15.438   8.899 -0.1279 -0.2072  0.2535
  112loPI   C4A 1786   2.797  15.533   8.429  0.0216  0.2804  0.1351
  112loPI   C5A 1787   2.830  15.661   7.984  0.3721  0.2150 -0.3035
  112loPI   C6A 1788   2.659  15.507   7.636  0.1444  0.2549  0.2326
  112loPI   C1B 1789   2.726  14.949   9.511 -0.0331 -0.2509 -0.1224
  112loPI   C2B 1790   2.739  14.917   9.089  0.1675 -0.0734 -0.0698
  112loPI   C3B 1791   2.752  14.935   8.686 -0.0737  0.1960 -0.1019
  112loPI   C4B 1792   2.733  14.977   8.266 -0.3408 -0.0187 -0.1412
  113loPI    C1 1793   9.510  11.067  10.073  0.2335 -0.2192  0.1549
  113loPI    C2 1794   9.394  10.736   9.881 -0.3366  0.0160  0.0744
  113loPI    C3 1795   9.306  10.784  10.268 -0.2823  0.0860  0.0784
  113loPI   PO4 1796   9.488  11.256   9.900  0.0602  0.0926 -0.1524
  113loPI   GL1 1797   9.262  11.115   9.481 -0.1640 -0.1385 -0.0058
  113loPI   GL2 1798   8.970  10.829   9.455  0.3759  0.2411  0.0791
  113loPI   C1A 1799   8.989  11.289   9.061  0.2619 -0.4807  0.3151
  113loPI   C2A 1800   9.015  11.303   8.552 -0.1431 -0.0865  0.0283
  113loPI   C3A 1801   9.250  11.226   8.228 -0.1846  0.0587 -0.2842
  113loPI   C4A 1802   9.283  11.532   7.913  0.1912 -0.1109  0.2155
  113loPI   C5A 1803   9.377  11.673   7.492 -0.4303  0.0279 -0.2462
  113loPI   C6A 1804   9.151  11.683   7.042 -0.1688 -0.0209 -0.1486
  113loPI   C1B 1805   9.107  10.635   9.106  0.1325  0.0896 -0.2370
  113loPI   C2B 1806   9.226  10.522   8.737 -0.0298  0.0322  0.1073
  113loPI   C3B 1807   9.217  10.776   8.372  0.3967  0.1372 -0.2584
  113loPI   C4B 1808   9.042  10.853   7.971  0.1599  0.0693  0.0403
  114loPI    C1 1809  18.068  15.422  10.317  0.1319 -0.2190 -0.2552
  114loPI    C2 1810  17.831  15.101  10.338  0.0238 -0.1257 -0.0181
  114loPI    C3 1811  17.740  15.432  10.544  0.1709  0.0348 -0.2063
  114loPI   PO4 1812  18.194  15.375  10.061 -0.3945  0.5157  0.2917
  114loPI   GL1 1813  18.524  15.104   9.710 -0.1666  0.0964  0.2158
  114loPI   GL2 1814  18.797  15.180   9.523 -0.2245 -0.2065 -0.0140
  114loPI   C1A 1815  18.431  15.061   9.265 -0.0616 -0.4020 -0.0677
  114loPI   C2A 1816  18.528  15.081   8.862 -0.0471  0.1261 -0.0231
  114loPI   C3A 1817  18.606  14.950   8.467 -0.3608  0.2096  0.3490
  114loPI   C4A 1818  18.769  15.033   7.966 -0.2128 -0.0702 -0.1246
  114loPI   C5A 1819  19.046  14.843   7.566 -0.0124  0.1884  0.0457
  114loPI   C6A 1820  19.026  14.809   7.142 -0.2731 -0.0129 -0.1923
  114loPI   C1B 1821  18.888  15.366   9.026 -0.1421 -0.2879 -0.2231
  114loPI   C2B 1822  18.961  15.338   8.616  0.0305  0.0944 -0.1141
  114loPI   C3B 1823  19.097  15.156   8.290 -0.0349  0.0033  0.2607
  114loPI   C4B 1824  19.279  15.231   7.849  0.2877 -0.0146  0.0035
  115loPI    C1 1825   4.038   7.502  10.742  0.2523  0.2938  0.0191
  115loPI    C2 1826   3.699   7.578  10.939  0.1437 -0.0005 -0.0490
  115loPI    C3 1827   4.045   7.558  11.138  0.0790  0.0085  0.0652
  115loPI   PO4 1828   4.029   7.569  10.540  0.0280 -0.2178  0.1874
  115loPI   GL1 1829   3.966   7.850  10.078 -0.1064  0.2409  0.0284
  115loPI   GL2 1830   4.251   7.868  10.152  0.1108  0.1920  0.0225
  115loPI   C1A 1831   3.861   7.675   9.724 -0.1186 -0.0800  0.3272
  115loPI   C2A 1832   3.754   7.552   9.379  0.2040  0.0834  0.3779
  115loPI   C3A 1833   3.782   7.699   8.961 -0.2637 -0.4303  0.1687
  115loPI   C4A 1834   3.671   7.509   8.669  0.2211 -0.2240  0.0627
  115loPI   C5A 1835   3.595   7.136   8.442 -0.0475 -0.0146  0.1880
  115loPI   C6A 1836   3.661   6.699   8.535 -0.0433  0.2260 -0.3592
  115loPI   C1B 1837   4.390   7.612   9.777 -0.0221 -0.2340  0.2394
  115loPI   C2B 1838   4.219   7.384   9.409 -0.1744  0.1145 -0.1401
  115loPI   C3B 1839   3.982   7.248   9.065  0.0455 -0.0173 -0.1743
  115loPI   C4B 1840   4.029   6.977   8.750 -0.1129 -0.3769 -0.2392
  116loPI    C1 1841  10.745   8.844  10.265 -0.0055 -0.0657  0.0622
  116loPI    C2 1842  10.396   9.006  10.376 -0.0165 -0.1322  0.1264
  116loPI    C3 1843  10.720   9.053  10.606  0.0242 -0.0458  0.0522
  116loPI   PO4 1844  10.753   8.882   9.996 -0.1622 -0.0748  0.0560
  116loPI   GL1 1845  10.852   8.624   9.610 -0.1528 -0.2358  0.1498
  116loPI   GL2 1846  11.115   8.545   9.544 -0.0215 -0.1222  0.2693
  116loPI   C1A 1847  10.600   8.400   9.282  0.1259  0.2157 -0.4905
  116loPI   C2A 1848  10.396   8.248   9.043 -0.0452 -0.2491  0.1164
  116loPI   C3A 1849  10.389   8.203   8.613  0.4441  0.2323  0.2716
  116loPI   C4A 1850  10.460   8.133   8.147 -0.0285  0.3574  0.2134
  116loPI   C5A 1851  10.245   7.957   7.804  0.0147  0.2087 -0.1624
  116loPI   C6A 1852   9.877   8.149   7.594  0.4286 -0.2721  0.1321
  116loPI   C1B 1853  11.066   8.637   9.154 -0.0712  0.0707 -0.1667
  116loPI   C2B 1854  10.757   8.562   8.830  0.0953 -0.1153 -0.0711
  116loPI   C3B 1855  10.771   8.404   8.443  0.1624 -0.0711  0.2024
  116loPI   C4B 1856  10.761   8.541   7.991 -0.0018 -0.1471 -0.4599
  117loPI    C1 1857   8.725  14.750   9.740 -0.0877 -0.2831 -0.1716
  117loPI    C2 1858   8.958  14.530   9.979 -0.0142 -0.0657 -0.0408
  117loPI    C3 1859   8.573  14.589  10.073  0.0068 -0.0063  0.0086
  117loPI   PO4 1860   8.762  14.735   9.505  0.0645 -0.1907  0.3211
  117loPI   GL1 1861   8.780  14.545   9.215 -0.0377 -0.2075 -0.0937
  117loPI   GL2 1862   8.466  14.411   9.230  0.1096  0.3394  0.0842
  117loPI   C1A 1863   8.963  14.409   8.816 -0.0544 -0.1543  0.0855
  117loPI   C2A 1864   9.051  14.437   8.371 -0.0976  0.0392 -0.0487
  117loPI   C3A 1865   9.189  14.629   8.035  0.5987  0.1026 -0.1262
  117loPI   C4A 1866   9.435  14.754   7.600 -0.3671 -0.2997  0.3731
  117loPI   C5A 1867   9.513  14.896   7.222 -0.0170  0.4819  0.3157
  117loPI   C6A 1868   9.359  14.735   6.851  0.0694 -0.1704  0.0471
  117loPI   C1B 1869   8.476  14.263   8.807 -0.0367 -0.0755  0.2328
  117loPI   C2B 1870   8.529  14.213   8.411 -0.0422 -0.0685  0.1488
  117loPI   C3B 1871   8.722  14.405   8.030 -0.1085  0.0282  0.0613
  117loPI   C4B 1872   8.898  14.390   7.615 -0.0977  0.0441 -0.0478
  118loPI    C1 1873   5.985  11.068  10.926  0.0283  0.0335  0.2053
  118loPI    C2 1874   5.614  10.921  10.955 -0.0317  0.1911  0.2455
  118loPI    C3 1875   5.898  10.797  11.207  0.0089 -0.1235  0.0499
  118loPI   PO4 1876   5.999  11.153  10.633  0.1071  0.2617 -0.0964
  118loPI   GL1 1877   5.855  11.305  10.171 -0.0695  0.0749 -0.0588
  118loPI   GL2 1878   5.541  11.449  10.041 -0.1022  0.1299  0.1972
  118loPI   C1A 1879   5.860  11.253   9.706  0.0781 -0.2185  0.0384
  118loPI   C2A 1880   5.693  11.247   9.230 -0.1331 -0.0594  0.0436
  118loPI   C3A 1881   5.709  11.267   8.735  0.1408 -0.0699 -0.0574
  118loPI   C4A 1882   5.635  11.181   8.358  0.0482 -0.0253  0.3671
  118loPI   C5A 1883   5.594  10.845   8.023 -0.0636 -0.1029 -0.1568
  118loPI   C6A 1884   5.573  11.035   7.685 -0.0725 -0.1836  0.0678
  118loPI   C1B 1885   5.490  11.632   9.645  0.1951 -0.0657  0.1103
  118loPI   C2B 1886   5.506  11.787   9.304 -0.1066 -0.0857 -0.2337
  118loPI   C3B 1887   5.466  11.705   8.827 -0.0735 -0.1196 -0.1247
  118loPI   C4B 1888   5.534  11.691   8.370  0.1694 -0.1742  0.2416
  119loPI    C1 1889   6.028   2.650  10.287  0.1921 -0.1065  0.0453
  119loPI    C2 1890   5.754   2.627  10.578  0.0417  0.0289 -0.0837
  119loPI    C3 1891   5.963   2.302  10.474 -0.0700 -0.0758  0.0154
  119loPI   PO4 1892   5.914   2.855  10.041 -0.1695 -0.1564 -0.2634
  119loPI   GL1 1893   5.960   2.874   9.710  0.2974  0.1399 -0.0452
  119loPI   GL2 1894   5.724   2.704   9.605  0.0325  0.2160 -0.2012
  119loPI   C1A 1895   6.193   2.774   9.414 -0.0948 -0.1284 -0.3407
  119loPI   C2A 1896   6.059   2.803   9.109  0.3711 -0.0005 -0.0325
  119loPI   C3A 1897   6.078   2.848   8.703  0.0362  0.3843 -0.0803
  119loPI   C4A 1898   6.246   2.715   8.264 -0.0027 -0.0082 -0.1248
  119loPI   C5A 1899   6.553   2.969   7.970 -0.3306 -0.0627 -0.1512
  119loPI   C6A 1900   6.627   3.318   7.582  0.1782  0.1997  0.1378
  119loPI   C1B 1901   5.646   3.035   9.364  0.0274  0.0244 -0.0974
  119loPI   C2B 1902   5.654   3.117   8.923  0.0916 -0.0478 -0.2020
  119loPI   C3B 1903   5.507   3.024   8.499  0.2198 -0.0527  0.3321
  119loPI   C4B 1904   5.840   3.024   8.147  0.2942 -0.0517 -0.4212
  120loPI    C1 1905   6.469   6.335  10.532 -0.1467 -0.0709  0.1149
  120loPI    C2 1906   6.655   6.626  10.734 -0.0231 -0.1166  0.0678
  120loPI    C3 1907   6.389   6.392  10.920  0.1748 -0.2328  0.2088
  120loPI   PO4 1908   6.518   6.352  10.338  0.2219 -0.1787  0.2970
  120loPI   GL1 1909   6.181   6.497  10.018  0.0458  0.0493 -0.1175
  120loPI   GL2 1910   5.935   6.485   9.976  0.0094 -0.0277 -0.1265
  120loPI   C1A 1911   6.525   6.533   9.665  0.0438  0.1440 -0.0594
  120loPI   C2A 1912   6.773   6.469   9.321  0.0264 -0.0615 -0.1032
  120loPI   C3A 1913   6.898   6.503   8.882 -0.2945 -0.2524 -0.1011
  120loPI   C4A 1914   6.876   6.673   8.511 -0.0627  0.0513  0.0353
  120loPI   C5A 1915   6.712   6.832   8.104 -0.2873 -0.2791  0.1809
  120loPI   C6A 1916   6.553   7.023   7.694 -0.2925  0.0169  0.0713
  120loPI   C1B 1917   6.047   6.406   9.541 -0.1531  0.1567  0.1553
  120loPI   C2B 1918   6.258   6.578   9.201 -0.0068  0.2079  0.2432
  120loPI   C3B 1919   6.355   6.652   8.788 -0.1530 -0.0276  0.0306
  120loPI   C4B 1920   6.317   6.494   8.367  0.1762  0.3112 -0.2914
  121loPI    C1 1921  11.020  17.134  10.323  0.1346 -0.2569 -0.0040
  121loPI    C2 1922  11.313  17.404  10.358 -0.1114  0.0349 -0.1511
  121loPI    C3 1923  10.982  17.437  10.580 -0.1131 -0.1890 -0.1177
  121loPI   PO4 1924  10.903  17.095  10.132  0.0585 -0.0090  0.0706
  121loPI   GL1 1925  10.930  16.892   9.732  0.1636  0.2603 -0.2896
  121loPI   GL2 1926  10.807  17.226   9.642 -0.2926  0.1672  0.0726
  121loPI   C1A 1927  11.231  16.959   9.423  0.0703 -0.0335 -0.1895
  121loPI   C2A 1928  11.383  17.202   9.079 -0.0402  0.0281 -0.1113
  121loPI   C3A 1929  11.469  17.159   8.682  0.1896 -0.1654  0.1148
  121loPI   C4A 1930  11.489  17.312   8.304  0.2119 -0.2203 -0.0255
  121loPI   C5A 1931  11.710  17.507   7.897  0.0154 -0.0641 -0.1731
  121loPI   C6A 1932  12.069  17.852   7.881  0.0563  0.1793 -0.1203
  121loPI   C1B 1933  10.813  17.061   9.257  0.2035 -0.0603 -0.0893
  121loPI   C2B 1934  10.941  17.077   8.786  0.3264  0.0632 -0.1327
  121loPI   C3B 1935  10.864  17.194   8.346 -0.2579  0.2070 -0.0435
  121loPI   C4B 1936  11.067  17.372   7.969  0.1039  0.0219 -0.1613
  122loPI    C1 1937   8.336  16.696   9.777  0.0426  0.0495 -0.3543
  122loPI    C2 1938   8.692  16.601   9.621  0.1638  0.0147 -0.0624
  122loPI    C3 1939   8.671  16.848   9.935 -0.0732  0.0484 -0.1034
  122loPI   PO4 1940   8.232  16.795   9.603 -0.1585  0.0310  0.1509
  122loPI   GL1 1941   8.192  16.667   9.215 -0.0500  0.2402 -0.1340
  122loPI   GL2 1942   8.005  16.428   9.358 -0.2594 -0.0705 -0.2925
  122loPI   C1A 1943   8.116  16.799   8.841 -0.0846  0.0413 -0.0013
  122loPI   C2A 1944   8.103  16.830   8.407  0.2314  0.2601 -0.1792
  122loPI   C3A 1945   8.166  17.096   7.945 -0.0294  0.1961  0.0495
  122loPI   C4A 1946   7.981  17.308   7.621 -0.0490  0.1078  0.1700
  122loPI   C5A 1947   7.771  17.230   7.261 -0.0386 -0.3431 -0.0533
  122loPI   C6A 1948   7.521  17.587   6.986  0.3004 -0.1551  0.3556
  122loPI   C1B 1949   7.741  16.520   9.028 -0.0355 -0.0023 -0.1210
  122loPI   C2B 1950   7.632  16.562   8.581  0.1521  0.2822 -0.3391
  122loPI   C3B 1951   7.805  16.514   8.167 -0.0815  0.0952 -0.3893
  122loPI   C4B 1952   7.726  16.422   7.751  0.2048 -0.1427  0.0576
  123loPI    C1 1953   4.590  10.685  10.789 -0.3400 -0.0484  0.0584
  123loPI    C2 1954   4.449  11.039  10.909 -0.1099  0.0982 -0.0961
  123loPI    C3 1955   4.729  10.852  11.125 -0.1301  0.0764 -0.0889
  123loPI   PO4 1956   4.635  10.709  10.492 -0.1003  0.2089 -0.0947
  123loPI   GL1 1957   4.735  10.865  10.065 -0.0238 -0.2819  0.2701
  123loPI   GL2 1958   4.663  10.438  10.071  0.1552 -0.0049 -0.1341
  123loPI   C1A 1959   4.869  10.906   9.499 -0.2675 -0.0759 -0.1283
  123loPI   C2A 1960   4.995  10.721   9.140 -0.0498  0.0969  0.0555
  123loPI   C3A 1961   4.923  10.852   8.729 -0.2877 -0.3521  0.0016
  123loPI   C4A 1962   4.974  10.620   8.360  0.0120  0.1470  0.0810
  123loPI   C5A 1963   5.358  10.457   8.225 -0.3401 -0.0605  0.2449
  123loPI   C6A 1964   5.715  10.314   8.028 -0.3662  0.1833  0.0408
  123loPI   C1B 1965   4.611  10.552   9.650 -0.1420  0.0324  0.1166
  123loPI   C2B 1966   4.612  10.364   9.181 -0.0295  0.0632 -0.3761
  123loPI   C3B 1967   4.457  10.093   8.933  0.1507  0.0378  0.0519
  123loPI   C4B 1968   4.350  10.045   8.569  0.2329  0.0990 -0.0126
  124loPI    C1 1969  10.915  14.785  10.018  0.1087 -0.1107  0.0923
  124loPI    C2 1970  11.086  14.548  10.291  0.1508 -0.0206  0.1449
  124loPI    C3 1971  10.986  14.923  10.387  0.0523 -0.0278  0.0725
  124loPI   PO4 1972  11.018  14.683   9.784  0.0905 -0.1446  0.2365
  124loPI   GL1 1973  11.206  14.913   9.467  0.2558 -0.3112  0.0954
  124loPI   GL2 1974  11.148  14.639   9.260  0.1905 -0.0204 -0.1185
  124loPI   C1A 1975  11.236  15.248   9.202 -0.4064 -0.3839  0.0259
  124loPI   C2A 1976  11.302  15.650   9.172 -0.2789 -0.2212 -0.2110
  124loPI   C3A 1977  11.208  15.728   8.713 -0.1235 -0.0233  0.0319
  124loPI   C4A 1978  11.103  15.923   8.229  0.0925  0.2649  0.0662
  124loPI   C5A 1979  10.962  16.113   7.784  0.0384 -0.1093 -0.0086
  124loPI   C6A 1980  11.088  15.970   7.296 -0.0761  0.1995 -0.0746
  124loPI   C1B 1981  11.173  14.606   8.815 -0.0299  0.1705 -0.0090
  124loPI   C2B 1982  11.089  14.529   8.359 -0.1267  0.2114 -0.0390
  124loPI   C3B 1983  10.988  14.375   7.973  0.3730 -0.3595 -0.1304
  124loPI   C4B 1984  11.071  14.031   7.830  0.0438 -0.1995 -0.1337
  125loPI    C1 1985   1.922  10.842  10.256  0.0370 -0.3793 -0.2635
  125loPI    C2 1986   1.982  10.737  10.638  0.0502  0.0206 -0.1515
  125loPI    C3 1987   1.637  10.647  10.457  0.0763 -0.2435 -0.0729
  125loPI   PO4 1988   2.099  10.744  10.078 -0.2780  0.0405 -0.1897
  125loPI   GL1 1989   2.153  10.510   9.840 -0.1717  0.0065  0.1567
  125loPI   GL2 1990   1.883  10.451   9.713 -0.3113 -0.0561  0.1052
  125loPI   C1A 1991   2.271  10.597   9.425  0.2573  0.4032  0.0996
  125loPI   C2A 1992   2.542  10.590   9.069  0.0351 -0.0374  0.0963
  125loPI   C3A 1993   2.624  10.380   8.678  0.2187 -0.1575 -0.0436
  125loPI   C4A 1994   2.882  10.308   8.375  0.1279  0.1942  0.1573
  125loPI   C5A 1995   3.117  10.100   8.080 -0.1031 -0.0124  0.2691
  125loPI   C6A 1996   3.249  10.130   7.625  0.1144  0.1105 -0.0723
  125loPI   C1B 1997   1.675  10.291   9.335  0.1090  0.7335  0.0085
  125loPI   C2B 1998   1.662  10.268   8.844  0.3479  0.0929 -0.1355
  125loPI   C3B 1999   1.644  10.276   8.267  0.0394 -0.0170  0.1952
  125loPI   C4B 2000   1.606  10.252   7.843 -0.0913 -0.3350 -0.2027
  126loPI    C1 2001   0.920  15.861  10.424 -0.0785  0.1244  0.0206
  126loPI    C2 2002   1.242  15.683  10.581 -0.2537 -0.0604  0.1758
  126loPI    C3 2003   1.209  16.081  10.591 -0.1177 -0.0520  0.3280
  126loPI   PO4 2004   0.941  15.772  10.141  0.1147  0.2007  0.0551
  126loPI   GL1 2005   1.212  15.923   9.710 -0.1098 -0.5441 -0.1158
  126loPI   GL2 2006   1.544  15.894   9.608 -0.0721 -0.0085 -0.0413
  126loPI   C1A 2007   1.088  16.086   9.299 -0.1064 -0.0910  0.3076
  126loPI   C2A 2008   1.088  16.185   8.878 -0.0884  0.1004 -0.0875
  126loPI   C3A 2009   1.136  16.343   8.410 -0.2140  0.1087 -0.0028
  126loPI   C4A 2010   1.062  16.333   7.894  0.0189 -0.1282  0.3517
  126loPI   C5A 2011   0.681  16.566   7.662 -0.1885 -0.0440 -0.0708
  126loPI   C6A 2012   0.272  16.811   7.519  0.0958  0.4013  0.0415
  126loPI   C1B 2013   1.628  16.132   9.196 -0.1827 -0.0716  0.1496
  126loPI   C2B 2014   1.733  16.288   8.824  0.2299 -0.0251 -0.0531
  126loPI   C3B 2015   1.784  16.386   8.372  0.0272 -0.2043  0.1212
  126loPI   C4B 2016   1.534  16.272   7.974  0.0535 -0.1145  0.1915
  127loPI    C1 2017   8.199   2.515  10.498  0.1804 -0.1204  0.1209
  127loPI    C2 2018   7.893   2.423  10.738 -0.1873 -0.1267 -0.3352
  127loPI    C3 2019   8.131   2.732  10.826 -0.3539 -0.0894 -0.0011
  127loPI   PO4 2020   8.368   2.366  10.321  0.3361  0.0741  0.0004
  127loPI   GL1 2021   8.330   2.215  10.029 -0.1055  0.1137  0.1278
  127loPI   GL2 2022   8.145   2.426   9.755  0.0648  0.3312 -0.0995
  127loPI   C1A 2023   8.445   2.099   9.575 -0.0197  0.2959  0.2964
  127loPI   C2A 2024   8.522   1.920   9.230 -0.0043 -0.1435  0.1378
  127loPI   C3A 2025   8.265   2.106   8.885 -0.0485 -0.0396 -0.2585
  127loPI   C4A 2026   8.231   2.069   8.513 -0.1559  0.0017  0.1152
  127loPI   C5A 2027   8.225   2.034   8.117 -0.3099  0.0695 -0.1727
  127loPI   C6A 2028   8.466   2.351   7.993  0.2338 -0.1581  0.0092
  127loPI   C1B 2029   8.253   2.679   9.369 -0.0070 -0.4358  0.4959
  127loPI   C2B 2030   8.214   2.619   9.072  0.2759 -0.0625 -0.1391
  127loPI   C3B 2031   8.070   2.541   8.688  0.1787 -0.1234 -0.2355
  127loPI   C4B 2032   8.061   2.547   8.184  0.0130  0.0390  0.2537
  128loPI    C1 2033  14.833   5.592  10.596  0.0327 -0.0316  0.2366
  128loPI    C2 2034  15.002   5.377  10.888  0.1182 -0.1443  0.1058
  128loPI    C3 2035  14.841   5.735  10.969  0.1775 -0.1568  0.2823
  128loPI   PO4 2036  15.050   5.632  10.351  0.0783 -0.0972 -0.0226
  128loPI   GL1 2037  14.910   5.995  10.137 -0.0914 -0.0144  0.1901
  128loPI   GL2 2038  14.617   6.195  10.034  0.2026  0.1419 -0.0808
  128loPI   C1A 2039  14.879   5.767   9.686  0.0751  0.0521  0.0584
  128loPI   C2A 2040  15.012   5.820   9.262  0.1115 -0.0596 -0.3446
  128loPI   C3A 2041  14.792   5.826   8.889  0.0419 -0.0913 -0.1013
  128loPI   C4A 2042  14.808   5.771   8.398 -0.1574  0.0911  0.0128
  128loPI   C5A 2043  14.841   5.732   7.848  0.0704  0.0311  0.0016
  128loPI   C6A 2044  14.689   5.834   7.593  0.2420 -0.0697 -0.1857
  128loPI   C1B 2045  14.456   6.389   9.718 -0.2276 -0.2329 -0.0637
  128loPI   C2B 2046  14.390   6.315   9.350 -0.1753  0.0090 -0.2046
  128loPI   C3B 2047  14.501   6.511   9.039 -0.0919  0.1520  0.0763
  128loPI   C4B 2048  14.636   6.416   8.584 -0.3475 -0.0488 -0.1780
  129loPI    C1 2049  13.563  14.847  10.166 -0.0660 -0.3554  0.2333
  129loPI    C2 2050  13.892  15.034  10.297  0.0283 -0.3172 -0.0510
  129loPI    C3 2051  13.697  14.780  10.537  0.1021 -0.1258  0.2166
  129loPI   PO4 2052  13.648  14.871   9.893 -0.2769 -0.3477 -0.0014
  129loPI   GL1 2053  13.366  14.869   9.610 -0.0482 -0.0623 -0.0694
  129loPI   GL2 2054  13.479  14.537   9.547  0.0366  0.0374 -0.0897
  129loPI   C1A 2055  13.497  14.900   9.168 -0.1257  0.1011  0.0996
  129loPI   C2A 2056  13.555  14.926   8.750 -0.1002  0.0665 -0.3299
  129loPI   C3A 2057  13.667  14.991   8.292  0.3260  0.1205 -0.1288
  129loPI   C4A 2058  13.760  14.761   7.900 -0.0735  0.0113 -0.0601
  129loPI   C5A 2059  13.580  14.729   7.470  0.1352 -0.1149  0.0725
  129loPI   C6A 2060  13.371  14.422   7.333 -0.2388  0.1358 -0.0204
  129loPI   C1B 2061  13.401  14.409   9.050 -0.0380  0.0568  0.1244
  129loPI   C2B 2062  13.409  14.518   8.567 -0.2242  0.3188  0.1704
  129loPI   C3B 2063  13.498  14.454   8.198 -0.1663 -0.0741  0.1727
  129loPI   C4B 2064  13.669  14.262   7.893 -0.0112 -0.4584 -0.0068
  130loPI    C1 2065   8.596   9.267  10.760 -0.1530 -0.0008  0.0278
  130loPI    C2 2066   8.819   9.597  10.722  0.0137 -0.1169 -0.0181
  130loPI    C3 2067   8.824   9.390  11.064  0.0302 -0.1584 -0.0432
  130loPI   PO4 2068   8.486   9.331  10.472 -0.0224  0.1185 -0.1554
  130loPI   GL1 2069   8.429   9.117  10.070 -0.0218 -0.0530  0.0013
  130loPI   GL2 2070   8.091   8.929  10.093  0.2027 -0.2423 -0.0338
  130loPI   C1A 2071   8.229   9.123   9.635 -0.1026  0.0182 -0.1676
  130loPI   C2A 2072   8.238   9.152   9.150 -0.0995  0.0415 -0.1815
  130loPI   C3A 2073   8.171   9.059   8.799 -0.0586 -0.0270  0.1480
  130loPI   C4A 2074   8.374   9.187   8.436  0.2347  0.0419  0.1488
  130loPI   C5A 2075   8.216   9.074   8.085  0.0298 -0.2073 -0.4106
  130loPI   C6A 2076   8.146   9.259   7.660 -0.1497  0.0849  0.1494
  130loPI   C1B 2077   8.226   8.630   9.807  0.1060 -0.1800  0.2194
  130loPI   C2B 2078   8.115   8.578   9.313  0.2047 -0.0580  0.3840
  130loPI   C3B 2079   8.030   8.531   8.982  0.0311 -0.0098  0.2969
  130loPI   C4B 2080   8.058   8.221   8.623  0.1848  0.2683 -0.1515
  131loPI    C1 2081   7.055  10.538  10.493 -0.1015 -0.1840  0.1266
  131loPI    C2 2082   7.417  10.709  10.493 -0.0905 -0.2071  0.0680
  131loPI    C3 2083   7.296  10.496  10.809 -0.1489  0.0024  0.1887
  131loPI   PO4 2084   7.054  10.414  10.303 -0.3424 -0.0756  0.1594
  131loPI   GL1 2085   6.806  10.252  10.012  0.5394  0.3167  0.2800
  131loPI   GL2 2086   6.608  10.477   9.825  0.1184  0.1301 -0.0335
  131loPI   C1A 2087   6.671  10.125   9.502  0.1931  0.0119  0.0164
  131loPI   C2A 2088   6.680  10.248   9.124  0.1022 -0.0187 -0.3197
  131loPI   C3A 2089   6.757  10.226   8.686 -0.3414  0.2358  0.0610
  131loPI   C4A 2090   7.070  10.118   8.287  0.1288  0.3229  0.1932
  131loPI   C5A 2091   7.486  10.123   8.194 -0.0233  0.2209  0.0352
  131loPI   C6A 2092   7.809  10.368   8.018  0.0499  0.0494 -0.1785
  131loPI   C1B 2093   6.532  10.605   9.459  0.2935 -0.1831 -0.1487
  131loPI   C2B 2094   6.492  10.806   9.059 -0.2041 -0.0629  0.0575
  131loPI   C3B 2095   6.411  10.662   8.817  0.1429  0.0697  0.0308
  131loPI   C4B 2096   6.603  10.921   8.448  0.1129 -0.1501  0.2429
  132loPI    C1 2097   3.233  14.850  10.511 -0.0673  0.2682 -0.0459
  132loPI    C2 2098   3.219  14.479  10.660  0.3083  0.1357 -0.3254
  132loPI    C3 2099   2.908  14.726  10.708  0.1049 -0.1702 -0.0270
  132loPI   PO4 2100   3.181  14.837  10.231  0.0005 -0.0486 -0.0197
  132loPI   GL1 2101   3.351  14.718   9.813  0.2688 -0.1500 -0.2086
  132loPI   GL2 2102   3.214  14.668   9.765  0.0576  0.1396  0.0532
  132loPI   C1A 2103   3.671  14.783   9.496 -0.0623 -0.1624  0.0864
  132loPI   C2A 2104   3.804  14.700   9.117  0.3278 -0.2476 -0.0248
  132loPI   C3A 2105   3.779  14.699   8.707 -0.0818 -0.2260 -0.0426
  132loPI   C4A 2106   3.543  14.846   8.299  0.2352  0.0683 -0.3697
  132loPI   C5A 2107   3.585  15.085   7.901  0.2158  0.1789  0.0105
  132loPI   C6A 2108   3.409  14.987   7.544  0.0790 -0.2531 -0.1527
  132loPI   C1B 2109   3.168  14.597   9.305 -0.1802 -0.1917  0.0465
  132loPI   C2B 2110   3.108  14.632   8.860  0.2087 -0.0401  0.3909
  132loPI   C3B 2111   3.099  14.640   8.376  0.2168  0.0949 -0.1793
  132loPI   C4B 2112   3.227  14.639   7.968  0.1921 -0.0272 -0.2465
  133loPI    C1 2113  13.797   4.490  10.844 -0.1144 -0.1292  0.2311
  133loPI    C2 2114  13.609   4.435  11.192 -0.2864 -0.0127  0.1579
  133loPI    C3 2115  13.627   4.800  11.031 -0.1202 -0.0485  0.0935
  133loPI   PO4 2116  13.709   4.305  10.663  0.0167 -0.4525 -0.1808
  133loPI   GL1 2117  13.940   4.072  10.365 -0.3226  0.1610  0.0487
  133loPI   GL2 2118  14.066   4.468  10.332  0.1917  0.0702 -0.1053
  133loPI   C1A 2119  13.842   4.159   9.995  0.0352  0.3231 -0.1724
  133loPI   C2A 2120  13.988   4.004   9.608 -0.3037  0.0844  0.1762
  133loPI   C3A 2121  14.029   3.871   9.110 -0.0656 -0.3571 -0.0153
  133loPI   C4A 2122  14.043   3.808   8.696  0.1357  0.0139 -0.3828
  133loPI   C5A 2123  14.101   3.529   8.413  0.0182 -0.2185  0.0863
  133loPI   C6A 2124  14.256   3.174   8.242  0.2680 -0.2173 -0.1375
  133loPI   C1B 2125  14.076   4.518   9.854  0.0875 -0.2878 -0.2254
  133loPI   C2B 2126  13.890   4.540   9.532  0.0113  0.0365 -0.1401
  133loPI   C3B 2127  13.697   4.293   9.178  0.0402  0.1743  0.4130
  133loPI   C4B 2128  13.778   4.185   8.686  0.0320  0.3551  0.2421
  134loPI    C1 2129  16.660  16.585  10.334 -0.1220 -0.1673 -0.0592
  134loPI    C2 2130  16.486  16.874  10.549  0.0407 -0.0675 -0.0600
  134loPI    C3 2131  16.366  16.495  10.590  0.0074 -0.0364  0.1384
  134loPI   PO4 2132  16.737  16.701  10.043 -0.0843  0.0793 -0.2003
  134loPI   GL1 2133  16.619  16.494   9.658  0.0608  0.0373  0.2278
  134loPI   GL2 2134  16.304  16.446   9.420  0.2466 -0.0677 -0.0290
  134loPI   C1A 2135  16.821  16.381   9.231 -0.1445 -0.2072  0.1910
  134loPI   C2A 2136  16.730  16.380   8.791 -0.0109  0.0631 -0.0184
  134loPI   C3A 2137  16.701  16.518   8.385  0.0479 -0.0088 -0.1510
  134loPI   C4A 2138  16.439  16.378   8.017 -0.3383 -0.0535 -0.0112
  134loPI   C5A 2139  16.519  16.533   7.671  0.1031  0.0965 -0.0723
  134loPI   C6A 2140  16.858  16.382   7.320  0.0063  0.0758  0.1746
  134loPI   C1B 2141  16.260  16.671   9.006  0.0279 -0.0337  0.0489
  134loPI   C2B 2142  16.215  16.800   8.561 -0.1009  0.1124  0.1585
  134loPI   C3B 2143  16.076  16.685   8.145  0.1786 -0.2210  0.0234
  134loPI   C4B 2144  16.012  16.570   7.823  0.3174 -0.0481  0.3075
  135loPI    C1 2145  15.968   4.059  10.664 -0.0979 -0.0367 -0.0192
  135loPI    C2 2146  16.124   4.218  10.996 -0.1387  0.0703 -0.0510
  135loPI    C3 2147  16.198   3.836  10.904 -0.1164  0.0439  0.0740
  135loPI   PO4 2148  15.850   4.266  10.606  0.1213  0.2516  0.1198
  135loPI   GL1 2149  15.906   4.391  10.135  0.3710  0.3196 -0.1001
  135loPI   GL2 2150  16.188   4.350  10.220 -0.1103  0.0667 -0.0865
  135loPI   C1A 2151  15.909   4.488   9.677  0.1607  0.4565  0.2209
  135loPI   C2A 2152  15.976   4.623   9.256 -0.1181  0.0923 -0.0673
  135loPI   C3A 2153  16.264   4.730   9.034  0.2059  0.0368 -0.0488
  135loPI   C4A 2154  16.411   4.801   8.573 -0.2613 -0.0593 -0.1237
  135loPI   C5A 2155  16.758   4.747   8.350  0.0366  0.2778  0.4079
  135loPI   C6A 2156  16.906   4.607   8.002  0.2710  0.0111  0.1655
  135loPI   C1B 2157  16.214   4.104   9.823 -0.1800  0.1197 -0.2628
  135loPI   C2B 2158  16.060   4.010   9.471 -0.1636  0.1042  0.0633
  135loPI   C3B 2159  16.251   3.953   8.925 -0.4710 -0.1302 -0.0908
  135loPI   C4B 2160  16.700   3.925   8.985  0.2564 -0.1036  0.0956
  136loPI    C1 2161  15.470   1.560  10.429  0.0290  0.0597 -0.0655
  136loPI    C2 2162  15.715   1.620  10.118 -0.0387  0.0191 -0.1269
  136loPI    C3 2163  15.795   1.332  10.384 -0.0818 -0.0716 -0.2113
  136loPI   PO4 2164  15.204   1.635  10.242  0.1968  0.0946  0.0823
  136loPI   GL1 2165  14.905   1.791   9.990  0.0824  0.0714  0.2397
  136loPI   GL2 2166  14.763   1.682  10.149 -0.1699 -0.1275  0.0048
  136loPI   C1A 2167  14.812   1.892   9.506 -0.0794 -0.2585  0.0092
  136loPI   C2A 2168  14.740   1.996   9.108 -0.0518  0.2525 -0.0877
  136loPI   C3A 2169  14.781   2.344   8.873 -0.0585  0.1361 -0.4737
  136loPI   C4A 2170  14.798   2.356   8.432 -0.4645 -0.1473 -0.0489
  136loPI   C5A 2171  14.919   2.533   8.036  0.0242 -0.0025  0.0584
  136loPI   C6A 2172  14.781   2.905   7.891  0.1597  0.2599 -0.2656
  136loPI   C1B 2173  14.640   1.488   9.776 -0.0980  0.0777  0.0215
  136loPI   C2B 2174  14.411   1.567   9.441  0.2683 -0.1131  0.2027
  136loPI   C3B 2175  14.359   1.609   9.027  0.0234  0.1366  0.1950
  136loPI   C4B 2176  14.135   1.547   8.676 -0.1646 -0.2514  0.0162
  137loPI    C1 2177  17.869   9.158  10.658 -0.0190 -0.1058 -0.1031
  137loPI    C2 2178  18.219   9.029  10.802  0.0284  0.0239 -0.1012
  137loPI    C3 2179  17.936   9.158  11.052 -0.0807 -0.2276 -0.0920
  137loPI   PO4 2180  17.880   9.055  10.306 -0.0432 -0.2508 -0.0493
  137loPI   GL1 2181  18.122   8.993   9.916 -0.0498  0.0184  0.0259
  137loPI   GL2 2182  17.772   8.910   9.840 -0.0921  0.1435  0.1842
  137loPI   C1A 2183  18.219   8.866   9.599 -0.1368 -0.2638  0.1418
  137loPI   C2A 2184  17.975   8.686   9.306 -0.0371 -0.0919 -0.3088
  137loPI   C3A 2185  17.620   8.642   9.002  0.0246  0.3128  0.1255
  137loPI   C4A 2186  17.447   8.463   8.629  0.0135  0.1244  0.0607
  137loPI   C5A 2187  17.625   8.569   8.219  0.2339  0.1230 -0.1583
  137loPI   C6A 2188  17.269   8.897   8.136  0.0130 -0.1306 -0.0459
  137loPI   C1B 2189  17.873   9.143   9.470 -0.1507 -0.0152  0.0737
  137loPI   C2B 2190  17.847   9.106   9.060 -0.1330  0.0094  0.3629
  137loPI   C3B 2191  17.598   9.056   8.665  0.0444  0.1851  0.2030
  137loPI   C4B 2192  17.660   9.204   8.231 -0.0437  0.5006 -0.1417
  138loPI    C1 2193  10.984  10.255   9.984  0.0446  0.1569 -0.0131
  138loPI    C2 2194  10.721  10.216  10.282  0.0534  0.0949 -0.0132
  138loPI    C3 2195  10.976   9.919  10.201  0.1547  0.1732  0.0169
  138loPI   PO4 2196  10.850  10.275   9.746  0.0055  0.1262 -0.2561
  138loPI   GL1 2197  10.773  10.090   9.438 -0.1463  0.0419  0.2713
  138loPI   GL2 2198  10.499  10.125   9.365  0.0478 -0.0729 -0.1263
  138loPI   C1A 2199  10.934   9.677   9.113  0.1599 -0.2309 -0.1189
  138loPI   C2A 2200  10.727   9.483   8.763  0.2381  0.2871 -0.0254
  138loPI   C3A 2201  10.636   9.035   8.633 -0.2757 -0.0036 -0.0179
  138loPI   C4A 2202  10.414   8.778   8.332 -0.5607  0.1487  0.1953
  138loPI   C5A 2203  10.173   8.554   7.887  0.0071  0.0897  0.1056
  138loPI   C6A 2204   9.744   8.447   7.947  0.1894 -0.1046 -0.0596
  138loPI   C1B 2205  10.551  10.000   8.941 -0.3504  0.0042  0.3431
  138loPI   C2B 2206  10.594   9.901   8.562  0.1131 -0.1639  0.0960
  138loPI   C3B 2207  10.519  10.082   8.193  0.3531  0.3333 -0.4308
  138loPI   C4B 2208  10.443   9.953   7.754 -0.1166 -0.1529  0.1188
  139loPI    C1 2209   6.256   5.656  10.400 -0.2859  0.1606 -0.1224
  139loPI    C2 2210   6.621   5.821  10.406 -0.1822 -0.0688  0.0842
  139loPI    C3 2211   6.369   5.883  10.710 -0.2850  0.0190 -0.0178
  139loPI   PO4 2212   6.241   5.631  10.173  0.2663 -0.1835  0.1889
  139loPI   GL1 2213   6.141   5.472   9.831  0.0682 -0.3581  0.1593
  139loPI   GL2 2214   6.292   5.668   9.666  0.0324 -0.2181  0.3004
  139loPI   C1A 2215   6.028   5.337   9.370 -0.1317 -0.2736 -0.0701
  139loPI   C2A 2216   6.079   5.608   9.031  0.1633  0.2470  0.0162
  139loPI   C3A 2217   6.077   5.854   8.666 -0.1431  0.0133 -0.1159
  139loPI   C4A 2218   6.121   6.084   8.253 -0.1479  0.0817  0.1266
  139loPI   C5A 2219   6.238   6.069   7.744 -0.0305  0.0221 -0.2968
  139loPI   C6A 2220   6.270   6.283   7.312 -0.1355 -0.1671 -0.2917
  139loPI   C1B 2221   6.278   6.000   9.347 -0.3562 -0.1616  0.2875
  139loPI   C2B 2222   6.117   6.088   9.091  0.0785 -0.1116  0.3690
  139loPI   C3B 2223   5.985   6.345   8.721  0.1468 -0.0055 -0.1566
  139loPI   C4B 2224   5.813   6.536   8.447  0.1151  0.0582 -0.0739
  140loPI    C1 2225   9.769   0.017  10.257  0.1034  0.1820  0.1423
  140loPI    C2 2226  10.097   0.013  10.486 -0.0187  0.0883  0.3178
  140loPI    C3 2227   9.737  -0.035  10.653 -0.1091  0.0176  0.1050
  140loPI   PO4 2228   9.786   0.200  10.060  0.1206  0.0771 -0.1157
  140loPI   GL1 2229  10.006   0.248   9.756  0.1422 -0.3647  0.0405
  140loPI   GL2 2230   9.971   0.499   9.629  0.2127 -0.0190 -0.1431
  140loPI   C1A 2231  10.114   0.227   9.284 -0.1459  0.1705 -0.2123
  140loPI   C2A 2232   9.997   0.421   8.922  0.2411 -0.1252  0.0332
  140loPI   C3A 2233   9.846   0.417   8.527  0.2509  0.0195  0.2889
  140loPI   C4A 2234   9.745   0.272   8.270 -0.2481  0.1348  0.3013
  140loPI   C5A 2235   9.793   0.175   7.822  0.0458  0.3308 -0.1277
  140loPI   C6A 2236   9.996   0.188   7.410 -0.0155 -0.1942 -0.0081
  140loPI   C1B 2237  10.243   0.664   9.323  0.1161 -0.0182 -0.0419
  140loPI   C2B 2238  10.365   0.776   8.871  0.0882  0.1094  0.3165
  140loPI   C3B 2239  10.272   0.689   8.506  0.2731  0.0201  0.0230
  140loPI   C4B 2240  10.206   0.489   8.176 -0.1748  0.0592 -0.0130
  141loPI    C1 2241   9.258  12.011  10.202  0.0761  0.1081 -0.0995
  141loPI    C2 2242   9.619  11.960  10.367 -0.0531  0.0411  0.1672
  141loPI    C3 2243   9.319  12.113  10.584 -0.1943  0.0669 -0.0431
  141loPI   PO4 2244   9.240  12.202   9.962 -0.0529 -0.0576 -0.0198
  141loPI   GL1 2245   9.376  12.138   9.533 -0.2429  0.0580  0.0685
  141loPI   GL2 2246   9.524  12.379   9.524 -0.3831  0.2823 -0.1333
  141loPI   C1A 2247   9.190  12.213   9.094  0.0747  0.2180 -0.1685
  141loPI   C2A 2248   9.238  12.179   8.716 -0.0216 -0.2628  0.2358
  141loPI   C3A 2249   9.121  12.401   8.259 -0.1038  0.1713  0.0701
  141loPI   C4A 2250   9.226  12.668   8.028 -0.0099  0.2948 -0.0793
  141loPI   C5A 2251   9.181  12.887   7.740  0.3999 -0.1595 -0.0990
  141loPI   C6A 2252   9.007  13.055   7.407  0.0927  0.0364 -0.0699
  141loPI   C1B 2253   9.568  12.510   9.155 -0.0109 -0.1365 -0.1205
  141loPI   C2B 2254   9.539  12.565   8.594 -0.0126 -0.1512 -0.0805
  141loPI   C3B 2255   9.641  12.611   8.240 -0.0435 -0.1170 -0.2140
  141loPI   C4B 2256   9.675  12.681   7.798 -0.1917  0.0445 -0.2565
  142loPI    C1 2257  11.422   5.424  10.473 -0.0837  0.0619  0.0089
  142loPI    C2 2258  11.628   5.551  10.155  0.0512  0.0702  0.0986
  142loPI    C3 2259  11.699   5.709  10.515  0.0105 -0.0500  0.1602
  142loPI   PO4 2260  11.184   5.434  10.324 -0.2188  0.0140  0.0937
  142loPI   GL1 2261  11.137   5.419  10.028 -0.2175  0.2342 -0.2025
  142loPI   GL2 2262  11.064   5.179   9.866  0.1045  0.0183  0.3783
  142loPI   C1A 2263  11.417   5.451   9.680 -0.0248  0.0128 -0.2345
  142loPI   C2A 2264  11.700   5.383   9.362 -0.1580 -0.2982  0.0973
  142loPI   C3A 2265  11.836   5.391   8.892 -0.1494  0.2749 -0.0456
  142loPI   C4A 2266  11.973   4.974   8.685 -0.0088  0.0467  0.1239
  142loPI   C5A 2267  12.242   4.501   8.695  0.2593  0.4308  0.2061
  142loPI   C6A 2268  12.344   4.146   8.857  0.0121 -0.2833 -0.2311
  142loPI   C1B 2269  11.175   5.045   9.547 -0.3254  0.2965  0.0367
  142loPI   C2B 2270  11.392   4.812   9.352 -0.2189 -0.1853  0.0409
  142loPI   C3B 2271  11.691   4.863   9.121  0.0591  0.1241  0.2431
  142loPI   C4B 2272  12.116   5.073   9.163  0.2122  0.4264 -0.0810
  143loPI    C1 2273  10.428   1.807  10.487 -0.1190  0.1959 -0.1251
  143loPI    C2 2274  10.276   1.548  10.751 -0.0705  0.0864 -0.2040
  143loPI    C3 2275  10.039   1.821  10.580 -0.1440  0.0256 -0.1999
  143loPI   PO4 2276  10.573   1.650  10.369  0.1366  0.1876  0.0938
  143loPI   GL1 2277  10.666   1.881  10.019  0.2284  0.2709 -0.2360
  143loPI   GL2 2278  10.320   1.819   9.920  0.1358  0.0003  0.4624
  143loPI   C1A 2279  10.668   2.115   9.740 -0.0038 -0.0591  0.0626
  143loPI   C2A 2280  10.580   2.320   9.334  0.0833 -0.0044  0.1814
  143loPI   C3A 2281  10.762   2.392   8.996 -0.0208 -0.1747 -0.1966
  143loPI   C4A 2282  10.874   2.783   8.708  0.1434 -0.1868 -0.1204
  143loPI   C5A 2283  10.953   2.887   8.252 -0.0291 -0.0253 -0.0017
  143loPI   C6A 2284  11.209   2.755   7.933  0.3047  0.0807  0.1019
  143loPI   C1B 2285  10.460   1.599   9.544 -0.0878 -0.3903  0.2492
  143loPI   C2B 2286  10.462   1.832   9.170 -0.2014 -0.3391 -0.1873
  143loPI   C3B 2287  10.542   2.039   8.748  0.1936 -0.0206  0.2135
  143loPI   C4B 2288  10.645   2.205   8.458  0.0928 -0.0364 -0.1187
  144loPI    C1 2289   5.431   4.287  10.227 -0.0025  0.0868  0.0806
  144loPI    C2 2290   5.567   3.973  10.435 -0.3210 -0.1502 -0.0597
  144loPI    C3 2291   5.562   4.337  10.601 -0.0329 -0.2327  0.1370
  144loPI   PO4 2292   5.178   4.206  10.131 -0.0384  0.0335 -0.2160
  144loPI   GL1 2293   5.024   4.230   9.769  0.1052  0.1880  0.1094
  144loPI   GL2 2294   5.253   3.966   9.530 -0.0776  0.2644 -0.0201
  144loPI   C1A 2295   5.046   4.519   9.354 -0.1541  0.0760 -0.0429
  144loPI   C2A 2296   4.906   4.582   8.941  0.0566  0.0985 -0.2221
  144loPI   C3A 2297   4.999   4.690   8.423 -0.0142 -0.3452  0.0463
  144loPI   C4A 2298   5.132   4.803   8.022  0.3127  0.1161 -0.0846
  144loPI   C5A 2299   5.350   4.566   7.800 -0.1691  0.3023 -0.4276
  144loPI   C6A 2300   5.472   4.183   7.860 -0.0013  0.0039 -0.2853
  144loPI   C1B 2301   5.645   3.973   9.367  0.6366  0.2327 -0.1075
  144loPI   C2B 2302   5.631   4.081   8.989 -0.0791  0.1509  0.0430
  144loPI   C3B 2303   5.668   3.899   8.574 -0.0705 -0.1580 -0.0278
  144loPI   C4B 2304   5.415   3.858   8.244  0.3008 -0.1568  0.2116
  145loPI    C1 2305   9.677   9.845  10.314  0.2780  0.1920 -0.1815
  145loPI    C2 2306   9.949   9.553  10.334  0.0412 -0.0224 -0.0353
  145loPI    C3 2307   9.969   9.863  10.586  0.2115  0.0177 -0.0971
  145loPI   PO4 2308   9.575   9.808  10.060  0.2838  0.0753  0.2784
  145loPI   GL1 2309   9.607   9.769   9.618 -0.2709 -0.1221  0.1606
  145loPI   GL2 2310   9.656   9.965   9.421  0.1108  0.0042  0.1353
  145loPI   C1A 2311   9.305   9.602   9.395 -0.0897 -0.3153  0.0001
  145loPI   C2A 2312   9.209   9.505   8.983  0.0727 -0.0784 -0.3080
  145loPI   C3A 2313   9.236   9.511   8.619  0.1736  0.0306 -0.0312
  145loPI   C4A 2314   9.122   9.611   8.229 -0.1285 -0.0650  0.1065
  145loPI   C5A 2315   8.880   9.640   7.879 -0.3033  0.1942 -0.0090
  145loPI   C6A 2316   8.631   9.886   7.577  0.3055  0.0463 -0.3042
  145loPI   C1B 2317   9.582   9.829   9.021  0.1917  0.1210  0.0873
  145loPI   C2B 2318   9.656   9.912   8.667  0.1957  0.2331  0.0812
  145loPI   C3B 2319   9.585   9.948   8.204  0.0138  0.0401 -0.0485
  145loPI   C4B 2320   9.600   9.929   7.728  0.1652  0.4060 -0.2395
  146loPI    C1 2321   5.569  15.916   9.513  0.1876 -0.0619 -0.0156
  146loPI    C2 2322   5.721  15.938   9.882 -0.2776  0.0698  0.1752
  146loPI    C3 2323   5.714  16.263   9.649 -0.1120  0.0211  0.1012
  146loPI   PO4 2324   5.674  15.631   9.435 -0.1976  0.1360  0.1814
  146loPI   GL1 2325   5.988  15.439   9.130 -0.3730  0.1718  0.0685
  146loPI   GL2 2326   6.182  15.427   8.976  0.2910 -0.1414  0.1121
  146loPI   C1A 2327   5.857  15.694   8.742 -0.1250  0.2506 -0.2280
  146loPI   C2A 2328   6.130  15.954   8.562 -0.0064 -0.2189 -0.2715
  146loPI   C3A 2329   6.316  15.868   8.070 -0.2776 -0.1079  0.1260
  146loPI   C4A 2330   6.407  15.799   7.598 -0.1285  0.1504  0.0184
  146loPI   C5A 2331   6.422  15.427   7.319 -0.3704 -0.0968 -0.2318
  146loPI   C6A 2332   6.068  15.256   7.089 -0.3669  0.0468 -0.0464
  146loPI   C1B 2333   6.191  15.422   8.459 -0.1172 -0.2110 -0.1715
  146loPI   C2B 2334   5.743  15.628   8.268  0.3842 -0.1562 -0.0141
  146loPI   C3B 2335   5.701  15.620   7.889  0.1403 -0.5811  0.2097
  146loPI   C4B 2336   5.504  15.423   7.591 -0.0717  0.1903  0.2908
  147loPI    C1 2337   6.580   0.771  10.082  0.0868  0.1024  0.0634
  147loPI    C2 2338   6.315   0.644   9.810 -0.0711  0.1863  0.1765
  147loPI    C3 2339   6.456   0.390  10.085 -0.1163  0.1676  0.1826
  147loPI   PO4 2340   6.641   1.011   9.973  0.1593  0.0688  0.0306
  147loPI   GL1 2341   6.794   1.053   9.617  0.1514  0.0610  0.2283
  147loPI   GL2 2342   6.813   1.378   9.600  0.1212 -0.0529 -0.1200
  147loPI   C1A 2343   6.660   0.737   9.313  0.0284 -0.2445 -0.1283
  147loPI   C2A 2344   6.461   0.817   8.932 -0.1299 -0.2500 -0.0880
  147loPI   C3A 2345   6.325   0.912   8.530 -0.3253 -0.1642 -0.1963
  147loPI   C4A 2346   6.520   0.803   8.082  0.2242 -0.0766 -0.0215
  147loPI   C5A 2347   6.773   0.754   7.725 -0.0606 -0.0060 -0.0222
  147loPI   C6A 2348   6.887   1.128   7.432 -0.1597  0.2162  0.0061
  147loPI   C1B 2349   6.680   1.252   9.182 -0.2472  0.1649  0.3611
  147loPI   C2B 2350   6.600   1.271   8.716 -0.0471  0.2340  0.1480
  147loPI   C3B 2351   6.585   1.248   8.312 -0.2462  0.0314  0.1055
  147loPI   C4B 2352   6.695   1.301   7.858 -0.0231  0.1486 -0.3004
  148loPI    C1 2353  12.797  12.581   9.990 -0.0889 -0.0381  0.1763
  148loPI    C2 2354  12.987  12.390  10.286 -0.0955 -0.1163  0.1302
  148loPI    C3 2355  12.600  12.484  10.324 -0.0172  0.1561  0.2764
  148loPI   PO4 2356  13.171  12.658   9.888 -0.2827  0.1431 -0.1725
  148loPI   GL1 2357  13.655  12.640   9.795 -0.0837  0.1499 -0.1344
  148loPI   GL2 2358  13.441  12.342   9.676 -0.1514 -0.0140 -0.0217
  148loPI   C1A 2359  13.687  12.655   9.325 -0.3055  0.0335 -0.2752
  148loPI   C2A 2360  13.654  12.648   8.891  0.2165  0.2672  0.2165
  148loPI   C3A 2361  13.536  12.552   8.485  0.1122 -0.0578 -0.1533
  148loPI   C4A 2362  13.342  12.839   8.132 -0.4124  0.0438 -0.0386
  148loPI   C5A 2363  13.459  12.842   7.690 -0.2834  0.1061 -0.0564
  148loPI   C6A 2364  13.752  12.693   7.340 -0.2625  0.0709 -0.1679
  148loPI   C1B 2365  13.265  12.309   9.299  0.0343  0.1719  0.2468
  148loPI   C2B 2366  13.366  12.239   8.883  0.0060  0.2671 -0.0728
  148loPI   C3B 2367  13.436  12.084   8.441 -0.0211  0.0996 -0.1420
  148loPI   C4B 2368  13.604  11.896   8.094 -0.1887  0.0861 -0.1514
  149loPI    C1 2369   1.837   1.879  10.542 -0.1607  0.0209 -0.2134
  149loPI    C2 2370   1.608   1.568  10.648 -0.0700  0.0905  0.2043
  149loPI    C3 2371   1.992   1.511  10.554 -0.1052  0.0513  0.0829
  149loPI   PO4 2372   1.630   2.045  10.406 -0.1760  0.2734 -0.1232
  149loPI   GL1 2373   1.579   2.128  10.024 -0.1830 -0.1148  0.1119
  149loPI   GL2 2374   1.342   1.987   9.982  0.1672 -0.2563  0.1309
  149loPI   C1A 2375   1.570   2.489   9.682 -0.0516  0.2280  0.0805
  149loPI   C2A 2376   1.770   2.475   9.276 -0.1369  0.2067 -0.0865
  149loPI   C3A 2377   1.621   2.414   8.917 -0.0292  0.0384  0.2323
  149loPI   C4A 2378   1.589   2.409   8.457 -0.0494 -0.0657  0.0324
  149loPI   C5A 2379   1.453   2.420   7.997 -0.0381  0.4045  0.0634
  149loPI   C6A 2380   1.736   2.125   7.884 -0.0721 -0.0586 -0.1223
  149loPI   C1B 2381   1.293   2.085   9.544 -0.1004 -0.2362 -0.0475
  149loPI   C2B 2382   1.193   2.257   9.115 -0.3756  0.1305  0.0045
  149loPI   C3B 2383   1.185   2.262   8.658  0.1927  0.0071  0.0479
  149loPI   C4B 2384   1.004   2.208   8.295 -0.1580 -0.2472 -0.3906
  150loPI    C1 2385  12.527  17.088  10.497 -0.3950  0.0616  0.1324
  150loPI    C2 2386  12.456  17.445  10.663  0.0139  0.2155 -0.0115
  150loPI    C3 2387  12.755  17.217  10.799 -0.0387  0.0710 -0.1343
  150loPI   PO4 2388  12.362  16.922  10.400  0.1728  0.0563  0.1016
  150loPI   GL1 2389  12.277  16.961   9.887  0.0049  0.0151  0.2420
  150loPI   GL2 2390  12.586  16.892   9.936  0.1537 -0.2472  0.0601
  150loPI   C1A 2391  12.395  17.195   9.518 -0.2974  0.2982 -0.1056
  150loPI   C2A 2392  12.383  17.241   9.083 -0.1966 -0.1887 -0.2666
  150loPI   C3A 2393  12.423  17.214   8.686 -0.0743 -0.1843  0.0566
  150loPI   C4A 2394  12.556  17.269   8.242 -0.1763 -0.3950  0.1525
  150loPI   C5A 2395  12.789  17.221   7.875  0.2810 -0.0326 -0.0324
  150loPI   C6A 2396  12.981  17.153   7.527 -0.1127  0.4461 -0.1765
  150loPI   C1B 2397  12.584  16.747   9.485  0.0618  0.1597  0.2004
  150loPI   C2B 2398  12.476  16.390   9.204  0.1116 -0.1129  0.0671
  150loPI   C3B 2399  12.499  16.306   8.781  0.2624 -0.0420  0.2945
  150loPI   C4B 2400  12.489  16.257   8.359 -0.2444  0.2125 -0.1329
  151loPI    C1 2401  17.724  11.440  10.444 -0.1407  0.0417  0.0325
  151loPI    C2 2402  17.399  11.429  10.678  0.0483  0.0693  0.3020
  151loPI    C3 2403  17.763  11.421  10.842  0.1856  0.0880  0.0050
  151loPI   PO4 2404  17.687  11.616  10.259 -0.0111  0.2974 -0.2462
  151loPI   GL1 2405  17.905  11.494   9.903  0.0683  0.1363  0.1675
  151loPI   GL2 2406  17.927  11.818   9.902 -0.3592  0.0169  0.0099
  151loPI   C1A 2407  17.891  11.272   9.413  0.1632  0.1164  0.2691
  151loPI   C2A 2408  17.927  11.094   9.157  0.0545  0.2063 -0.1371
  151loPI   C3A 2409  18.080  10.864   8.789  0.0024 -0.0936  0.0701
  151loPI   C4A 2410  18.125  10.632   8.413 -0.1804 -0.0553 -0.1665
  151loPI   C5A 2411  18.007  10.828   8.026 -0.2197 -0.0380 -0.2267
  151loPI   C6A 2412  17.856  11.262   7.963 -0.3931 -0.3210 -0.2188
  151loPI   C1B 2413  17.656  11.730   9.449  0.0287 -0.0500 -0.0608
  151loPI   C2B 2414  17.672  11.506   9.089 -0.0494  0.0475  0.4855
  151loPI   C3B 2415  17.593  11.210   8.758  0.0887  0.1022  0.1904
  151loPI   C4B 2416  17.817  11.083   8.438 -0.2035 -0.1472 -0.2602
  152loPI    C1 2417   8.020  15.110   9.812 -0.1361 -0.2552 -0.1997
  152loPI    C2 2418   8.249  14.802   9.701  0.1782 -0.0813 -0.0493
  152loPI    C3 2419   8.153  14.851  10.086  0.1865  0.0462 -0.0628
  152loPI   PO4 2420   7.870  15.141   9.651  0.0749 -0.0831  0.0465
  152loPI   GL1 2421   7.643  15.374   9.480  0.0495  0.0399  0.2693
  152loPI   GL2 2422   7.471  15.412   9.315 -0.0922 -0.2220  0.1124
  152loPI   C1A 2423   7.900  15.562   9.136  0.0452  0.1226  0.3399
  152loPI   C2A 2424   7.838  15.675   8.703  0.0851 -0.4398 -0.0135
  152loPI   C3A 2425   7.711  15.546   8.322  0.2299  0.0330  0.0946
  152loPI   C4A 2426   7.731  15.496   7.827  0.1914 -0.2144  0.1861
  152loPI   C5A 2427   7.653  15.646   7.383  0.0870 -0.3507 -0.0906
  152loPI   C6A 2428   7.260  15.734   7.064  0.0326  0.3051 -0.0569
  152loPI   C1B 2429   7.453  15.328   8.823 -0.2604 -0.0128  0.0911
  152loPI   C2B 2430   7.332  15.175   8.405  0.2068  0.0224 -0.1707
  152loPI   C3B 2431   7.299  15.198   8.026  0.0836 -0.0030 -0.0861
  152loPI   C4B 2432   7.300  15.317   7.638  0.0128 -0.0422 -0.2236
  153loPI    C1 2433  16.591   1.445  10.482 -0.2612  0.0618  0.3466
  153loPI    C2 2434  16.289   1.222  10.345 -0.0229 -0.1186  0.1033
  153loPI    C3 2435  16.613   1.046  10.500  0.0617  0.0671  0.1398
  153loPI   PO4 2436  16.673   1.592  10.292  0.1680 -0.2030 -0.0919
  153loPI   GL1 2437  16.932   1.519   9.934 -0.0191 -0.0977  0.1162
  153loPI   GL2 2438  16.902   1.825   9.893  0.0062 -0.0659  0.0703
  153loPI   C1A 2439  16.990   1.313   9.550 -0.1149  0.2442  0.1066
  153loPI   C2A 2440  17.144   1.273   9.076  0.0159  0.1536  0.2738
  153loPI   C3A 2441  17.457   1.284   8.727 -0.1182  0.1952 -0.0023
  153loPI   C4A 2442  17.667   1.296   8.352 -0.1459  0.2881 -0.1582
  153loPI   C5A 2443  17.791   1.702   8.083  0.2354  0.2543 -0.1037
  153loPI   C6A 2444  17.818   2.174   8.134  0.0477 -0.0232 -0.3512
  153loPI   C1B 2445  16.904   1.796   9.446  0.1829  0.2647  0.0424
  153loPI   C2B 2446  16.850   1.876   9.050  0.0152 -0.1736  0.0804
  153loPI   C3B 2447  17.120   1.696   8.734 -0.2048 -0.2115  0.4470
  153loPI   C4B 2448  17.234   1.599   8.288 -0.2836 -0.0140 -0.2437
  154loPI    C1 2449   6.309  11.840  10.144  0.3483  0.1301 -0.0255
  154loPI    C2 2450   6.439  11.846  10.523  0.0453 -0.0960  0.0859
  154loPI    C3 2451   6.223  11.536  10.390  0.3435 -0.1301 -0.3414
  154loPI   PO4 2452   6.256  12.095  10.087 -0.0883 -0.0637 -0.1220
  154loPI   GL1 2453   6.468  12.159   9.668  0.0547 -0.1491  0.3393
  154loPI   GL2 2454   6.349  12.478   9.462  0.2301  0.0525 -0.0565
  154loPI   C1A 2455   6.264  12.059   9.187  0.1698  0.0784 -0.0770
  154loPI   C2A 2456   6.241  12.198   8.819 -0.1368 -0.0472 -0.1464
  154loPI   C3A 2457   6.300  12.051   8.376  0.0855 -0.2273 -0.1479
  154loPI   C4A 2458   6.384  11.804   8.105 -0.1264 -0.0773 -0.0721
  154loPI   C5A 2459   6.357  11.378   7.925 -0.1430  0.2531 -0.2378
  154loPI   C6A 2460   6.565  10.968   7.912  0.0708  0.2325 -0.1602
  154loPI   C1B 2461   6.162  12.633   9.160 -0.3146 -0.0644  0.1168
  154loPI   C2B 2462   6.066  12.674   8.650  0.1869  0.1221 -0.1207
  154loPI   C3B 2463   6.040  12.471   8.267 -0.1454  0.1917 -0.1917
  154loPI   C4B 2464   5.819  12.439   7.836 -0.2382  0.1849 -0.0655
  155loPI    C1 2465   8.013  16.052   9.805 -0.0667  0.0099  0.0188
  155loPI    C2 2466   8.357  16.209   9.675 -0.1429  0.1313 -0.0381
  155loPI    C3 2467   8.360  15.933   9.965  0.0107  0.0384 -0.1268
  155loPI   PO4 2468   7.842  16.008   9.617  0.1866 -0.1478  0.1550
  155loPI   GL1 2469   7.613  15.991   9.238  0.2133 -0.1504  0.1103
  155loPI   GL2 2470   7.408  16.230   9.375  0.0531  0.0395  0.0233
  155loPI   C1A 2471   7.613  16.079   8.828 -0.0194  0.1254  0.0046
  155loPI   C2A 2472   7.617  16.086   8.413 -0.2128  0.3179  0.4912
  155loPI   C3A 2473   7.745  16.026   8.042 -0.2306  0.1572  0.0475
  155loPI   C4A 2474   7.967  16.029   7.647  0.1072  0.0987  0.0246
  155loPI   C5A 2475   8.247  15.831   7.366 -0.1232 -0.1377  0.3595
  155loPI   C6A 2476   8.214  15.427   7.245  0.2173  0.0752 -0.1328
  155loPI   C1B 2477   7.204  16.277   9.050  0.0105 -0.1411  0.0856
  155loPI   C2B 2478   7.144  16.327   8.629 -0.0686 -0.0142  0.1015
  155loPI   C3B 2479   7.284  16.303   8.126  0.0790 -0.2078  0.2824
  155loPI   C4B 2480   7.196  16.325   7.721  0.0150 -0.2263  0.2865
  156loPI    C1 2481   4.316   0.407  10.473  0.0035 -0.1064 -0.0875
  156loPI    C2 2482   4.038   0.150  10.603 -0.0485  0.0197  0.0542
  156loPI    C3 2483   4.422   0.039  10.588 -0.0799 -0.0891  0.0469
  156loPI   PO4 2484   4.282   0.427  10.234 -0.0281 -0.3775 -0.0805
  156loPI   GL1 2485   4.495   0.705   9.957 -0.1085  0.0517  0.0895
  156loPI   GL2 2486   4.548   1.106   9.860  0.2844 -0.0016 -0.0715
  156loPI   C1A 2487   4.341   0.406   9.558  0.1550  0.2307 -0.3888
  156loPI   C2A 2488   4.113   0.226   9.355  0.0392  0.0622  0.1009
  156loPI   C3A 2489   4.187   0.384   8.996  0.4252  0.2373  0.2000
  156loPI   C4A 2490   3.940   0.665   8.627 -0.0816 -0.1446  0.0609
  156loPI   C5A 2491   3.805   0.789   8.183  0.0426 -0.6108  0.1048
  156loPI   C6A 2492   4.008   1.250   7.979 -0.1988  0.3170  0.0984
  156loPI   C1B 2493   4.349   1.133   9.478 -0.1603  0.0475 -0.0966
  156loPI   C2B 2494   3.964   1.209   9.460  0.0177 -0.2215  0.1306
  156loPI   C3B 2495   3.621   1.476   9.476 -0.0850  0.0967  0.4425
  156loPI   C4B 2496   3.618   1.819   9.625 -0.0019  0.0814 -0.3321
  157loPI    C1 2497   2.508   2.262  10.493 -0.3539 -0.0944 -0.1711
  157loPI    C2 2498   2.651   2.094  10.827 -0.0449 -0.0370 -0.2712
  157loPI    C3 2499   2.300   1.974  10.677 -0.3135  0.1147  0.2124
  157loPI   PO4 2500   2.671   2.234  10.313  0.0786  0.0642 -0.0056
  157loPI   GL1 2501   2.499   2.173   9.911  0.1369  0.1548  0.0580
  157loPI   GL2 2502   2.598   1.848   9.869 -0.0006  0.2236  0.1774
  157loPI   C1A 2503   2.175   2.231   9.566  0.0247 -0.1979 -0.1149
  157loPI   C2A 2504   2.178   2.321   9.050  0.1416 -0.1839 -0.1916
  157loPI   C3A 2505   2.157   2.478   8.627 -0.0046 -0.1488 -0.0867
  157loPI   C4A 2506   2.031   2.510   8.217 -0.2727 -0.1312  0.0615
  157loPI   C5A 2507   1.822   2.810   8.071  0.0764 -0.1212 -0.1831
  157loPI   C6A 2508   1.724   3.228   8.002 -0.1321  0.2092  0.0563
  157loPI   C1B 2509   2.503   1.850   9.395 -0.2602  0.0846  0.0830
  157loPI   C2B 2510   2.249   1.831   9.095 -0.0984  0.1840 -0.2192
  157loPI   C3B 2511   2.248   1.529   8.755 -0.2976 -0.4054  0.1576
  157loPI   C4B 2512   2.226   1.520   8.367 -0.0548  0.0366 -0.3714
  158loPI    C1 2513  14.348  16.453  10.234  0.0967 -0.0962 -0.1677
  158loPI    C2 2514  14.572  16.609  10.526 -0.1156 -0.0104 -0.0484
  158loPI    C3 2515  14.448  16.229  10.550  0.0461 -0.0698 -0.1330
  158loPI   PO4 2516  14.493  16.465   9.967 -0.1859 -0.0035 -0.0476
  158loPI   GL1 2517  14.707  16.190   9.684 -0.0743  0.0172  0.4233
  158loPI   GL2 2518  14.396  16.170   9.527  0.2029 -0.0365  0.1236
  158loPI   C1A 2519  14.840  16.282   9.269 -0.3399 -0.2872  0.0840
  158loPI   C2A 2520  14.737  16.234   8.988 -0.0806  0.2954 -0.0678
  158loPI   C3A 2521  14.645  16.260   8.545 -0.2317 -0.0779  0.1795
  158loPI   C4A 2522  14.470  16.121   8.100  0.1390 -0.1300  0.2414
  158loPI   C5A 2523  14.183  16.059   7.756 -0.2652 -0.1793 -0.1533
  158loPI   C6A 2524  14.152  15.697   7.497 -0.1643 -0.0552 -0.2948
  158loPI   C1B 2525  14.397  16.013   9.220  0.1423  0.1934  0.1315
  158loPI   C2B 2526  14.249  15.809   8.787 -0.0996 -0.0928  0.0411
  158loPI   C3B 2527  14.269  15.732   8.387  0.0538  0.1899 -0.4097
  158loPI   C4B 2528  14.125  15.623   8.107 -0.3365  0.0903 -0.1884
  159loPI    C1 2529   5.910  13.418  10.246  0.0717 -0.0063 -0.1561
  159loPI    C2 2530   6.110  13.132  10.442 -0.0345 -0.2492 -0.3967
  159loPI    C3 2531   5.728  13.207  10.533  0.0882  0.0473 -0.1057
  159loPI   PO4 2532   6.045  13.457   9.970  0.0775  0.0232 -0.1588
  159loPI   GL1 2533   6.181  13.364   9.585 -0.4205 -0.0771  0.0367
  159loPI   GL2 2534   6.103  13.667   9.555  0.0158  0.3119  0.1712
  159loPI   C1A 2535   6.056  13.142   9.283  0.0352  0.1072 -0.1969
  159loPI   C2A 2536   6.060  13.184   8.898  0.2108 -0.0580 -0.3017
  159loPI   C3A 2537   5.929  13.196   8.529 -0.0981 -0.4052  0.1133
  159loPI   C4A 2538   5.845  13.348   8.122 -0.2350 -0.2085  0.2388
  159loPI   C5A 2539   5.673  13.634   7.749  0.0046 -0.0881 -0.1145
  159loPI   C6A 2540   5.562  13.538   7.321  0.1624  0.1192 -0.1162
  159loPI   C1B 2541   6.028  13.663   9.026 -0.1397  0.1760 -0.1483
  159loPI   C2B 2542   5.952  13.710   8.621 -0.1954 -0.1760  0.1102
  159loPI   C3B 2543   6.054  13.811   8.113 -0.0573  0.1655 -0.5520
  159loPI   C4B 2544   6.085  13.868   7.642  0.2658  0.0858 -0.0232
  160loPI    C1 2545  14.124  17.644  10.140  0.0714 -0.0458 -0.0717
  160loPI    C2 2546  13.965  17.476  10.466 -0.0338 -0.0840 -0.1419
  160loPI    C3 2547  14.204  17.795  10.501 -0.2549  0.0737 -0.0459
  160loPI   PO4 2548  14.208  17.383   9.951 -0.3134 -0.0710 -0.2989
  160loPI   GL1 2549  14.398  17.420   9.644 -0.0743 -0.2668 -0.3878
  160loPI   GL2 2550  14.391  17.124   9.461  0.2041  0.0273 -0.1352
  160loPI   C1A 2551  14.061  17.464   9.278 -0.3053 -0.0593  0.0428
  160loPI   C2A 2552  13.986  17.442   8.881 -0.1305  0.4783 -0.0683
  160loPI   C3A 2553  13.952  17.609   8.513 -0.3237  0.1104 -0.1454
  160loPI   C4A 2554  13.659  17.893   8.300 -0.2164 -0.2009 -0.0517
  160loPI   C5A 2555  13.419  18.005   8.076  0.1498 -0.1011  0.1836
  160loPI   C6A 2556  13.311  18.202   7.696 -0.2393  0.2755 -0.2290
  160loPI   C1B 2557  14.408  17.145   8.981 -0.0605 -0.1334 -0.4086
  160loPI   C2B 2558  14.865  17.187   8.722  0.2016  0.3358 -0.3330
  160loPI   C3B 2559  14.937  17.304   8.267 -0.3358 -0.0445 -0.0819
  160loPI   C4B 2560  14.793  17.590   7.857  0.1558  0.1767  0.1344
  161loPI    C1 2561   9.055  15.755   9.666 -0.2433  0.1980  0.2097
  161loPI    C2 2562   9.029  15.503   9.975 -0.2255  0.0363  0.0808
  161loPI    C3 2563   9.383  15.570   9.801 -0.2805 -0.0878 -0.0807
  161loPI   PO4 2564   8.763  15.673   9.600 -0.1746  0.1553  0.0196
  161loPI   GL1 2565   8.657  15.636   9.183 -0.0760  0.3198 -0.0897
  161loPI   GL2 2566   8.424  15.441   9.202 -0.2487  0.3202  0.0432
  161loPI   C1A 2567   8.555  15.908   8.850 -0.1276 -0.2237 -0.1070
  161loPI   C2A 2568   8.578  15.917   8.405 -0.0099 -0.1334 -0.0748
  161loPI   C3A 2569   8.701  15.850   7.968 -0.1333 -0.2275  0.0174
  161loPI   C4A 2570   8.759  15.794   7.539  0.1017  0.0898 -0.0279
  161loPI   C5A 2571   8.899  16.191   7.295  0.0573 -0.0168  0.0173
  161loPI   C6A 2572   9.274  16.500   7.414  0.0045 -0.2273  0.1752
  161loPI   C1B 2573   8.300  15.439   8.776 -0.1664  0.1139  0.0653
  161loPI   C2B 2574   8.197  15.471   8.423 -0.0658  0.2946  0.1632
  161loPI   C3B 2575   8.142  15.755   8.189 -0.3579  0.0742 -0.0173
  161loPI   C4B 2576   8.223  15.639   7.806 -0.0711 -0.0516  0.2220
  162loPI    C1 2577   5.509  17.033  10.042  0.0967 -0.1290  0.0063
  162loPI    C2 2578   5.220  16.759  10.074 -0.0877  0.0635  0.0162
  162loPI    C3 2579   5.442  16.853  10.393 -0.1509  0.0628  0.0606
  162loPI   PO4 2580   5.368  17.206   9.914 -0.2031  0.1393  0.0680
  162loPI   GL1 2581   5.151  17.110   9.497  0.3301 -0.0189 -0.1417
  162loPI   GL2 2582   5.445  17.112   9.307  0.4426  0.1441  0.1574
  162loPI   C1A 2583   4.999  16.844   9.144 -0.0910 -0.2977  0.0740
  162loPI   C2A 2584   4.974  16.949   8.750 -0.0244  0.0858 -0.1671
  162loPI   C3A 2585   4.831  16.825   8.302 -0.0824 -0.1260 -0.1284
  162loPI   C4A 2586   4.608  16.881   7.935 -0.2730 -0.4226  0.0037
  162loPI   C5A 2587   4.366  16.784   7.660  0.0720  0.1587 -0.0615
  162loPI   C6A 2588   3.961  16.813   7.638  0.2068 -0.1785  0.1818
  162loPI   C1B 2589   5.442  17.070   8.893 -0.1922  0.0045  0.3709
  162loPI   C2B 2590   5.455  17.129   8.503  0.1255  0.0565  0.0300
  162loPI   C3B 2591   5.554  17.105   8.106  0.4619 -0.1743  0.1329
  162loPI   C4B 2592   5.541  16.900   7.683  0.1363 -0.1197 -0.3802
  163loPI    C1 2593   2.488   4.197  10.611 -0.2604  0.1430 -0.1044
  163loPI    C2 2594   2.466   3.899  10.877  0.0994  0.0820 -0.1374
  163loPI    C3 2595   2.316   4.259  10.966 -0.0381 -0.0165  0.0339
  163loPI   PO4 2596   2.785   4.101  10.482 -0.1465  0.0403  0.0719
  163loPI   GL1 2597   2.945   3.918  10.110 -0.2339 -0.5495  0.0974
  163loPI   GL2 2598   2.761   3.704  10.034  0.2464  0.1861 -0.4021
  163loPI   C1A 2599   2.861   4.011   9.687 -0.0160  0.2437 -0.1316
  163loPI   C2A 2600   2.850   4.025   9.218  0.2497 -0.1411 -0.4252
  163loPI   C3A 2601   2.749   4.164   8.723  0.0788  0.2586  0.1164
  163loPI   C4A 2602   2.825   4.293   8.294 -0.1947 -0.1009 -0.2089
  163loPI   C5A 2603   2.797   4.008   7.989  0.1054  0.1483 -0.1449
  163loPI   C6A 2604   3.138   3.945   8.033  0.2171  0.0806  0.3643
  163loPI   C1B 2605   2.524   3.669   9.573  0.1960 -0.2461 -0.0132
  163loPI   C2B 2606   2.573   3.696   9.073  0.2495  0.0398  0.2657
  163loPI   C3B 2607   2.401   3.697   8.708 -0.0743  0.1656  0.0576
  163loPI   C4B 2608   2.406   3.985   8.345  0.0235 -0.1584 -0.0119
  164loPI    C1 2609   3.935  15.458  10.387  0.1208  0.2164  0.1993
  164loPI    C2 2610   4.097  15.134  10.557 -0.2357 -0.1501 -0.1366
  164loPI    C3 2611   3.845  15.364  10.765 -0.0215 -0.1145  0.0875
  164loPI   PO4 2612   3.894  15.416  10.193  0.1522 -0.0094  0.1306
  164loPI   GL1 2613   3.684  15.223   9.879  0.2457 -0.0177 -0.0637
  164loPI   GL2 2614   3.379  15.230   9.982 -0.2616 -0.1774  0.0321
  164loPI   C1A 2615   3.758  15.279   9.289  0.0140 -0.1563  0.0017
  164loPI   C2A 2616   3.680  15.243   8.816 -0.1258  0.2284 -0.0860
  164loPI   C3A 2617   3.629  15.321   8.414 -0.2521 -0.0952 -0.1149
  164loPI   C4A 2618   3.993  15.466   8.109  0.2366 -0.1101 -0.4001
  164loPI   C5A 2619   4.249  15.709   7.836 -0.0058  0.0103 -0.2275
  164loPI   C6A 2620   4.380  15.753   7.365  0.0218 -0.2465 -0.4451
  164loPI   C1B 2621   3.249  15.082   9.510 -0.0646  0.1011 -0.0070
  164loPI   C2B 2622   3.325  15.049   9.060  0.0417  0.2176  0.1249
  164loPI   C3B 2623   3.211  15.133   8.642  0.1896  0.1377  0.1355
  164loPI   C4B 2624   3.140  15.221   8.176  0.2060  0.1136  0.5268
  165loPI    C1 2625  18.390   2.291  10.754  0.1377 -0.0161  0.0730
  165loPI    C2 2626  18.449   2.683  10.806 -0.0328  0.0200  0.0012
  165loPI    C3 2627  18.631   2.419  11.046 -0.0227  0.1477  0.1351
  165loPI   PO4 2628  18.355   2.228  10.524  0.0303  0.1760  0.3625
  165loPI   GL1 2629  18.571   2.036  10.114 -0.1776  0.0386 -0.1299
  165loPI   GL2 2630  18.330   2.187   9.977 -0.1714  0.3647  0.0958
  165loPI   C1A 2631  18.910   2.034   9.746  0.1078 -0.2057  0.0277
  165loPI   C2A 2632  18.907   2.148   9.282 -0.0532  0.1848 -0.1706
  165loPI   C3A 2633  18.803   2.179   8.837  0.5640  0.0959 -0.2488
  165loPI   C4A 2634  18.812   2.142   8.340 -0.3017  0.3017 -0.2661
  165loPI   C5A 2635  19.020   2.382   8.106  0.2591  0.2779  0.0648
  165loPI   C6A 2636  19.106   2.815   8.121 -0.3068 -0.2350  0.0616
  165loPI   C1B 2637  18.498   2.158   9.521 -0.2126 -0.0503  0.0131
  165loPI   C2B 2638  18.371   2.366   9.199  0.0546  0.2676 -0.0745
  165loPI   C3B 2639  18.290   2.491   8.846  0.0195 -0.2457 -0.2536
  165loPI   C4B 2640  18.051   2.619   8.410  0.1722 -0.0903  0.1008
  166loPI    C1 2641   1.596   7.607  10.724  0.0691  0.0021  0.1780
  166loPI    C2 2642   1.659   7.925  10.959  0.0628  0.1697 -0.0440
  166loPI    C3 2643   1.286   7.815  10.866  0.0670  0.1484 -0.0357
  166loPI   PO4 2644   1.708   7.599  10.515 -0.3346 -0.1809  0.1589
  166loPI   GL1 2645   1.738   7.318  10.211  0.1560  0.2631  0.1351
  166loPI   GL2 2646   1.473   7.486  10.007 -0.0022  0.2387 -0.3193
  166loPI   C1A 2647   1.789   6.953   9.889 -0.0637 -0.0221 -0.1783
  166loPI   C2A 2648   1.970   6.807   9.498  0.0052 -0.3053  0.3011
  166loPI   C3A 2649   1.942   6.855   9.027 -0.1065 -0.1909 -0.0435
  166loPI   C4A 2650   1.889   6.773   8.564 -0.1172 -0.0903 -0.0047
  166loPI   C5A 2651   1.751   6.722   8.194 -0.1024  0.3650  0.1508
  166loPI   C6A 2652   1.599   7.004   7.782  0.2771 -0.3410 -0.0677
  166loPI   C1B 2653   1.591   7.281   9.531 -0.0195 -0.1472 -0.3924
  166loPI   C2B 2654   1.584   7.172   9.151 -0.0919 -0.1752 -0.0415
  166loPI   C3B 2655   1.646   7.297   8.706 -0.2038  0.0787 -0.0118
  166loPI   C4B 2656   1.477   7.327   8.212 -0.1787 -0.0676  0.2117
  167loPI    C1 2657  18.178  13.036  10.142  0.1652 -0.5356 -0.1617
  167loPI    C2 2658  18.496  12.962  10.373  0.1341 -0.0880  0.0351
  167loPI    C3 2659  18.128  12.879  10.506  0.1268  0.0154  0.0799
  167loPI   PO4 2660  18.198  12.877   9.934 -0.1966  0.1513 -0.0004
  167loPI   GL1 2661  17.988  12.898   9.635  0.0533  0.1685 -0.0495
  167loPI   GL2 2662  18.002  13.255   9.552  0.1962 -0.0300  0.2022
  167loPI   C1A 2663  17.722  12.754   9.262 -0.0399 -0.0544  0.0136
  167loPI   C2A 2664  17.743  12.805   8.796 -0.0801 -0.3576  0.1026
  167loPI   C3A 2665  17.857  12.802   8.354  0.0973 -0.2069  0.1693
  167loPI   C4A 2666  17.713  12.610   7.953  0.3470 -0.0751 -0.0313
  167loPI   C5A 2667  17.546  12.358   7.931 -0.1607 -0.0268  0.1358
  167loPI   C6A 2668  17.262  12.058   7.858 -0.1231  0.1080 -0.0499
  167loPI   C1B 2669  18.089  13.053   9.062 -0.2424  0.3475 -0.2529
  167loPI   C2B 2670  18.160  13.089   8.571 -0.1617  0.1457 -0.0323
  167loPI   C3B 2671  18.318  13.013   8.167 -0.0303 -0.2298 -0.2064
  167loPI   C4B 2672  18.119  12.954   7.816  0.2079 -0.1494  0.0428
  168loPI    C1 2673   0.580   6.255  10.844  0.2533 -0.1134  0.0975
  168loPI    C2 2674   0.749   5.900  10.915  0.1732 -0.1087  0.3186
  168loPI    C3 2675   0.497   6.058  11.182 -0.0558 -0.0411  0.0662
  168loPI   PO4 2676   0.452   6.288  10.592 -0.4392  0.0267 -0.0628
  168loPI   GL1 2677   0.301   6.451  10.189 -0.1399 -0.0864  0.0355
  168loPI   GL2 2678   0.279   6.847  10.104 -0.0601  0.0543 -0.0067
  168loPI   C1A 2679   0.559   6.475   9.716  0.1568 -0.0572  0.2713
  168loPI   C2A 2680   0.442   6.625   9.414 -0.1996 -0.0875  0.2886
  168loPI   C3A 2681   0.414   6.661   9.001  0.4119  0.2424 -0.2869
  168loPI   C4A 2682   0.327   6.718   8.545  0.0919  0.0181 -0.2498
  168loPI   C5A 2683   0.318   6.372   8.356  0.1814  0.0485 -0.0295
  168loPI   C6A 2684   0.332   6.060   8.059 -0.0798  0.2509  0.2895
  168loPI   C1B 2685   0.072   6.854   9.694 -0.1694  0.0246  0.1797
  168loPI   C2B 2686  -0.008   6.732   9.271  0.2302 -0.0505 -0.1934
  168loPI   C3B 2687  -0.027   6.819   8.833 -0.0866  0.0041 -0.1715
  168loPI   C4B 2688  -0.081   6.618   8.346 -0.0524  0.2814  0.0636
  169loPI    C1 2689   5.494  14.789  10.254  0.0001  0.4478 -0.1329
  169loPI    C2 2690   5.831  14.734  10.463 -0.1378  0.0873  0.0022
  169loPI    C3 2691   5.490  14.825  10.652 -0.1560  0.2740 -0.1175
  169loPI   PO4 2692   5.527  14.767   9.937  0.1896  0.0012  0.0593
  169loPI   GL1 2693   5.546  14.448   9.708  0.0256  0.1596  0.0504
  169loPI   GL2 2694   5.911  14.382   9.671  0.0299  0.1624 -0.1233
  169loPI   C1A 2695   5.416  14.487   9.258  0.0668  0.0861 -0.3451
  169loPI   C2A 2696   5.465  14.790   8.838 -0.2814  0.1143  0.0802
  169loPI   C3A 2697   5.284  14.792   8.364  0.1424  0.2312 -0.3619
  169loPI   C4A 2698   4.979  14.779   8.056  0.0198  0.3244  0.2418
  169loPI   C5A 2699   4.976  15.049   7.686  0.0304  0.1012 -0.0269
  169loPI   C6A 2700   5.159  15.192   7.332 -0.1120 -0.0220  0.1123
  169loPI   C1B 2701   5.931  14.329   9.235 -0.3343 -0.2762  0.2318
  169loPI   C2B 2702   5.673  14.261   8.864  0.1072  0.2232 -0.0291
  169loPI   C3B 2703   5.255  14.364   8.590  0.0943 -0.1903  0.2211
  169loPI   C4B 2704   5.144  14.230   8.188  0.0148 -0.3167  0.0938
  170loPI    C1 2705  15.579  16.438  10.184  0.0072 -0.2657  0.0128
  170loPI    C2 2706  15.827  16.507  10.490 -0.0446 -0.0312  0.0039
  170loPI    C3 2707  15.458  16.367  10.558 -0.0709  0.0609  0.0526
  170loPI   PO4 2708  15.758  16.431  10.013  0.0409 -0.0669  0.1718
  170loPI   GL1 2709  15.606  16.431   9.566 -0.0284 -0.0163 -0.1294
  170loPI   GL2 2710  15.837  16.366   9.455  0.1565  0.3631  0.0315
  170loPI   C1A 2711  15.368  16.614   9.216 -0.0213 -0.1475  0.1213
  170loPI   C2A 2712  15.344  16.735   8.812  0.1722  0.1359  0.2026
  170loPI   C3A 2713  15.219  16.896   8.390  0.1252  0.0839  0.0848
  170loPI   C4A 2714  15.160  17.043   7.944 -0.1958  0.3681 -0.1831
  170loPI   C5A 2715  15.160  17.195   7.529 -0.1311  0.0737  0.5261
  170loPI   C6A 2716  15.085  17.130   7.090 -0.2671  0.0672  0.3469
  170loPI   C1B 2717  15.817  16.395   9.027 -0.1243 -0.0199 -0.2200
  170loPI   C2B 2718  15.725  16.484   8.618  0.1555  0.0870 -0.0486
  170loPI   C3B 2719  15.626  16.505   8.180 -0.0514 -0.0880  0.0557
  170loPI   C4B 2720  15.531  16.266   7.796  0.3756  0.0219  0.0131
  171loPI    C1 2721  13.759   1.900  10.732 -0.2599 -0.0795  0.0465
  171loPI    C2 2722  13.487   1.927  11.024  0.0008  0.0641  0.2811
  171loPI    C3 2723  13.876   1.909  11.114  0.0585 -0.4925 -0.0337
  171loPI   PO4 2724  13.675   2.037  10.491 -0.0273 -0.1706 -0.2263
  171loPI   GL1 2725  13.814   1.949  10.081 -0.2221 -0.2015 -0.0513
  171loPI   GL2 2726  13.821   2.231   9.980 -0.1233 -0.0268 -0.0038
  171loPI   C1A 2727  13.644   1.943   9.635  0.0011 -0.1444  0.3141
  171loPI   C2A 2728  13.478   1.958   9.263  0.1418  0.0124 -0.1095
  171loPI   C3A 2729  13.238   1.804   8.904 -0.1647  0.0093  0.1593
  171loPI   C4A 2730  13.192   1.729   8.427  0.1109  0.0814 -0.1725
  171loPI   C5A 2731  13.356   1.512   8.087  0.0400 -0.2068 -0.2726
  171loPI   C6A 2732  13.298   1.085   7.974 -0.3003 -0.0173  0.3392
  171loPI   C1B 2733  13.739   2.461   9.683 -0.3136 -0.1271  0.4278
  171loPI   C2B 2734  13.647   2.431   9.138  0.0534 -0.1215 -0.0791
  171loPI   C3B 2735  13.472   2.209   8.756  0.0513 -0.1369 -0.1052
  171loPI   C4B 2736  13.478   2.155   8.205 -0.1400  0.1060  0.1070
  172loPI    C1 2737  11.506   0.237  10.707  0.2851  0.0143 -0.1180
  172loPI    C2 2738  11.737   0.414  10.981 -0.2040  0.1029  0.2517
  172loPI    C3 2739  11.437   0.617  10.812 -0.2817 -0.1378  0.0965
  172loPI   PO4 2740  11.690   0.164  10.397 -0.2839 -0.0629 -0.3370
  172loPI   GL1 2741  11.462   0.300  10.030  0.2406 -0.1717  0.0012
  172loPI   GL2 2742  11.759   0.475   9.883  0.3104 -0.0622  0.1436
  172loPI   C1A 2743  11.527   0.012   9.638  0.1203 -0.0084 -0.3733
  172loPI   C2A 2744  11.528   0.025   9.156 -0.0909 -0.2820  0.0563
  172loPI   C3A 2745  11.288   0.173   8.898  0.0027 -0.3083 -0.1926
  172loPI   C4A 2746  11.188   0.318   8.506 -0.0893  0.1808  0.1179
  172loPI   C5A 2747  11.030   0.345   8.115 -0.2415  0.1303  0.1714
  172loPI   C6A 2748  10.692   0.162   7.881 -0.0693 -0.1526  0.4114
  172loPI   C1B 2749  11.685   0.629   9.459 -0.3596  0.0214  0.4601
  172loPI   C2B 2750  11.614   0.566   8.976 -0.2211  0.1438 -0.2469
  172loPI   C3B 2751  11.699   0.489   8.511  0.2936 -0.2980 -0.0553
  172loPI   C4B 2752  11.536   0.307   8.119  0.2111  0.1357 -0.3702
  173loPI    C1 2753   2.941  10.954  10.691  0.0002 -0.1078  0.0228
  173loPI    C2 2754   2.873  11.261  10.939  0.1893 -0.2619  0.2709
  173loPI    C3 2755   2.588  10.987  10.876 -0.1132  0.1483 -0.2317
  173loPI   PO4 2756   3.027  10.969  10.558 -0.4200 -0.0140  0.0164
  173loPI   GL1 2757   2.896  11.021  10.134 -0.2311  0.4572 -0.0680
  173loPI   GL2 2758   2.532  11.188  10.021 -0.3481  0.0205  0.2939
  173loPI   C1A 2759   3.147  10.955   9.746 -0.0714 -0.5488 -0.2168
  173loPI   C2A 2760   3.321  10.857   9.619  0.0421  0.0803  0.3835
  173loPI   C3A 2761   3.355  10.721   9.221  0.2256 -0.2236  0.2296
  173loPI   C4A 2762   3.443  10.631   8.792  0.1444 -0.0819  0.0674
  173loPI   C5A 2763   3.349  10.479   8.370  0.3244  0.0945  0.0468
  173loPI   C6A 2764   3.509  10.459   7.934 -0.1481  0.0502 -0.0583
  173loPI   C1B 2765   2.670  10.953   9.653 -0.0808  0.0255 -0.3154
  173loPI   C2B 2766   2.881  10.976   9.290 -0.1555 -0.3228 -0.1238
  173loPI   C3B 2767   2.942  10.879   8.924  0.0717 -0.3385 -0.2076
  173loPI   C4B 2768   3.067  10.843   8.497 -0.2096  0.1538  0.2194
  174loPI    C1 2769  16.477  15.889  10.368  0.0757 -0.3237  0.1734
  174loPI    C2 2770  16.753  16.099  10.567  0.0731 -0.2346  0.0839
  174loPI    C3 2771  16.647  15.735  10.696  0.1710 -0.2345  0.1664
  174loPI   PO4 2772  16.453  15.974  10.050  0.3286  0.1071  0.1044
  174loPI   GL1 2773  16.670  16.024   9.526  0.1582  0.0386 -0.2350
  174loPI   GL2 2774  16.806  15.696   9.567  0.2067 -0.0339 -0.0878
  174loPI   C1A 2775  16.768  15.957   9.071 -0.1938  0.0009 -0.0957
  174loPI   C2A 2776  16.752  15.926   8.590 -0.1863 -0.0474 -0.1551
  174loPI   C3A 2777  16.667  15.932   8.195  0.0415 -0.0470  0.2848
  174loPI   C4A 2778  16.383  15.753   7.934  0.0437  0.3289 -0.1094
  174loPI   C5A 2779  16.322  15.897   7.535 -0.1813 -0.0996  0.0835
  174loPI   C6A 2780  16.238  16.286   7.294 -0.0092  0.0189  0.0437
  174loPI   C1B 2781  17.069  15.591   9.280  0.0151  0.2776 -0.1723
  174loPI   C2B 2782  17.095  15.585   8.831 -0.0635  0.0346 -0.2204
  174loPI   C3B 2783  17.111  15.689   8.369 -0.1793  0.1176 -0.2268
  174loPI   C4B 2784  17.371  15.602   8.032 -0.1027  0.1292 -0.2929
  175loPI    C1 2785  16.100  11.576  10.533  0.0414 -0.5058  0.0566
  175loPI    C2 2786  15.739  11.580  10.705 -0.1336  0.3115 -0.2840
  175loPI    C3 2787  16.046  11.767  10.881  0.0502 -0.0918 -0.1635
  175loPI   PO4 2788  16.026  11.360  10.271 -0.2331  0.0923 -0.3549
  175loPI   GL1 2789  16.360  11.132   9.996 -0.1257 -0.0206 -0.1655
  175loPI   GL2 2790  16.125  11.063   9.851 -0.1124 -0.0835 -0.0341
  175loPI   C1A 2791  16.423  11.167   9.483  0.4106  0.1421 -0.0964
  175loPI   C2A 2792  16.268  11.129   9.089  0.0058  0.1074  0.0607
  175loPI   C3A 2793  16.249  11.118   8.712  0.0961  0.0521  0.2207
  175loPI   C4A 2794  16.314  11.099   8.330  0.1536 -0.0200 -0.4182
  175loPI   C5A 2795  16.264  10.765   8.062 -0.2327 -0.3039  0.1687
  175loPI   C6A 2796  16.234  10.387   7.829  0.0550  0.1638  0.3179
  175loPI   C1B 2797  15.955  10.967   9.454 -0.1042 -0.1467 -0.0076
  175loPI   C2B 2798  15.808  11.042   9.050  0.1284  0.0415  0.0774
  175loPI   C3B 2799  15.741  11.132   8.571 -0.3012 -0.2349  0.1038
  175loPI   C4B 2800  15.835  10.953   8.221  0.1843  0.0817 -0.2033
  176loPI    C1 2801  15.649   2.933  10.433 -0.0860  0.1961  0.1997
  176loPI    C2 2802  15.400   2.816  10.723 -0.0295  0.1878  0.2450
  176loPI    C3 2803  15.531   3.193  10.713  0.0792  0.1521  0.3114
  176loPI   PO4 2804  15.526   2.839  10.244  0.0757  0.0433 -0.0577
  176loPI   GL1 2805  15.569   3.088   9.928 -0.0985 -0.0916  0.4898
  176loPI   GL2 2806  15.188   3.209  10.075  0.2167 -0.2163  0.2444
  176loPI   C1A 2807  15.591   3.169   9.524  0.0612  0.2583 -0.1508
  176loPI   C2A 2808  15.584   3.130   9.052  0.1041 -0.2025  0.0850
  176loPI   C3A 2809  15.355   3.206   8.718 -0.1084 -0.0998  0.1748
  176loPI   C4A 2810  15.554   3.327   8.305 -0.2143 -0.1999 -0.1737
  176loPI   C5A 2811  15.912   3.601   8.117 -0.1281  0.0426  0.0654
  176loPI   C6A 2812  16.223   3.726   7.853  0.2326  0.0984  0.0540
  176loPI   C1B 2813  15.184   3.359   9.632 -0.1161 -0.2036 -0.3030
  176loPI   C2B 2814  15.326   3.522   9.201 -0.1841  0.1624 -0.0214
  176loPI   C3B 2815  15.440   3.643   8.909  0.3362 -0.0877 -0.0673
  176loPI   C4B 2816  15.682   3.804   8.476  0.5263  0.1212 -0.1572
  177loPI    C1 2817   0.365  17.658  10.250  0.1757  0.0216 -0.1242
  177loPI    C2 2818   0.145  17.943  10.075  0.1281  0.0374 -0.0388
  177loPI    C3 2819   0.247  17.976  10.461 -0.2311 -0.2611  0.0879
  177loPI   PO4 2820   0.325  17.419  10.006  0.0691  0.4257 -0.2343
  177loPI   GL1 2821   0.409  17.389   9.652  0.0100  0.0109  0.0338
  177loPI   GL2 2822   0.308  16.987   9.750  0.2558  0.0694 -0.0630
  177loPI   C1A 2823   0.621  17.236   9.233 -0.2975  0.0285 -0.0838
  177loPI   C2A 2824   0.763  17.248   8.793  0.1535 -0.0404  0.0772
  177loPI   C3A 2825   0.720  17.338   8.292  0.0122 -0.0432 -0.0846
  177loPI   C4A 2826   0.407  17.514   7.993 -0.0305  0.0043 -0.0970
  177loPI   C5A 2827   0.048  17.458   7.857 -0.0913  0.0901  0.2325
  177loPI   C6A 2828  -0.088  17.043   7.749  0.2160  0.1747  0.0898
  177loPI   C1B 2829   0.300  16.907   9.381  0.2344  0.3211 -0.1569
  177loPI   C2B 2830   0.415  16.914   8.919 -0.0416  0.1580 -0.0644
  177loPI   C3B 2831   0.427  16.911   8.514  0.1628  0.0867  0.0446
  177loPI   C4B 2832   0.437  16.871   8.045 -0.0766 -0.0614 -0.1571
  178loPI    C1 2833   9.082  11.540  10.173 -0.2181 -0.2306 -0.1505
  178loPI    C2 2834   9.444  11.513  10.341 -0.1802  0.0723 -0.1787
  178loPI    C3 2835   9.159  11.249  10.437 -0.0148 -0.0446 -0.0014
  178loPI   PO4 2836   9.136  11.571   9.898 -0.0525 -0.2767  0.1484
  178loPI   GL1 2837   8.947  11.509   9.578 -0.1950 -0.2501 -0.0496
  178loPI   GL2 2838   8.746  11.302   9.524  0.2407 -0.1528 -0.1003
  178loPI   C1A 2839   9.081  11.786   9.270  0.1868  0.1351  0.0090
  178loPI   C2A 2840   8.968  11.779   8.804 -0.2459 -0.0762  0.1857
  178loPI   C3A 2841   9.039  11.787   8.301  0.1953  0.1420 -0.2240
  178loPI   C4A 2842   9.127  12.019   7.912  0.2779  0.1725  0.1089
  178loPI   C5A 2843   9.193  12.397   7.560  0.0776  0.1835 -0.0073
  178loPI   C6A 2844   9.354  12.655   7.368 -0.0056 -0.0159  0.2240
  178loPI   C1B 2845   8.557  11.472   9.168 -0.0953  0.1688  0.0280
  178loPI   C2B 2846   8.592  11.441   8.783 -0.2090 -0.0364 -0.0564
  178loPI   C3B 2847   8.534  11.373   8.414  0.2966 -0.0083 -0.2910
  178loPI   C4B 2848   8.147  11.584   8.416  0.0697  0.1470 -0.0655
  179loPI    C1 2849  12.354  13.510  10.214 -0.0413  0.1691 -0.1336
  179loPI    C2 2850  12.558  13.828  10.345  0.1718  0.1472 -0.4020
  179loPI    C3 2851  12.169  13.792  10.429  0.2937  0.1397  0.2033
  179loPI   PO4 2852  12.553  13.461   9.876  0.0916 -0.0155  0.1370
  179loPI   GL1 2853  12.821  13.271   9.462 -0.2079 -0.0863 -0.1187
  179loPI   GL2 2854  12.955  13.525   9.573 -0.0876  0.0465  0.0938
  179loPI   C1A 2855  12.685  13.260   9.115 -0.3929  0.1939  0.2803
  179loPI   C2A 2856  12.865  13.143   8.661  0.0346 -0.0310  0.3907
  179loPI   C3A 2857  12.939  13.093   8.280 -0.2142 -0.0785 -0.2700
  179loPI   C4A 2858  12.897  13.034   7.777  0.0833 -0.0474 -0.0887
  179loPI   C5A 2859  12.970  12.691   7.578 -0.1796 -0.1647  0.4249
  179loPI   C6A 2860  13.187  12.707   7.231 -0.0524  0.0573  0.3406
  179loPI   C1B 2861  12.987  13.663   9.149  0.2343 -0.0323  0.3424
  179loPI   C2B 2862  13.142  13.522   8.749 -0.2687  0.2015  0.0298
  179loPI   C3B 2863  13.316  13.441   8.312 -0.3026  0.1631 -0.0889
  179loPI   C4B 2864  13.436  13.329   7.941 -0.4441  0.2308 -0.1774
  180loPI    C1 2865  14.491  18.078  10.217  0.1000 -0.2217  0.1243
  180loPI    C2 2866  14.726  17.774  10.104  0.1422 -0.2007  0.1559
  180loPI    C3 2867  14.823  17.995  10.423  0.1306 -0.1315  0.1117
  180loPI   PO4 2868  14.493  18.194   9.908  0.3246  0.1751  0.1612
  180loPI   GL1 2869  14.256  18.216   9.518  0.3333 -0.3496  0.3113
  180loPI   GL2 2870  14.130  17.910   9.636 -0.1393  0.2071 -0.0168
  180loPI   C1A 2871  14.140  18.444   9.118 -0.3398 -0.0347 -0.3773
  180loPI   C2A 2872  14.120  18.658   8.724 -0.0009 -0.1172 -0.0125
  180loPI   C3A 2873  13.983  18.324   8.406 -0.0513 -0.0637 -0.0155
  180loPI   C4A 2874  13.815  18.338   8.043 -0.0886  0.0128 -0.1190
  180loPI   C5A 2875  13.643  18.657   7.743 -0.2970  0.1891  0.0621
  180loPI   C6A 2876  13.337  18.676   7.729  0.1137  0.1332 -0.1747
  180loPI   C1B 2877  14.060  17.918   9.168  0.2530 -0.0710  0.2030
  180loPI   C2B 2878  14.026  18.074   8.784  0.3679 -0.3571  0.0635
  180loPI   C3B 2879  14.283  17.959   8.409 -0.1070  0.0384 -0.3378
  180loPI   C4B 2880  14.538  18.003   7.984  0.1403  0.1729 -0.2213
  181loPI    C1 2881   0.014  14.604  10.123 -0.0748  0.0277 -0.1083
  181loPI    C2 2882  -0.222  14.346  10.317 -0.0558  0.0385 -0.0706
  181loPI    C3 2883  -0.378  14.677  10.157 -0.0989 -0.0509 -0.2153
  181loPI   PO4 2884   0.206  14.427  10.002  0.1090 -0.1349 -0.3929
  181loPI   GL1 2885   0.364  14.206   9.559  0.2832  0.0802 -0.0666
  181loPI   GL2 2886  -0.020  14.078   9.432  0.0877 -0.0578 -0.3303
  181loPI   C1A 2887   0.411  14.111   9.102 -0.2056  0.3760 -0.2015
  181loPI   C2A 2888   0.522  14.146   8.617 -0.0152  0.0340  0.0593
  181loPI   C3A 2889   0.550  14.139   8.189 -0.3539  0.0691 -0.1625
  181loPI   C4A 2890   0.767  14.304   7.799  0.2697 -0.0877  0.1199
  181loPI   C5A 2891   1.172  14.169   7.526  0.2502  0.3768 -0.1458
  181loPI   C6A 2892   1.513  14.029   7.266  0.1757  0.0195  0.3083
  181loPI   C1B 2893  -0.055  13.792   9.144 -0.1489  0.2039  0.0409
  181loPI   C2B 2894   0.071  13.785   8.737  0.0276 -0.0980  0.0517
  181loPI   C3B 2895   0.167  13.875   8.356  0.4221 -0.1769  0.0190
  181loPI   C4B 2896   0.049  13.465   8.002  0.0668 -0.0051 -0.2572
  182loPI    C1 2897  14.780   4.229  10.966  0.1542 -0.0052  0.1575
  182loPI    C2 2898  14.838   3.855  10.837  0.0703  0.0013  0.0994
  182loPI    C3 2899  14.534   3.936  11.084 -0.0376  0.0672 -0.0541
  182loPI   PO4 2900  14.881   4.400  10.776  0.1931  0.5482  0.4016
  182loPI   GL1 2901  14.879   4.228  10.461 -0.3105 -0.1953  0.2475
  182loPI   GL2 2902  14.549   4.092  10.453 -0.0349 -0.3992 -0.1812
  182loPI   C1A 2903  14.991   4.536   9.993 -0.0587 -0.0504 -0.3506
  182loPI   C2A 2904  14.856   4.531   9.676  0.0148 -0.0341  0.3330
  182loPI   C3A 2905  14.744   4.415   9.275 -0.0125 -0.0543  0.3094
  182loPI   C4A 2906  14.638   4.531   8.886  0.0646 -0.0519  0.1967
  182loPI   C5A 2907  14.496   4.657   8.511 -0.0414 -0.1155 -0.0730
  182loPI   C6A 2908  14.323   4.672   8.141  0.1648  0.0079 -0.2522
  182loPI   C1B 2909  14.525   4.345  10.033  0.3108 -0.0935  0.1938
  182loPI   C2B 2910  14.346   4.304   9.515 -0.0565  0.1054  0.0030
  182loPI   C3B 2911  14.173   4.336   9.059 -0.2141 -0.2272 -0.0536
  182loPI   C4B 2912  14.246   4.240   8.580 -0.0177 -0.0276  0.1905
  183loPI    C1 2913  11.911   7.826  10.161 -0.1404 -0.0482 -0.1003
  183loPI    C2 2914  11.927   8.220  10.227  0.1520 -0.0775  0.0193
  183loPI    C3 2915  11.776   7.977  10.506 -0.0228 -0.0524 -0.0520
  183loPI   PO4 2916  11.771   7.795  10.017 -0.1376 -0.1626  0.3794
  183loPI   GL1 2917  12.014   7.698   9.609 -0.2672  0.0937  0.0658
  183loPI   GL2 2918  12.211   7.892   9.661 -0.4899  0.0157 -0.2400
  183loPI   C1A 2919  11.951   7.782   9.202 -0.0329  0.0496 -0.0125
  183loPI   C2A 2920  11.961   7.713   8.812 -0.1089  0.0485  0.4220
  183loPI   C3A 2921  11.979   7.599   8.410 -0.1475 -0.0446 -0.1026
  183loPI   C4A 2922  11.723   7.374   8.194  0.0837  0.0183 -0.3749
  183loPI   C5A 2923  11.399   7.041   8.153  0.3988 -0.1660 -0.0051
  183loPI   C6A 2924  10.949   6.937   8.014  0.0498 -0.0523  0.1312
  183loPI   C1B 2925  12.364   8.013   9.287 -0.3073  0.1500 -0.0203
  183loPI   C2B 2926  12.348   8.401   9.045 -0.0814 -0.0115  0.0456
  183loPI   C3B 2927  12.280   8.512   8.710  0.3629 -0.1877  0.4593
  183loPI   C4B 2928  12.218   8.602   8.318 -0.1073 -0.1881 -0.1244
  184loPI    C1 2929   7.267  15.319   9.830  0.0964  0.0718  0.0945
  184loPI    C2 2930   7.107  15.263  10.192  0.3128 -0.1428  0.1598
  184loPI    C3 2931   7.453  15.460  10.155  0.2114  0.0174  0.0528
  184loPI   PO4 2932   7.102  15.370   9.693 -0.3462 -0.1034 -0.1169
  184loPI   GL1 2933   7.012  15.310   9.262 -0.2014 -0.0588  0.4039
  184loPI   GL2 2934   6.719  15.530   9.137  0.0089  0.0790  0.2214
  184loPI   C1A 2935   7.084  15.063   8.957  0.0647  0.1087  0.1945
  184loPI   C2A 2936   6.879  15.116   8.609  0.2867 -0.1012 -0.1572
  184loPI   C3A 2937   6.757  14.994   8.186  0.1262  0.1552  0.1299
  184loPI   C4A 2938   6.591  15.013   7.884  0.2178 -0.4750  0.1906
  184loPI   C5A 2939   6.344  14.944   7.438  0.1578  0.0451 -0.2344
  184loPI   C6A 2940   6.027  14.686   7.142  0.2249 -0.1505  0.0889
  184loPI   C1B 2941   6.609  15.503   8.731  0.0151 -0.0464 -0.0689
  184loPI   C2B 2942   6.634  15.509   8.279  0.1281  0.0828  0.0890
  184loPI   C3B 2943   6.866  15.407   7.950 -0.2272  0.0079  0.0208
  184loPI   C4B 2944   6.854  15.246   7.509  0.1141 -0.0612  0.1702
  185loPI    C1 2945  12.645   8.228   9.924 -0.0412  0.0339 -0.0723
  185loPI    C2 2946  12.260   8.336   9.896 -0.0647 -0.0596 -0.1130
  185loPI    C3 2947  12.421   8.261  10.255 -0.0915 -0.0457 -0.0980
  185loPI   PO4 2948  12.729   8.005   9.852  0.1490 -0.3218  0.0452
  185loPI   GL1 2949  12.838   8.014   9.500 -0.2167  0.0282 -0.0299
  185loPI   GL2 2950  12.990   7.733   9.438  0.0885 -0.0064 -0.0912
  185loPI   C1A 2951  12.770   8.136   9.046  0.1119 -0.3361 -0.1770
  185loPI   C2A 2952  12.356   8.062   8.721 -0.3020  0.1531 -0.2290
  185loPI   C3A 2953  12.371   8.038   8.260  0.0241  0.2471 -0.1209
  185loPI   C4A 2954  12.765   8.024   8.054 -0.1447  0.0337 -0.2649
  185loPI   C5A 2955  13.231   8.043   7.838  0.2262 -0.4384 -0.0295
  185loPI   C6A 2956  13.601   8.020   7.609  0.0249 -0.0563  0.0427
  185loPI   C1B 2957  12.845   7.636   8.984 -0.2119 -0.2281 -0.2316
  185loPI   C2B 2958  12.832   7.897   8.560  0.0073 -0.0758 -0.0819
  185loPI   C3B 2959  12.740   8.299   8.496  0.1097 -0.1603 -0.1522
  185loPI   C4B 2960  12.824   8.524   8.771  0.0057 -0.1581  0.1769
  186loPI    C1 2961  12.427   9.970  10.166 -0.3174  0.2978 -0.1549
  186loPI    C2 2962  12.400   9.589  10.285  0.2435  0.2970 -0.0040
  186loPI    C3 2963  12.070   9.813  10.256 -0.1207 -0.2547 -0.2976
  186loPI   PO4 2964  12.494   9.920   9.962 -0.1405 -0.0215 -0.1678
  186loPI   GL1 2965  12.362  10.030   9.590 -0.1539  0.0063  0.2576
  186loPI   GL2 2966  12.015  10.123   9.469  0.0505 -0.3097 -0.0943
  186loPI   C1A 2967  12.457   9.963   9.131 -0.0108 -0.0139 -0.2239
  186loPI   C2A 2968  12.394   9.896   8.758  0.2572  0.1132 -0.3122
  186loPI   C3A 2969  12.476   9.838   8.310 -0.1595 -0.2161  0.0971
  186loPI   C4A 2970  12.709   9.625   7.908 -0.1070 -0.2331  0.0981
  186loPI   C5A 2971  12.820   9.710   7.458 -0.2142  0.1054 -0.1582
  186loPI   C6A 2972  12.628   9.719   6.990  0.1164  0.0419  0.0659
  186loPI   C1B 2973  11.978   9.916   9.009  0.1133 -0.1739  0.2270
  186loPI   C2B 2974  11.984   9.643   8.677 -0.0726  0.1012  0.0814
  186loPI   C3B 2975  11.922   9.640   8.219 -0.0287 -0.0191 -0.0943
  186loPI   C4B 2976  12.132   9.394   7.869 -0.1244 -0.2047 -0.1647
  187loPI    C1 2977  11.953   3.672  10.500  0.0381 -0.1064 -0.2232
  187loPI    C2 2978  12.278   3.469  10.613 -0.0910 -0.1476  0.0822
  187loPI    C3 2979  11.915   3.338  10.716 -0.1870  0.1072  0.0745
  187loPI   PO4 2980  11.969   3.731  10.294 -0.0263  0.1263 -0.2830
  187loPI   GL1 2981  12.056   3.723   9.928 -0.1609  0.3718 -0.0531
  187loPI   GL2 2982  11.988   3.535   9.786  0.1656 -0.0056 -0.2393
  187loPI   C1A 2983  12.446   3.695   9.666  0.0285 -0.1794 -0.0654
  187loPI   C2A 2984  12.222   3.609   9.375 -0.0672  0.1818 -0.3542
  187loPI   C3A 2985  11.964   3.610   8.987  0.2543 -0.1963 -0.0223
  187loPI   C4A 2986  11.647   3.541   8.756  0.1923 -0.0028  0.0751
  187loPI   C5A 2987  11.661   3.499   8.280  0.1414 -0.1563  0.0187
  187loPI   C6A 2988  11.816   3.327   7.961 -0.2048  0.0326  0.0324
  187loPI   C1B 2989  11.740   3.671   9.445  0.1505  0.5282  0.0073
  187loPI   C2B 2990  11.415   3.841   9.126  0.1417 -0.0441 -0.0258
  187loPI   C3B 2991  11.380   3.981   8.776  0.0850  0.1504 -0.1502
  187loPI   C4B 2992  11.237   4.239   8.573 -0.0419 -0.0600  0.2293
  188loPI    C1 2993   8.793   0.086  10.325  0.2158 -0.3383 -0.0212
  188loPI    C2 2994   8.527  -0.115  10.546  0.0417 -0.1382 -0.0452
  188loPI    C3 2995   8.756   0.166  10.715 -0.0644 -0.0120 -0.1093
  188loPI   PO4 2996   8.760   0.160  10.079 -0.0495  0.2861 -0.1006
  188loPI   GL1 2997   8.885   0.010   9.603 -0.1651  0.0072  0.0210
  188loPI   GL2 2998   8.799  -0.223   9.396  0.1592  0.3523 -0.2601
  188loPI   C1A 2999   9.151   0.169   9.223  0.0402  0.4403 -0.1835
  188loPI   C2A 3000   9.071   0.205   8.776  0.0010  0.3899  0.1377
  188loPI   C3A 3001   9.300   0.388   8.410 -0.0100 -0.0909 -0.0683
  188loPI   C4A 3002   9.313   0.802   8.034  0.1805  0.0692  0.1116
  188loPI   C5A 3003   9.400   0.755   7.664 -0.0457 -0.2919  0.2221
  188loPI   C6A 3004   9.656   0.584   7.477  0.1704  0.1187 -0.1917
  188loPI   C1B 3005   8.749  -0.054   9.028 -0.0111  0.0465  0.0602
  188loPI   C2B 3006   8.673  -0.018   8.579 -0.2991  0.2940  0.0076
  188loPI   C3B 3007   8.498  -0.047   8.210 -0.2418 -0.1253  0.5858
  188loPI   C4B 3008   8.394  -0.276   7.868  0.0851 -0.2503 -0.4082
  189loPI    C1 3009   4.684   6.217  10.469 -0.2124 -0.0858 -0.0169
  189loPI    C2 3010   4.374   6.023  10.633 -0.0595 -0.1665  0.1808
  189loPI    C3 3011   4.554   6.319  10.833 -0.0417 -0.0837  0.0441
  189loPI   PO4 3012   4.659   6.113  10.211  0.0487  0.0587 -0.0759
  189loPI   GL1 3013   4.551   6.044   9.780  0.0293 -0.2356 -0.0778
  189loPI   GL2 3014   4.330   5.839   9.838  0.3672  0.0718 -0.3227
  189loPI   C1A 3015   4.712   6.071   9.409  0.0669 -0.1099  0.0410
  189loPI   C2A 3016   4.670   6.103   8.885 -0.0441 -0.0743 -0.2097
  189loPI   C3A 3017   4.628   6.157   8.397 -0.0322  0.0615 -0.0766
  189loPI   C4A 3018   4.831   6.498   8.099  0.4485 -0.1068  0.0188
  189loPI   C5A 3019   4.769   6.557   7.727  0.2052  0.0874  0.5067
  189loPI   C6A 3020   4.544   6.548   7.366 -0.0694 -0.1047  0.0131
  189loPI   C1B 3021   4.242   5.828   9.360  0.0122  0.1588  0.0383
  189loPI   C2B 3022   4.254   5.923   9.002 -0.4030 -0.0780 -0.0122
  189loPI   C3B 3023   4.200   5.778   8.607 -0.2216  0.2449  0.2776
  189loPI   C4B 3024   4.022   5.516   8.344 -0.3775 -0.1437  0.1454
  190loPI    C1 3025  11.337  17.745  10.719  0.0157 -0.1849 -0.1543
  190loPI    C2 3026  11.719  17.737  10.837 -0.0524  0.0036  0.0871
  190loPI    C3 3027  11.514  17.396  10.800  0.0573 -0.0790  0.2315
  190loPI   PO4 3028  11.328  17.937  10.535 -0.2452 -0.1935  0.2578
  190loPI   GL1 3029  11.405  17.942  10.130 -0.3238 -0.0094 -0.1362
  190loPI   GL2 3030  11.207  18.027   9.819  0.1464 -0.0230  0.1026
  190loPI   C1A 3031  11.678  17.978   9.692 -0.3453 -0.4254 -0.0174
  190loPI   C2A 3032  11.699  18.040   9.296 -0.2590 -0.0530 -0.0754
  190loPI   C3A 3033  11.750  18.115   8.856  0.0207  0.3510 -0.0061
  190loPI   C4A 3034  12.028  18.073   8.547 -0.1431 -0.2256 -0.1781
  190loPI   C5A 3035  12.178  18.405   8.394  0.0865 -0.2388  0.0520
  190loPI   C6A 3036  12.548  18.507   8.163 -0.1305 -0.2883  0.0662
  190loPI   C1B 3037  11.227  18.067   9.294 -0.0743  0.0051  0.1144
  190loPI   C2B 3038  11.184  18.149   8.817 -0.0596 -0.1952  0.4806
  190loPI   C3B 3039  11.415  18.042   8.418  0.0897  0.0343  0.2781
  190loPI   C4B 3040  11.339  17.830   8.029 -0.4030  0.1136  0.1777
  191loPI    C1 3041  16.260   6.284  10.786 -0.2197  0.2436  0.0389
  191loPI    C2 3042  16.291   5.968  11.029 -0.0663  0.1882 -0.0517
  191loPI    C3 3043  15.953   6.181  11.021 -0.1127  0.1226  0.1269
  191loPI   PO4 3044  16.298   6.226  10.601  0.0311  0.2516 -0.5597
  191loPI   GL1 3045  16.448   6.309  10.153  0.2956 -0.0556  0.1753
  191loPI   GL2 3046  16.727   6.142  10.026  0.0115 -0.0846  0.0074
  191loPI   C1A 3047  16.296   6.213   9.721 -0.1733 -0.0986 -0.0038
  191loPI   C2A 3048  16.434   6.208   9.279 -0.0945 -0.0799 -0.0301
  191loPI   C3A 3049  16.482   6.050   8.870  0.0270  0.0098  0.2688
  191loPI   C4A 3050  16.762   6.057   8.581 -0.2476  0.0313  0.0539
  191loPI   C5A 3051  16.880   5.756   8.259 -0.0766  0.2695 -0.1251
  191loPI   C6A 3052  17.203   5.508   8.150  0.1911 -0.1827 -0.1054
  191loPI   C1B 3053  16.846   5.675   9.914 -0.0313  0.1639  0.1413
  191loPI   C2B 3054  16.968   5.440   9.531 -0.1075  0.0734  0.0355
  191loPI   C3B 3055  17.088   5.385   9.128 -0.4498  0.0096  0.1734
  191loPI   C4B 3056  17.274   5.253   8.885 -0.1658 -0.0507 -0.0578
  192loPI    C1 3057  12.716   6.759  10.563 -0.0911  0.1271  0.0249
  192loPI    C2 3058  12.457   7.020  10.719 -0.1163  0.0669  0.0844
  192loPI    C3 3059  12.705   6.818  10.958 -0.0589  0.0765  0.0335
  192loPI   PO4 3060  12.847   6.865  10.376 -0.0210 -0.0675 -0.0037
  192loPI   GL1 3061  12.901   6.684  10.032 -0.3698 -0.1924  0.1621
  192loPI   GL2 3062  13.253   6.632   9.844 -0.3919  0.2449 -0.0540
  192loPI   C1A 3063  12.897   6.769   9.553 -0.4299 -0.0563 -0.1828
  192loPI   C2A 3064  13.135   6.718   9.288 -0.2614 -0.0727  0.0025
  192loPI   C3A 3065  13.062   6.529   8.952  0.1046 -0.0238  0.3443
  192loPI   C4A 3066  13.108   6.382   8.567  0.0271  0.0165 -0.0108
  192loPI   C5A 3067  13.047   6.231   8.211  0.1188  0.1513 -0.2506
  192loPI   C6A 3068  12.801   6.425   7.887 -0.2598 -0.1844 -0.1247
  192loPI   C1B 3069  13.436   6.332   9.550 -0.1300  0.1759  0.0910
  192loPI   C2B 3070  13.524   6.396   9.158 -0.2545  0.1026 -0.0974
  192loPI   C3B 3071  13.691   6.203   8.768  0.0650  0.3648  0.0843
  192loPI   C4B 3072  13.840   5.813   8.587 -0.0097  0.0581 -0.0128
  193loPI    C1 3073   3.303   9.960  10.447 -0.0520  0.0030 -0.1118
  193loPI    C2 3074   3.504  10.170  10.722 -0.1850 -0.3111  0.2337
  193loPI    C3 3075   3.117  10.087  10.777 -0.2775 -0.1693 -0.1704
  193loPI   PO4 3076   3.440  10.043  10.267  0.0380  0.2985  0.1304
  193loPI   GL1 3077   3.763  10.086  10.005 -0.0927  0.1291  0.1672
  193loPI   GL2 3078   3.881   9.865  10.075  0.3494 -0.1197  0.3178
  193loPI   C1A 3079   3.630   9.944   9.632  0.3542  0.1445 -0.1891
  193loPI   C2A 3080   3.832   9.565   9.311 -0.1134  0.4874  0.0375
  193loPI   C3A 3081   4.126   9.304   9.070  0.3656  0.2033  0.1348
  193loPI   C4A 3082   4.329   9.124   8.664  0.0776  0.0328 -0.1457
  193loPI   C5A 3083   4.331   8.691   8.363  0.2277  0.1337 -0.2194
  193loPI   C6A 3084   4.333   8.227   8.370  0.1257 -0.3959  0.0012
  193loPI   C1B 3085   3.927   9.529   9.835 -0.2621 -0.2020 -0.1278
  193loPI   C2B 3086   3.914   9.209   9.685  0.3597  0.0262 -0.0629
  193loPI   C3B 3087   4.019   8.935   9.380 -0.2170 -0.1377 -0.2602
  193loPI   C4B 3088   4.071   8.518   9.190 -0.0388 -0.0801 -0.2507
  194loPI    C1 3089   0.670  18.016  10.720 -0.3700 -0.1553  0.0330
  194loPI    C2 3090   0.918  17.935  11.024 -0.1692 -0.1448 -0.1256
  194loPI    C3 3091   0.676  18.253  11.042  0.1203  0.0794 -0.1390
  194loPI   PO4 3092   0.744  17.831  10.480 -0.1209 -0.2546 -0.1254
  194loPI   GL1 3093   0.679  17.980  10.112 -0.0774  0.0532  0.0659
  194loPI   GL2 3094   0.895  18.134   9.965 -0.0724  0.1366 -0.1106
  194loPI   C1A 3095   0.582  17.873   9.628  0.3018  0.1181 -0.0583
  194loPI   C2A 3096   0.530  17.782   9.147  0.3531 -0.0966 -0.3744
  194loPI   C3A 3097   0.571  17.876   8.843 -0.3202 -0.3195  0.0026
  194loPI   C4A 3098   0.622  17.926   8.382  0.1826 -0.1717 -0.0861
  194loPI   C5A 3099   0.695  18.135   8.036 -0.1261 -0.0901  0.0583
  194loPI   C6A 3100   0.846  18.458   7.794 -0.0343 -0.0081 -0.1896
  194loPI   C1B 3101   0.987  18.061   9.529 -0.2390 -0.0552 -0.2980
  194loPI   C2B 3102   0.929  18.149   9.148  0.0684 -0.1074  0.1745
  194loPI   C3B 3103   0.901  18.301   8.667 -0.3769  0.0814 -0.0341
  194loPI   C4B 3104   1.125  18.206   8.244 -0.0761 -0.0726 -0.3468
  195loPI    C1 3105   9.148  17.813  10.155 -0.3891 -0.4614  0.0920
  195loPI    C2 3106   9.378  18.042  10.389 -0.2503 -0.1953 -0.2934
  195loPI    C3 3107   8.980  18.062  10.419 -0.2344 -0.1379 -0.1072
  195loPI   PO4 3108   9.365  17.731  10.014 -0.0923 -0.3256 -0.0228
  195loPI   GL1 3109   9.384  17.733   9.635  0.2006  0.1093  0.0294
  195loPI   GL2 3110   9.366  18.057   9.531  0.3246  0.1226  0.1324
  195loPI   C1A 3111   9.416  17.661   9.224  0.1446 -0.0062 -0.0143
  195loPI   C2A 3112   9.432  17.742   8.819  0.0785 -0.2247  0.1955
  195loPI   C3A 3113   9.435  17.824   8.539  0.0520  0.0226 -0.0291
  195loPI   C4A 3114   9.538  17.697   8.175 -0.1300 -0.1019  0.2145
  195loPI   C5A 3115   9.591  17.641   7.800  0.0988 -0.0741 -0.1587
  195loPI   C6A 3116   9.479  17.632   7.426 -0.1644 -0.0465  0.0352
  195loPI   C1B 3117   9.237  18.167   9.175 -0.2890  0.0679  0.3606
  195loPI   C2B 3118   9.081  18.113   8.730  0.0895 -0.3948  0.3099
  195loPI   C3B 3119   9.131  17.972   8.236  0.1591 -0.1967  0.2217
  195loPI   C4B 3120   8.883  18.175   7.963 -0.0121  0.1164 -0.1400
  196loPI    C1 3121  13.789   3.056  10.824  0.1019 -0.0471 -0.0764
  196loPI    C2 3122  13.597   3.407  10.826  0.1308 -0.0312 -0.0773
  196loPI    C3 3123  13.890   3.338  11.089  0.1813 -0.0234 -0.1315
  196loPI   PO4 3124  13.775   3.057  10.525 -0.1643 -0.1665  0.4839
  196loPI   GL1 3125  13.746   3.020  10.137  0.0834  0.0989 -0.1570
  196loPI   GL2 3126  13.581   2.726  10.057  0.3457 -0.0742 -0.0181
  196loPI   C1A 3127  13.769   3.004   9.669 -0.2934  0.0262 -0.4600
  196loPI   C2A 3128  13.552   2.885   9.292  0.0939  0.1763 -0.0876
  196loPI   C3A 3129  13.622   2.824   8.865  0.0097 -0.1233 -0.2591
  196loPI   C4A 3130  13.780   2.570   8.624  0.2119  0.2925  0.1106
  196loPI   C5A 3131  14.024   2.637   8.254  0.0760 -0.2573 -0.2118
  196loPI   C6A 3132  14.333   2.731   7.904 -0.0050  0.3234 -0.2419
  196loPI   C1B 3133  13.278   2.819   9.679 -0.0676  0.2980 -0.0021
  196loPI   C2B 3134  13.029   2.951   9.334  0.1736  0.1442 -0.1302
  196loPI   C3B 3135  12.769   3.007   8.957 -0.0644 -0.1217 -0.0577
  196loPI   C4B 3136  12.678   3.390   8.546  0.1559  0.1869 -0.1603
  197loPI    C1 3137   0.486   0.517  10.873  0.0117  0.1378 -0.0534
  197loPI    C2 3138   0.865   0.589  10.981  0.0185 -0.0429  0.0483
  197loPI    C3 3139   0.563   0.734  11.200  0.0312 -0.1938  0.1669
  197loPI   PO4 3140   0.412   0.538  10.572  0.2544 -0.1043 -0.2432
  197loPI   GL1 3141   0.367   0.448  10.152 -0.1010 -0.1705 -0.0538
  197loPI   GL2 3142   0.054   0.435   9.936 -0.1456 -0.0642  0.1358
  197loPI   C1A 3143   0.435   0.384   9.669 -0.1770  0.3133  0.1020
  197loPI   C2A 3144   0.455   0.516   9.273 -0.2181  0.0945 -0.1728
  197loPI   C3A 3145   0.449   0.539   8.848 -0.0349 -0.0080 -0.1544
  197loPI   C4A 3146   0.672   0.597   8.450 -0.1828 -0.0136 -0.0643
  197loPI   C5A 3147   0.887   0.707   8.112  0.0339 -0.0713 -0.2344
  197loPI   C6A 3148   0.930   1.027   7.732 -0.0373 -0.1435  0.0324
  197loPI   C1B 3149  -0.017   0.647   9.454  0.0956 -0.0822  0.0654
  197loPI   C2B 3150   0.038   0.742   9.017  0.0414  0.1289  0.0253
  197loPI   C3B 3151  -0.037   0.838   8.627  0.1156  0.0634 -0.1490
  197loPI   C4B 3152  -0.262   0.847   8.237 -0.0091  0.1526  0.1892
  198loPI    C1 3153   6.015  16.894   9.932 -0.0693  0.0890 -0.0865
  198loPI    C2 3154   6.002  16.765  10.310  0.1056 -0.1097 -0.1461
  198loPI    C3 3155   5.932  17.150  10.227  0.1471 -0.0484  0.0966
  198loPI   PO4 3156   6.004  16.659   9.730 -0.3076  0.0567 -0.2761
  198loPI   GL1 3157   5.960  16.534   9.280  0.1260 -0.0514  0.0895
  198loPI   GL2 3158   6.224  16.516   9.340 -0.0495  0.2942 -0.0321
  198loPI   C1A 3159   5.841  16.746   8.872 -0.0089 -0.0492 -0.1407
  198loPI   C2A 3160   5.874  16.873   8.378 -0.1959  0.2806  0.0557
  198loPI   C3A 3161   5.866  16.598   8.056  0.0129 -0.2212  0.0588
  198loPI   C4A 3162   5.982  16.580   7.593  0.0656 -0.0661  0.0741
  198loPI   C5A 3163   6.110  16.298   7.319 -0.0596  0.4263  0.0671
  198loPI   C6A 3164   6.016  16.217   6.877 -0.2970 -0.2256  0.0314
  198loPI   C1B 3165   6.363  16.483   8.973 -0.1193 -0.1869  0.6916
  198loPI   C2B 3166   6.234  16.497   8.596  0.1465  0.0932 -0.1309
  198loPI   C3B 3167   6.304  16.320   8.156 -0.2215 -0.1489  0.2141
  198loPI   C4B 3168   6.427  16.262   7.768 -0.2537 -0.1683 -0.0421
  199loPI    C1 3169  14.143   8.032  10.588 -0.0772 -0.2018 -0.0003
  199loPI    C2 3170  14.115   7.737  10.857  0.1352 -0.0905  0.1470
  199loPI    C3 3171  13.890   8.065  10.896  0.0961 -0.1158  0.1346
  199loPI   PO4 3172  14.184   7.827  10.313 -0.1563 -0.0359 -0.0874
  199loPI   GL1 3173  14.178   7.831   9.921 -0.1395 -0.0101  0.2407
  199loPI   GL2 3174  14.280   8.153   9.755 -0.0943  0.0747  0.2016
  199loPI   C1A 3175  14.051   7.839   9.463  0.1643 -0.0931  0.0337
  199loPI   C2A 3176  13.963   7.842   9.080  0.0673  0.2982  0.2130
  199loPI   C3A 3177  13.901   7.667   8.650  0.0713 -0.0585  0.4266
  199loPI   C4A 3178  13.896   7.404   8.270 -0.1296 -0.0029 -0.1447
  199loPI   C5A 3179  13.903   7.106   7.956  0.0913  0.1574  0.1626
  199loPI   C6A 3180  13.837   6.891   7.650  0.0760  0.0284  0.1141
  199loPI   C1B 3181  14.466   8.415   9.422 -0.1116  0.1816 -0.0865
  199loPI   C2B 3182  14.657   8.392   8.986  0.0791 -0.0856 -0.1558
  199loPI   C3B 3183  14.717   8.248   8.573  0.0219  0.3364 -0.1305
  199loPI   C4B 3184  14.558   8.367   8.214  0.2242  0.1610 -0.0076
  200loPI    C1 3185  15.222  10.278  10.317  0.0631 -0.1406 -0.0239
  200loPI    C2 3186  15.370  10.063  10.620 -0.1184 -0.1101  0.0878
  200loPI    C3 3187  15.190  10.413  10.692  0.0422  0.0083 -0.0786
  200loPI   PO4 3188  15.402  10.122  10.142  0.0069  0.3694  0.0225
  200loPI   GL1 3189  15.633   9.957   9.833  0.2658 -0.0242 -0.0369
  200loPI   GL2 3190  15.291   9.961   9.649 -0.0921  0.0253 -0.3635
  200loPI   C1A 3191  15.732   9.816   9.457 -0.1323  0.0886  0.0362
  200loPI   C2A 3192  15.917   9.753   9.076  0.1621  0.2472 -0.1057
  200loPI   C3A 3193  15.980   9.619   8.730 -0.1227  0.2541  0.0950
  200loPI   C4A 3194  15.948   9.495   8.343  0.1530 -0.2641  0.1320
  200loPI   C5A 3195  16.009   9.422   7.863 -0.0247  0.0040 -0.4634
  200loPI   C6A 3196  16.049   9.310   7.352 -0.0662 -0.2309 -0.1918
  200loPI   C1B 3197  15.507  10.149   9.207 -0.2306  0.0078 -0.3697
  200loPI   C2B 3198  15.733  10.108   8.839 -0.0053 -0.0311 -0.2840
  200loPI   C3B 3199  15.866  10.003   8.367  0.1780  0.1476  0.1059
  200loPI   C4B 3200  16.188   9.914   8.059 -0.0464 -0.2061  0.0607
  201loPI    C1 3201   8.048   5.818  10.220  0.0632 -0.0693 -0.1209
  201loPI    C2 3202   8.177   5.787  10.597 -0.1964 -0.1229 -0.0352
  201loPI    C3 3203   8.333   5.553  10.313  0.2297  0.1404 -0.0258
  201loPI   PO4 3204   7.904   6.017  10.151  0.0223  0.2032 -0.1077
  201loPI   GL1 3205   7.952   6.249   9.816  0.1124  0.0322  0.0549
  201loPI   GL2 3206   7.600   6.342   9.832  0.2375 -0.1355 -0.0352
  201loPI   C1A 3207   8.249   6.295   9.365  0.2091 -0.0052 -0.2630
  201loPI   C2A 3208   8.175   6.514   8.921  0.5549 -0.0797 -0.3793
  201loPI   C3A 3209   8.339   6.435   8.527  0.0966 -0.0427  0.1884
  201loPI   C4A 3210   8.322   6.532   8.107  0.0514  0.1014  0.3539
  201loPI   C5A 3211   8.124   6.782   7.905  0.0902 -0.2828  0.1088
  201loPI   C6A 3212   7.719   6.972   7.828 -0.3419  0.1328  0.2925
  201loPI   C1B 3213   7.717   6.267   9.383 -0.0612  0.1548 -0.1662
  201loPI   C2B 3214   7.643   6.318   8.926 -0.0023  0.0480  0.0399
  201loPI   C3B 3215   7.340   6.444   8.602 -0.3376 -0.0614 -0.0504
  201loPI   C4B 3216   7.143   6.560   8.105 -0.0038 -0.2080 -0.2299
  202loPI    C1 3217   1.417  10.178  10.423  0.0780  0.0441  0.0579
  202loPI    C2 3218   1.611   9.839  10.510  0.1751  0.1014  0.0664
  202loPI    C3 3219   1.380  10.014  10.786  0.0579 -0.0021  0.0351
  202loPI   PO4 3220   1.260  10.089  10.219 -0.0431  0.1975  0.1729
  202loPI   GL1 3221   1.071  10.217   9.846  0.0576 -0.0046 -0.2523
  202loPI   GL2 3222   1.371  10.131   9.732 -0.0595  0.3144 -0.1903
  202loPI   C1A 3223   1.081  10.292   9.388 -0.1207  0.1246 -0.2835
  202loPI   C2A 3224   1.215  10.154   9.064 -0.1001  0.2077  0.2309
  202loPI   C3A 3225   1.265   9.912   8.690 -0.1729  0.0847 -0.0960
  202loPI   C4A 3226   1.245   9.941   8.336  0.2600 -0.2720 -0.0757
  202loPI   C5A 3227   1.083   9.720   7.882 -0.0522 -0.0516 -0.2149
  202loPI   C6A 3228   0.692   9.459   7.719  0.1429 -0.2887  0.0061
  202loPI   C1B 3229   1.315   9.792   9.396  0.1228 -0.0405 -0.0023
  202loPI   C2B 3230   1.236   9.506   9.153  0.2212 -0.1444  0.2961
  202loPI   C3B 3231   1.340   9.448   8.751  0.3534 -0.1397  0.1126
  202loPI   C4B 3232   1.271   9.409   8.348  0.0986 -0.1346 -0.0622
  203loPI    C1 3233  14.513   1.347  10.802  0.2245 -0.0528 -0.1324
  203loPI    C2 3234  14.248   1.644  10.839  0.0417 -0.2009 -0.2395
  203loPI    C3 3235  14.313   1.395  11.145 -0.1129 -0.3032 -0.2885
  203loPI   PO4 3236  14.441   1.326  10.454 -0.1593 -0.1211  0.3062
  203loPI   GL1 3237  14.302   1.339  10.060  0.1246  0.0632 -0.4146
  203loPI   GL2 3238  14.187   1.539   9.950 -0.0956 -0.2275  0.1493
  203loPI   C1A 3239  14.205   1.092   9.705 -0.2147  0.1083 -0.1523
  203loPI   C2A 3240  14.043   1.134   9.378 -0.3247  0.3797 -0.1523
  203loPI   C3A 3241  14.015   1.126   8.981 -0.1908 -0.3374 -0.2782
  203loPI   C4A 3242  13.888   1.083   8.638 -0.2461 -0.0991 -0.0474
  203loPI   C5A 3243  13.797   0.979   8.270  0.2199  0.0422  0.1263
  203loPI   C6A 3244  13.581   0.666   7.901  0.0095 -0.1333 -0.0821
  203loPI   C1B 3245  13.970   1.560   9.689 -0.1658 -0.2544 -0.0048
  203loPI   C2B 3246  13.904   1.635   9.300  0.2162  0.1677  0.2041
  203loPI   C3B 3247  13.870   1.885   8.920 -0.0129  0.1394  0.3242
  203loPI   C4B 3248  14.006   1.953   8.493 -0.1802 -0.2602  0.1007
  204loPI    C1 3249   1.807   6.452  10.413  0.1070 -0.2920  0.4838
  204loPI    C2 3250   1.921   6.665  10.732 -0.0383  0.2050  0.2137
  204loPI    C3 3251   1.903   6.838  10.371 -0.0521 -0.3011 -0.0373
  204loPI   PO4 3252   1.922   6.213  10.470 -0.3105  0.0444 -0.2811
  204loPI   GL1 3253   2.121   5.894  10.121 -0.1189 -0.0963 -0.3040
  204loPI   GL2 3254   2.330   5.781  10.279  0.1745 -0.2518  0.2001
  204loPI   C1A 3255   2.057   6.079   9.702  0.0039 -0.2553  0.2435
  204loPI   C2A 3256   2.027   6.056   9.198 -0.1353  0.1261 -0.0314
  204loPI   C3A 3257   1.981   5.695   8.916 -0.0431  0.0996  0.0794
  204loPI   C4A 3258   1.980   5.426   8.570  0.0286 -0.1011  0.1936
  204loPI   C5A 3259   2.005   5.387   8.141  0.0972 -0.0926  0.1293
  204loPI   C6A 3260   2.058   5.556   7.734  0.1397 -0.2366 -0.2084
  204loPI   C1B 3261   2.553   6.021   9.943 -0.2991 -0.0382  0.0674
  204loPI   C2B 3262   2.516   6.129   9.688  0.0660 -0.0525  0.2236
  204loPI   C3B 3263   2.353   6.467   9.553 -0.1387  0.0942  0.0589
  204loPI   C4B 3264   2.428   6.399   9.040  0.1957  0.1120  0.2044
  205loPI    C1 3265   6.705  17.740  10.127  0.1670  0.0245 -0.0980
  205loPI    C2 3266   6.348  17.881  10.241  0.0948 -0.1642 -0.0885
  205loPI    C3 3267   6.676  17.978  10.448  0.0231 -0.1470  0.0178
  205loPI   PO4 3268   6.770  17.832   9.834  0.0971  0.2634  0.2044
  205loPI   GL1 3269   6.945  17.823   9.488  0.0135 -0.0413  0.1005
  205loPI   GL2 3270   7.174  17.649   9.330 -0.1698  0.0605  0.1345
  205loPI   C1A 3271   6.760  17.656   9.072 -0.1182 -0.1695 -0.0262
  205loPI   C2A 3272   6.556  17.527   8.745  0.1801  0.1423 -0.1011
  205loPI   C3A 3273   6.376  17.488   8.383 -0.0115 -0.2466  0.1786
  205loPI   C4A 3274   6.380  17.365   8.101 -0.2313 -0.0092 -0.1473
  205loPI   C5A 3275   6.289  17.441   7.624  0.0420 -0.1003 -0.2851
  205loPI   C6A 3276   6.039  17.613   7.281  0.1987 -0.0118 -0.0902
  205loPI   C1B 3277   6.950  17.191   9.154 -0.0055 -0.3099 -0.3113
  205loPI   C2B 3278   6.839  17.120   8.748  0.0681  0.2827 -0.0603
  205loPI   C3B 3279   6.797  17.054   8.285  0.3602  0.0807 -0.0182
  205loPI   C4B 3280   6.775  17.030   7.881  0.0324  0.2193 -0.0372
  206loPI    C1 3281  10.204  13.191  10.107 -0.0751 -0.1729  0.0136
  206loPI    C2 3282  10.264  12.796  10.125 -0.1186 -0.1701  0.2674
  206loPI    C3 3283  10.456  13.039  10.379 -0.0029 -0.0157  0.0361
  206loPI   PO4 3284  10.009  13.190   9.813 -0.0395 -0.1039  0.1172
  206loPI   GL1 3285   9.718  13.486   9.430  0.2105  0.0037 -0.0638
  206loPI   GL2 3286   9.446  13.458   9.456 -0.2899  0.1380  0.2128
  206loPI   C1A 3287  10.028  13.429   9.150  0.2152 -0.0811  0.0036
  206loPI   C2A 3288   9.957  13.469   8.746  0.0556 -0.1676 -0.4427
  206loPI   C3A 3289   9.907  13.298   8.300 -0.0875 -0.5598 -0.1064
  206loPI   C4A 3290   9.980  13.389   7.820 -0.1219  0.1204 -0.2382
  206loPI   C5A 3291  10.219  13.217   7.567 -0.1930  0.1950 -0.0103
  206loPI   C6A 3292  10.441  13.170   7.195 -0.1789  0.2118 -0.0567
  206loPI   C1B 3293   9.471  13.559   9.033  0.2148 -0.1651  0.2134
  206loPI   C2B 3294   9.439  13.517   8.466 -0.2348  0.2860 -0.3408
  206loPI   C3B 3295   9.600  13.662   8.172 -0.3763 -0.2918  0.2100
  206loPI   C4B 3296   9.637  13.783   7.696  0.1945  0.0066  0.0194
  207loPI    C1 3297   0.080   4.280  11.056 -0.1512 -0.1638 -0.1309
  207loPI    C2 3298   0.320   4.160  11.353 -0.2549 -0.1276 -0.0315
  207loPI    C3 3299   0.233   4.548  11.311 -0.4191 -0.1574  0.0272
  207loPI   PO4 3300   0.222   4.087  10.839 -0.1155 -0.1696 -0.0486
  207loPI   GL1 3301   0.207   4.210  10.421 -0.0624 -0.0012 -0.2414
  207loPI   GL2 3302   0.280   3.960  10.276  0.0135 -0.0613  0.2252
  207loPI   C1A 3303  -0.001   4.183   9.965  0.0005 -0.2448 -0.2736
  207loPI   C2A 3304   0.013   4.322   9.577 -0.0804  0.1388  0.0044
  207loPI   C3A 3305  -0.003   4.303   9.182 -0.2352  0.1613  0.1168
  207loPI   C4A 3306  -0.029   4.487   8.736 -0.0095  0.0900 -0.1094
  207loPI   C5A 3307   0.032   4.566   8.293  0.0348 -0.2698 -0.2749
  207loPI   C6A 3308  -0.169   4.602   7.967 -0.4304  0.1664 -0.0880
  207loPI   C1B 3309   0.497   4.009   9.895  0.1111  0.1985 -0.1641
  207loPI   C2B 3310   0.509   4.151   9.393 -0.0502 -0.1863  0.2085
  207loPI   C3B 3311   0.526   4.178   9.012  0.1242  0.0498 -0.1327
  207loPI   C4B 3312   0.447   4.278   8.563 -0.1389  0.2684 -0.2624
  208loPI    C1 3313   0.863  13.257  10.449 -0.0628 -0.0671  0.0308
  208loPI    C2 3314   1.162  13.517  10.504 -0.1399  0.0594 -0.1396
  208loPI    C3 3315   0.954  13.382  10.818 -0.1442  0.2579 -0.0558
  208loPI   PO4 3316   0.737  13.392  10.162  0.2337  0.1020  0.0998
  208loPI   GL1 3317   0.693  13.399   9.808  0.2691 -0.0607  0.1557
  208loPI   GL2 3318   0.852  13.187   9.586  0.0633 -0.0793 -0.0095
  208loPI   C1A 3319   0.970  13.682   9.533  0.2335 -0.0132  0.1883
  208loPI   C2A 3320   1.107  13.697   9.165  0.3401  0.1327  0.1757
  208loPI   C3A 3321   1.265  13.564   8.735 -0.2059 -0.1320  0.1097
  208loPI   C4A 3322   1.370  13.633   8.224 -0.3325 -0.1934 -0.0289
  208loPI   C5A 3323   1.714  13.518   7.944 -0.0768 -0.1969  0.0631
  208loPI   C6A 3324   2.046  13.348   8.052 -0.1652 -0.0540  0.2847
  208loPI   C1B 3325   0.933  13.246   9.198  0.3108  0.3475  0.1199
  208loPI   C2B 3326   1.032  13.102   8.742 -0.0952 -0.2559  0.1281
  208loPI   C3B 3327   1.160  13.171   8.361  0.0032  0.0519 -0.0693
  208loPI   C4B 3328   1.311  13.227   7.949 -0.3011  0.0434 -0.0154
  209loPI    C1 3329  10.632   2.772  10.539  0.2261  0.3428  0.0184
  209loPI    C2 3330  10.309   2.898  10.738 -0.0366 -0.3613  0.0680
  209loPI    C3 3331  10.641   2.799  10.938  0.0273 -0.1590  0.0645
  209loPI   PO4 3332  10.558   2.789  10.286 -0.0952 -0.1129  0.1489
  209loPI   GL1 3333  10.511   2.517   9.891  0.4414 -0.1226  0.2805
  209loPI   GL2 3334  10.247   2.847   9.956  0.1918  0.1106 -0.0976
  209loPI   C1A 3335  10.414   2.759   9.464  0.0914  0.0565 -0.0222
  209loPI   C2A 3336  10.461   2.764   9.024 -0.0202 -0.1073 -0.0192
  209loPI   C3A 3337  10.444   2.890   8.566  0.2043 -0.1190  0.0184
  209loPI   C4A 3338  10.500   3.084   8.154 -0.0713 -0.0180 -0.1862
  209loPI   C5A 3339  10.283   2.993   7.857 -0.2422 -0.2250  0.3189
  209loPI   C6A 3340  10.285   3.127   7.405 -0.1873  0.1736 -0.1645
  209loPI   C1B 3341  10.003   2.951   9.625  0.1684 -0.0251  0.0263
  209loPI   C2B 3342   9.941   2.859   9.174 -0.0803 -0.2955  0.0584
  209loPI   C3B 3343   9.893   2.896   8.675 -0.1186  0.1264 -0.2071
  209loPI   C4B 3344   9.942   2.747   8.199 -0.0426 -0.0173  0.3430
  210loPI    C1 3345  15.165  11.412  10.631 -0.0845 -0.0647 -0.1669
  210loPI    C2 3346  14.766  11.416  10.666 -0.0711 -0.1163  0.0022
  210loPI    C3 3347  14.992  11.286  10.969  0.0774 -0.0343 -0.0719
  210loPI   PO4 3348  15.285  11.647  10.478  0.1504  0.1082  0.2938
  210loPI   GL1 3349  15.256  11.723  10.062  0.0859 -0.0231 -0.1059
  210loPI   GL2 3350  15.325  11.475   9.901  0.1970  0.1418  0.0574
  210loPI   C1A 3351  15.304  11.774   9.462  0.0077  0.2594 -0.3902
  210loPI   C2A 3352  15.309  11.782   9.059  0.1470  0.1827  0.0278
  210loPI   C3A 3353  15.506  11.519   8.776  0.1808  0.1488 -0.0700
  210loPI   C4A 3354  15.461  11.502   8.352 -0.0880  0.1018  0.0140
  210loPI   C5A 3355  15.464  11.215   7.917 -0.1506  0.1103  0.2898
  210loPI   C6A 3356  15.607  10.895   7.677  0.1604 -0.1596  0.0539
  210loPI   C1B 3357  15.598  11.365   9.487 -0.4564  0.0338  0.1445
  210loPI   C2B 3358  15.954  11.485   9.245  0.2430 -0.1562 -0.0618
  210loPI   C3B 3359  15.983  11.541   8.745  0.2776  0.0913  0.1372
  210loPI   C4B 3360  16.017  11.497   8.260  0.1089 -0.1313 -0.0614
  211loPI    C1 3361   3.516   9.376  10.701 -0.0148  0.0358 -0.0575
  211loPI    C2 3362   3.436   9.698  10.925 -0.0221  0.1591 -0.2356
  211loPI    C3 3363   3.432   9.334  11.090  0.1443  0.2636  0.0037
  211loPI   PO4 3364   3.463   9.428  10.473 -0.2949  0.1929 -0.4003
  211loPI   GL1 3365   3.191   9.606  10.120  0.1571  0.0193  0.0551
  211loPI   GL2 3366   3.490   9.564   9.985  0.1277  0.2386  0.1160
  211loPI   C1A 3367   2.988   9.652   9.697 -0.0054 -0.0936  0.0145
  211loPI   C2A 3368   3.023   9.557   9.296 -0.0549  0.0002 -0.1840
  211loPI   C3A 3369   3.025   9.477   8.866 -0.0872 -0.0091 -0.0143
  211loPI   C4A 3370   2.842   9.234   8.485  0.1249  0.0911  0.2064
  211loPI   C5A 3371   2.683   9.064   8.068 -0.0119 -0.0645  0.0925
  211loPI   C6A 3372   2.391   9.199   7.693  0.1283  0.0314 -0.3427
  211loPI   C1B 3373   3.466   9.391   9.576 -0.0361  0.0212 -0.2314
  211loPI   C2B 3374   3.532   9.198   9.130  0.0359 -0.0892  0.3969
  211loPI   C3B 3375   3.755   9.057   8.736 -0.0833  0.1684 -0.2117
  211loPI   C4B 3376   3.835   8.891   8.304  0.2079 -0.0388  0.0562
  212loPI    C1 3377   8.991   1.738  10.274 -0.0256  0.3131 -0.0768
  212loPI    C2 3378   8.702   1.914  10.487 -0.0980  0.0065  0.0833
  212loPI    C3 3379   8.949   1.652  10.662 -0.0886 -0.1669 -0.1835
  212loPI   PO4 3380   9.090   1.854  10.168  0.2205 -0.0567 -0.0695
  212loPI   GL1 3381   9.316   1.765   9.785 -0.0880 -0.2800  0.2518
  212loPI   GL2 3382   9.070   1.589   9.671  0.3433  0.0813  0.1327
  212loPI   C1A 3383   9.500   1.624   9.433 -0.1226 -0.0504 -0.2968
  212loPI   C2A 3384   9.512   1.572   9.114  0.0499 -0.0874 -0.1999
  212loPI   C3A 3385   9.573   1.470   8.669  0.3815  0.0056  0.1016
  212loPI   C4A 3386   9.822   1.492   8.226  0.1900 -0.0862  0.0541
  212loPI   C5A 3387   9.844   1.215   7.853  0.2321 -0.0542  0.2131
  212loPI   C6A 3388   9.709   1.148   7.425  0.0810  0.3323 -0.1963
  212loPI   C1B 3389   8.763   1.514   9.506 -0.1796  0.2334 -0.1575
  212loPI   C2B 3390   8.677   1.457   9.160 -0.0618  0.2336 -0.1490
  212loPI   C3B 3391   8.472   1.568   8.807 -0.2655  0.0358 -0.3479
  212loPI   C4B 3392   8.604   1.767   8.472 -0.1513 -0.3896 -0.0639
  213loPI    C1 3393  17.094   3.885  11.171 -0.0394  0.1493  0.1050
  213loPI    C2 3394  17.298   3.929  11.512  0.1613 -0.4135  0.0684
  213loPI    C3 3395  17.162   3.568  11.406 -0.3574 -0.1517 -0.1962
  213loPI   PO4 3396  17.306   4.025  10.935 -0.1721 -0.2898 -0.3518
  213loPI   GL1 3397  17.360   3.989  10.533 -0.1922 -0.0660  0.1407
  213loPI   GL2 3398  17.485   3.677  10.333 -0.2492 -0.0577  0.4618
  213loPI   C1A 3399  17.066   4.055  10.181  0.1432 -0.1528 -0.1381
  213loPI   C2A 3400  17.051   4.341   9.882  0.0579 -0.1480 -0.2256
  213loPI   C3A 3401  17.027   4.378   9.480 -0.0138  0.1349  0.0968
  213loPI   C4A 3402  17.092   4.187   9.076 -0.4252  0.0587  0.0475
  213loPI   C5A 3403  17.117   3.846   8.690 -0.3373 -0.3288 -0.1145
  213loPI   C6A 3404  17.180   3.462   8.412  0.0707 -0.0027 -0.0386
  213loPI   C1B 3405  17.313   3.556   9.978 -0.1720 -0.0199 -0.0983
  213loPI   C2B 3406  17.463   3.313   9.593 -0.0118  0.1658  0.0660
  213loPI   C3B 3407  17.591   3.421   9.272 -0.2342  0.1786 -0.0606
  213loPI   C4B 3408  17.406   3.744   9.100 -0.1794  0.0675 -0.0656
  214loPI    C1 3409  11.267   8.114  10.427  0.0586 -0.1551  0.1563
  214loPI    C2 3410  10.961   7.876  10.331  0.2331 -0.2695 -0.1311
  214loPI    C3 3411  11.070   7.917  10.713 -0.0826 -0.2953 -0.0350
  214loPI   PO4 3412  11.372   8.128  10.173  0.2348 -0.3133 -0.1443
  214loPI   GL1 3413  11.383   8.160   9.675  0.0653  0.0588 -0.1211
  214loPI   GL2 3414  11.678   8.221   9.783 -0.1975  0.1450 -0.1755
  214loPI   C1A 3415  11.407   7.869   9.449 -0.0991 -0.4605 -0.0549
  214loPI   C2A 3416  11.556   7.906   9.046  0.2142 -0.0015 -0.2210
  214loPI   C3A 3417  11.507   7.905   8.628  0.0305  0.0658  0.0038
  214loPI   C4A 3418  11.577   7.830   8.263  0.0163 -0.3016  0.0205
  214loPI   C5A 3419  11.506   7.937   7.817  0.1961  0.3470  0.2620
  214loPI   C6A 3420  11.103   7.913   7.529 -0.2867 -0.2885 -0.1556
  214loPI   C1B 3421  11.945   8.256   9.358  0.1806  0.1210 -0.3185
  214loPI   C2B 3422  11.881   8.284   8.942 -0.0944 -0.0556  0.0861
  214loPI   C3B 3423  11.933   8.213   8.466  0.0051  0.0609  0.1339
  214loPI   C4B 3424  11.849   8.260   8.078 -0.1805  0.2808  0.0342
  215loPI    C1 3425   2.043   3.546  10.762 -0.0800 -0.0427  0.1282
  215loPI    C2 3426   2.136   3.236  10.996  0.1497 -0.1775 -0.1362
  215loPI    C3 3427   2.424   3.428  10.794 -0.0069  0.1312 -0.0710
  215loPI   PO4 3428   1.879   3.463  10.623 -0.1142 -0.0621  0.2643
  215loPI   GL1 3429   1.850   3.552  10.243 -0.1366 -0.0007 -0.2595
  215loPI   GL2 3430   1.688   3.770  10.219  0.1161 -0.1538  0.3657
  215loPI   C1A 3431   1.978   3.624   9.735 -0.2655 -0.0753  0.3138
  215loPI   C2A 3432   2.051   3.710   9.355 -0.2539  0.2204 -0.0711
  215loPI   C3A 3433   1.943   3.669   8.955  0.2313 -0.0877  0.1591
  215loPI   C4A 3434   1.822   3.827   8.577  0.2247  0.1848  0.1244
  215loPI   C5A 3435   1.713   3.755   8.148  0.2239 -0.1572  0.1748
  215loPI   C6A 3436   1.331   3.586   7.856  0.0639 -0.1446 -0.3047
  215loPI   C1B 3437   1.485   3.861   9.827 -0.1186  0.1511 -0.1518
  215loPI   C2B 3438   1.385   3.798   9.309 -0.1441 -0.1181 -0.0531
  215loPI   C3B 3439   1.381   3.841   8.840  0.0441 -0.1726 -0.0634
  215loPI   C4B 3440   1.036   3.676   8.702  0.2195  0.2119 -0.0374
  216loPI    C1 3441  10.304   4.464  10.577 -0.1492  0.2010 -0.2791
  216loPI    C2 3442  10.128   4.124  10.694  0.1904  0.0994 -0.0501
  216loPI    C3 3443  10.132   4.441  10.937  0.0139  0.2179 -0.1994
  216loPI   PO4 3444  10.331   4.620  10.344 -0.0572 -0.3059  0.0041
  216loPI   GL1 3445  10.166   4.477   9.936 -0.0550  0.2650 -0.1828
  216loPI   GL2 3446  10.088   4.222  10.026  0.0847  0.2172 -0.7232
  216loPI   C1A 3447  10.385   4.485   9.681 -0.0221 -0.0757  0.0306
  216loPI   C2A 3448  10.412   4.633   9.296  0.2769 -0.2772  0.3181
  216loPI   C3A 3449  10.625   4.552   9.009  0.3226  0.0311 -0.3237
  216loPI   C4A 3450  10.789   4.525   8.638  0.0844  0.1903 -0.0304
  216loPI   C5A 3451  10.789   4.616   8.279 -0.1913 -0.0754  0.0224
  216loPI   C6A 3452  10.546   4.958   8.144 -0.4841  0.2452 -0.0183
  216loPI   C1B 3453  10.128   4.017   9.607  0.1938  0.0866 -0.4454
  216loPI   C2B 3454  10.033   3.871   9.247  0.2071  0.4486 -0.0798
  216loPI   C3B 3455  10.064   3.771   8.853  0.0436  0.1216  0.1142
  216loPI   C4B 3456   9.863   3.896   8.555  0.2440  0.0547  0.2030
  217loPI    C1 3457  13.823   6.286  10.515  0.2065 -0.2970  0.4093
  217loPI    C2 3458  13.459   6.224  10.669 -0.0825  0.0479 -0.1033
  217loPI    C3 3459  13.728   6.439  10.872 -0.2098 -0.0904  0.2181
  217loPI   PO4 3460  13.712   6.359  10.193  0.0094  0.0133 -0.3096
  217loPI   GL1 3461  13.842   6.322   9.779 -0.0140  0.2743  0.2285
  217loPI   GL2 3462  14.088   6.131   9.945 -0.2494 -0.0333 -0.0709
  217loPI   C1A 3463  13.928   6.499   9.441  0.0856  0.0628  0.2526
  217loPI   C2A 3464  14.012   6.529   8.998  0.1993  0.0377 -0.0554
  217loPI   C3A 3465  14.135   6.493   8.647  0.0312  0.0956  0.2718
  217loPI   C4A 3466  14.182   6.169   8.355 -0.3059  0.1616 -0.0259
  217loPI   C5A 3467  13.984   5.949   7.978 -0.0676 -0.1005  0.1142
  217loPI   C6A 3468  14.133   6.040   7.472  0.0749  0.2661 -0.0463
  217loPI   C1B 3469  14.350   5.874   9.673 -0.3038  0.2821 -0.0560
  217loPI   C2B 3470  14.451   5.739   9.336 -0.3023 -0.0334  0.0332
  217loPI   C3B 3471  14.332   5.548   8.964  0.0087 -0.1874  0.1297
  217loPI   C4B 3472  14.364   5.645   8.601  0.2654  0.2604 -0.0060
  218loPI    C1 3473  10.715  16.551  10.095 -0.2301 -0.1176 -0.0337
  218loPI    C2 3474  10.388  16.682  10.285 -0.0888  0.1089  0.0577
  218loPI    C3 3475  10.739  16.673  10.475  0.1053  0.5717 -0.2597
  218loPI   PO4 3476  10.583  16.397   9.857  0.0807  0.0377 -0.1796
  218loPI   GL1 3477  10.436  16.406   9.455  0.3659  0.1472 -0.1109
  218loPI   GL2 3478  10.577  16.682   9.465 -0.0354  0.2043 -0.0855
  218loPI   C1A 3479  10.349  16.237   9.176  0.0102 -0.0817  0.1258
  218loPI   C2A 3480  10.385  16.315   8.764  0.1039  0.0376 -0.3836
  218loPI   C3A 3481  10.458  16.149   8.288  0.0889 -0.0876 -0.0145
  218loPI   C4A 3482  10.470  16.010   7.979  0.0002  0.0738  0.0351
  218loPI   C5A 3483  10.654  15.837   7.543  0.3379 -0.1660  0.2956
  218loPI   C6A 3484  10.569  15.860   7.096  0.0447  0.1474  0.1409
  218loPI   C1B 3485  10.666  16.627   8.987  0.1473 -0.2735  0.2799
  218loPI   C2B 3486  10.662  16.717   8.643 -0.1398 -0.3516 -0.1141
  218loPI   C3B 3487  10.615  16.750   8.324  0.1634 -0.0193  0.3876
  218loPI   C4B 3488  10.539  16.987   8.027 -0.1049  0.2098 -0.3677
  219loPI    C1 3489  10.030  17.012  10.050  0.0693 -0.0663  0.1338
  219loPI    C2 3490   9.971  17.364  10.232 -0.0366  0.0318 -0.0861
  219loPI    C3 3491  10.012  17.030  10.450 -0.1728  0.1448  0.1160
  219loPI   PO4 3492   9.931  17.040   9.810  0.1524 -0.0502  0.1986
  219loPI   GL1 3493   9.851  16.828   9.431 -0.2534  0.0183 -0.1941
  219loPI   GL2 3494   9.523  16.832   9.236  0.2992  0.1820 -0.0747
  219loPI   C1A 3495  10.165  16.719   9.055 -0.2457 -0.3724 -0.1821
  219loPI   C2A 3496  10.134  16.827   8.621 -0.3373  0.1422 -0.4055
  219loPI   C3A 3497  10.005  16.995   8.231 -0.3170 -0.0762  0.0863
  219loPI   C4A 3498  10.093  16.985   7.831  0.2774 -0.0193 -0.0989
  219loPI   C5A 3499  10.493  16.827   7.568 -0.2346  0.1863  0.0587
  219loPI   C6A 3500  10.591  16.746   7.184 -0.2341 -0.2463 -0.1383
  219loPI   C1B 3501   9.664  16.789   8.865 -0.2014  0.0129 -0.0295
  219loPI   C2B 3502   9.621  16.703   8.451 -0.1635 -0.1948 -0.4000
  219loPI   C3B 3503   9.675  16.712   7.936  0.3494  0.1350 -0.3602
  219loPI   C4B 3504   9.632  16.816   7.536  0.4055  0.0984  0.0346
  220loPI    C1 3505  16.628  17.678  10.480 -0.0145  0.0470  0.0924
  220loPI    C2 3506  16.432  17.357  10.614 -0.0077 -0.0122 -0.0385
  220loPI    C3 3507  16.536  17.648  10.868 -0.0233 -0.1079  0.0786
  220loPI   PO4 3508  16.557  17.651  10.227  0.2221  0.1562  0.1279
  220loPI   GL1 3509  16.737  17.737   9.844 -0.3640  0.0158  0.0647
  220loPI   GL2 3510  16.571  17.525   9.679 -0.3007  0.2399 -0.1074
  220loPI   C1A 3511  16.983  17.780   9.395  0.0119  0.0965 -0.4466
  220loPI   C2A 3512  16.917  17.827   8.917 -0.1153 -0.2197 -0.0073
  220loPI   C3A 3513  16.813  17.794   8.446  0.3185  0.1532 -0.1376
  220loPI   C4A 3514  16.765  18.027   8.004 -0.2978  0.0236 -0.0925
  220loPI   C5A 3515  16.744  18.296   7.774 -0.0133  0.1380 -0.0492
  220loPI   C6A 3516  16.503  18.642   7.775 -0.1930 -0.0958  0.2042
  220loPI   C1B 3517  16.619  17.481   9.239 -0.0545 -0.0118 -0.2235
  220loPI   C2B 3518  16.653  17.406   8.825 -0.1093 -0.2771 -0.0441
  220loPI   C3B 3519  16.387  17.403   8.543 -0.3804  0.1712 -0.1147
  220loPI   C4B 3520  16.069  17.254   8.224  0.3926  0.1871  0.0838
  221loPI    C1 3521  17.435  15.985  10.383  0.0437  0.1080 -0.0471
  221loPI    C2 3522  17.259  15.684  10.578 -0.1748  0.1353 -0.1984
  221loPI    C3 3523  17.576  15.868  10.738 -0.3122  0.1169  0.1009
  221loPI   PO4 3524  17.416  15.985  10.075  0.1504  0.1226  0.0930
  221loPI   GL1 3525  17.238  15.790   9.764  0.0326 -0.1439 -0.1052
  221loPI   GL2 3526  17.433  15.592   9.665  0.1298 -0.1573  0.1164
  221loPI   C1A 3527  17.243  16.056   9.362 -0.1480 -0.0002  0.0116
  221loPI   C2A 3528  17.188  16.084   8.870 -0.0722 -0.1749  0.0662
  221loPI   C3A 3529  17.154  16.240   8.426  0.2094  0.1759  0.3891
  221loPI   C4A 3530  17.174  16.143   7.952  0.0186 -0.1066 -0.2521
  221loPI   C5A 3531  17.230  15.952   7.618 -0.1120  0.0489 -0.2086
  221loPI   C6A 3532  16.921  15.783   7.256 -0.2388 -0.0908 -0.0628
  221loPI   C1B 3533  17.549  15.566   9.357  0.2593 -0.1437  0.0563
  221loPI   C2B 3534  17.551  15.678   8.892 -0.3276  0.0455  0.2535
  221loPI   C3B 3535  17.563  15.879   8.598  0.0535 -0.1000 -0.1641
  221loPI   C4B 3536  17.574  16.057   8.256 -0.0105  0.0790 -0.1315
  222loPI    C1 3537   4.210  12.030  10.337  0.0668 -0.0687 -0.1023
  222loPI    C2 3538   4.062  12.210  10.662 -0.2352  0.1278 -0.3424
  222loPI    C3 3539   4.343  11.928  10.700 -0.2439  0.1696  0.0842
  222loPI   PO4 3540   3.974  11.975  10.134 -0.0393  0.0560  0.2190
  222loPI   GL1 3541   3.921  11.798   9.761  0.0904 -0.4578  0.2457
  222loPI   GL2 3542   4.281  11.870   9.753 -0.0318 -0.0650 -0.0265
  222loPI   C1A 3543   3.682  11.671   9.440  0.2879  0.0471 -0.0187
  222loPI   C2A 3544   3.734  11.414   9.044  0.0804  0.1405  0.0625
  222loPI   C3A 3545   4.014  11.688   8.671 -0.0532 -0.1191 -0.2252
  222loPI   C4A 3546   3.971  11.641   8.303 -0.0746  0.3454  0.0613
  222loPI   C5A 3547   3.927  11.226   8.078  0.0194 -0.2230  0.2828
  222loPI   C6A 3548   4.218  11.068   7.792 -0.2373 -0.0583  0.1312
  222loPI   C1B 3549   4.209  12.019   9.336 -0.0379  0.1170 -0.2122
  222loPI   C2B 3550   4.388  12.061   9.009  0.0418 -0.0689  0.2876
  222loPI   C3B 3551   4.308  12.186   8.611 -0.4630 -0.0028 -0.1561
  222loPI   C4B 3552   4.319  12.063   8.262 -0.0686  0.0119 -0.1754
  223loPI    C1 3553  12.098  12.672   9.874 -0.1221  0.1408  0.1888
  223loPI    C2 3554  12.335  12.350   9.881 -0.2493  0.0442  0.1192
  223loPI    C3 3555  12.447  12.677   9.679 -0.0967  0.0630  0.2321
  223loPI   PO4 3556  11.800  12.601   9.756  0.2939  0.0011 -0.4279
  223loPI   GL1 3557  11.824  12.821   9.395  0.0165  0.1483 -0.0475
  223loPI   GL2 3558  11.627  12.960   9.175 -0.1980 -0.1907  0.0640
  223loPI   C1A 3559  12.052  12.629   9.081 -0.0052  0.1323  0.1253
  223loPI   C2A 3560  12.098  12.561   8.711  0.1276  0.1257  0.0967
  223loPI   C3A 3561  12.102  12.756   8.418  0.0193 -0.3656  0.0797
  223loPI   C4A 3562  12.116  12.777   8.039  0.0132  0.0090  0.0589
  223loPI   C5A 3563  12.080  13.062   7.740 -0.0701  0.2121  0.0167
  223loPI   C6A 3564  11.778  13.110   7.301 -0.3351 -0.0558  0.0836
  223loPI   C1B 3565  11.656  12.946   8.696  0.4266 -0.3052  0.2209
  223loPI   C2B 3566  11.606  12.862   8.198 -0.1714 -0.1995  0.0274
  223loPI   C3B 3567  11.474  12.930   7.841 -0.0477  0.1037  0.1162
  223loPI   C4B 3568  11.121  12.886   7.595  0.3112 -0.1068  0.2681
  224loPI    C1 3569  17.036   1.620  10.675 -0.1527  0.0660  0.1879
  224loPI    C2 3570  17.082   1.963  10.877  0.0948  0.0207  0.2123
  224loPI    C3 3571  17.184   1.616  11.047  0.0383 -0.0455  0.1125
  224loPI   PO4 3572  17.148   1.668  10.428 -0.1788 -0.0001 -0.2448
  224loPI   GL1 3573  17.477   1.450  10.135 -0.0582 -0.1038 -0.1560
  224loPI   GL2 3574  17.611   1.264  10.205  0.1309  0.4166 -0.2616
  224loPI   C1A 3575  17.516   1.299   9.674  0.1063  0.0929 -0.0618
  224loPI   C2A 3576  17.541   1.186   9.337 -0.2032 -0.2553 -0.0846
  224loPI   C3A 3577  17.560   0.812   9.209 -0.1121 -0.2284 -0.0491
  224loPI   C4A 3578  17.583   0.777   8.831 -0.2251  0.1164 -0.0779
  224loPI   C5A 3579  17.689   0.817   8.376  0.0058 -0.0104 -0.0283
  224loPI   C6A 3580  17.525   0.961   7.992 -0.0486 -0.1717  0.2173
  224loPI   C1B 3581  17.924   1.329   9.870 -0.3562  0.3416  0.0522
  224loPI   C2B 3582  17.976   1.431   9.457 -0.2297  0.0953  0.0805
  224loPI   C3B 3583  18.006   1.472   9.049 -0.0044  0.4339  0.0652
  224loPI   C4B 3584  18.066   1.563   8.613  0.0048 -0.1311 -0.1700
  225loPI    C1 3585   5.131   3.818  10.598 -0.0158 -0.3217 -0.1321
  225loPI    C2 3586   5.422   3.548  10.652 -0.0002 -0.2701  0.0494
  225loPI    C3 3587   5.370   3.842  10.918  0.2546  0.1606 -0.3584
  225loPI   PO4 3588   5.082   3.774  10.396  0.1298 -0.1822 -0.0568
  225loPI   GL1 3589   4.950   3.737   9.938  0.1065 -0.1190  0.0743
  225loPI   GL2 3590   5.083   3.474   9.734  0.2807 -0.1891  0.0458
  225loPI   C1A 3591   4.741   3.845   9.662  0.0661  0.1482 -0.0767
  225loPI   C2A 3592   4.823   4.082   9.236  0.1683 -0.1451 -0.0104
  225loPI   C3A 3593   5.139   4.073   9.053 -0.1159 -0.3289 -0.0944
  225loPI   C4A 3594   5.257   4.244   8.696  0.0663 -0.0909  0.1604
  225loPI   C5A 3595   5.061   4.204   8.247  0.2486  0.1108 -0.0883
  225loPI   C6A 3596   4.890   4.369   7.961 -0.0401 -0.3067 -0.0083
  225loPI   C1B 3597   4.935   3.511   9.315  0.0093 -0.1288 -0.1457
  225loPI   C2B 3598   4.896   3.540   8.866  0.0683  0.4023  0.3456
  225loPI   C3B 3599   4.987   3.752   8.547  0.2461 -0.0315 -0.0112
  225loPI   C4B 3600   4.933   3.688   8.063  0.2613  0.2280 -0.1961
  226loPI    C1 3601   6.660   3.565  10.066  0.1043  0.0744  0.1690
  226loPI    C2 3602   6.804   3.923  10.172  0.1146  0.0587  0.2082
  226loPI    C3 3603   6.437   3.812  10.288  0.0000  0.1710 -0.0403
  226loPI   PO4 3604   6.750   3.237  10.153  0.0591  0.1543  0.0590
  226loPI   GL1 3605   6.871   3.074   9.821  0.2036 -0.0144  0.0032
  226loPI   GL2 3606   6.854   3.397   9.666 -0.0553  0.0124  0.3377
  226loPI   C1A 3607   6.791   2.831   9.475 -0.2823 -0.1378  0.2401
  226loPI   C2A 3608   6.716   2.885   9.042 -0.1643 -0.1408  0.2723
  226loPI   C3A 3609   6.637   2.689   8.668  0.2725 -0.0502 -0.0596
  226loPI   C4A 3610   6.943   2.581   8.431 -0.1192 -0.1064  0.1350
  226loPI   C5A 3611   7.428   2.524   8.236 -0.0923  0.1563  0.1937
  226loPI   C6A 3612   7.696   2.458   7.884 -0.1262 -0.2353 -0.2134
  226loPI   C1B 3613   6.931   3.293   9.243  0.2306 -0.1430  0.2687
  226loPI   C2B 3614   6.868   3.416   8.855 -0.1900 -0.1799 -0.0813
  226loPI   C3B 3615   6.979   3.813   8.644 -0.1574 -0.1369 -0.1488
  226loPI   C4B 3616   6.815   3.978   8.249  0.2165  0.3243  0.0194
  227loPI    C1 3617  11.764   1.676  10.868  0.1216  0.0941  0.0430
  227loPI    C2 3618  11.412   1.790  11.019  0.1304  0.0455  0.1011
  227loPI    C3 3619  11.621   1.499  11.198  0.0995 -0.0743 -0.0556
  227loPI   PO4 3620  11.846   1.785  10.651 -0.1515  0.0865 -0.0448
  227loPI   GL1 3621  11.732   1.853  10.230 -0.0148  0.0139  0.1747
  227loPI   GL2 3622  12.010   2.168  10.217  0.0935  0.1723 -0.1506
  227loPI   C1A 3623  11.903   1.725   9.884 -0.0116 -0.0147  0.3110
  227loPI   C2A 3624  11.825   1.749   9.427 -0.1651  0.1248  0.2617
  227loPI   C3A 3625  12.006   1.782   8.992 -0.0651  0.2860 -0.0176
  227loPI   C4A 3626  12.007   1.548   8.660  0.0951  0.3184  0.0594
  227loPI   C5A 3627  12.005   1.714   8.259  0.0580  0.0352  0.0963
  227loPI   C6A 3628  11.942   1.509   7.911  0.0490 -0.1642  0.1686
  227loPI   C1B 3629  11.920   2.252   9.806  0.0251 -0.0280  0.0080
  227loPI   C2B 3630  11.910   2.263   9.287  0.0750 -0.1975  0.3282
  227loPI   C3B 3631  11.789   2.208   8.814 -0.1895  0.2590 -0.0591
  227loPI   C4B 3632  11.785   2.171   8.339 -0.1614  0.2947  0.0230
  228loPI    C1 3633   5.887   1.537  10.363 -0.1242 -0.0979  0.1472
  228loPI    C2 3634   6.237   1.605  10.545 -0.0343 -0.2109  0.0187
  228loPI    C3 3635   5.909   1.802  10.662  0.0780 -0.0817  0.1195
  228loPI   PO4 3636   5.948   1.542  10.060 -0.1123  0.2837  0.4498
  228loPI   GL1 3637   5.841   1.333   9.730  0.1918  0.3505 -0.0684
  228loPI   GL2 3638   5.681   0.989   9.634  0.1146  0.3971 -0.1243
  228loPI   C1A 3639   5.527   1.459   9.436  0.1695 -0.3727  0.2872
  228loPI   C2A 3640   5.467   1.516   9.062  0.1382  0.1180 -0.0054
  228loPI   C3A 3641   5.492   1.270   8.702  0.0257 -0.0380  0.0331
  228loPI   C4A 3642   5.674   1.202   8.279 -0.3705 -0.1108  0.1652
  228loPI   C5A 3643   5.736   1.279   7.804 -0.0229 -0.0680 -0.1659
  228loPI   C6A 3644   6.030   1.442   7.465 -0.3160  0.1548  0.0739
  228loPI   C1B 3645   5.524   1.016   9.222  0.2795  0.2165  0.1526
  228loPI   C2B 3646   5.435   0.786   8.855 -0.2038  0.0214 -0.0791
  228loPI   C3B 3647   5.223   0.913   8.506 -0.1880  0.0334  0.1852
  228loPI   C4B 3648   5.205   1.106   8.047  0.2413  0.2234  0.0714
  229loPI    C1 3649   2.863   3.566  10.527  0.1229 -0.0414  0.2023
  229loPI    C2 3650   3.187   3.415  10.347 -0.1448 -0.2182 -0.1459
  229loPI    C3 3651   3.223   3.726  10.597  0.2860 -0.2172 -0.2009
  229loPI   PO4 3652   2.678   3.317  10.358 -0.0008  0.3276  0.1275
  229loPI   GL1 3653   2.574   3.126   9.969 -0.0251 -0.1318  0.0256
  229loPI   GL2 3654   2.302   3.355   9.915  0.2143 -0.2566 -0.0853
  229loPI   C1A 3655   2.768   3.150   9.591  0.0192 -0.0386 -0.3584
  229loPI   C2A 3656   2.661   3.144   9.225  0.3918 -0.1421  0.1761
  229loPI   C3A 3657   2.737   3.235   8.719  0.2274 -0.0846 -0.0499
  229loPI   C4A 3658   2.747   3.534   8.398  0.1207 -0.0851  0.2269
  229loPI   C5A 3659   2.558   3.568   8.091  0.1681  0.0319  0.1103
  229loPI   C6A 3660   2.579   3.696   7.616  0.0326  0.2303  0.0303
  229loPI   C1B 3661   2.268   3.232   9.470  0.0290  0.0583 -0.0687
  229loPI   C2B 3662   2.279   3.246   8.898 -0.4579 -0.2307 -0.3159
  229loPI   C3B 3663   2.362   3.106   8.441  0.2747  0.1922  0.2927
  229loPI   C4B 3664   2.223   3.111   7.921  0.0732  0.1489 -0.3068
  230loPI    C1 3665   5.344  14.105  10.365  0.0977 -0.1935  0.2500
  230loPI    C2 3666   5.010  14.301  10.468  0.0452 -0.0149 -0.2334
  230loPI    C3 3667   5.343  14.345  10.685 -0.1247  0.1513 -0.0015
  230loPI   PO4 3668   5.208  13.999  10.087 -0.4249  0.0760  0.1573
  230loPI   GL1 3669   5.093  14.136   9.670 -0.0304  0.0218  0.1587
  230loPI   GL2 3670   4.812  13.872   9.556 -0.0079 -0.3867 -0.2401
  230loPI   C1A 3671   4.920  14.266   9.288  0.3851  0.1252 -0.1667
  230loPI   C2A 3672   4.839  14.321   8.877  0.3398  0.4456  0.2195
  230loPI   C3A 3673   4.643  14.356   8.466  0.2415  0.2196  0.0594
  230loPI   C4A 3674   4.676  14.341   8.022 -0.1800 -0.2593 -0.1137
  230loPI   C5A 3675   4.682  14.314   7.551 -0.2921 -0.1407  0.0170
  230loPI   C6A 3676   4.595  14.406   7.132  0.3027 -0.0738 -0.2457
  230loPI   C1B 3677   4.545  13.994   9.148  0.0603  0.2663 -0.0494
  230loPI   C2B 3678   4.419  14.013   8.736 -0.0191 -0.2609 -0.1382
  230loPI   C3B 3679   4.405  14.002   8.198 -0.0215  0.3034 -0.1390
  230loPI   C4B 3680   4.701  13.902   7.800 -0.0287  0.1397 -0.0041
  231loPI    C1 3681   6.639  15.368   9.909  0.1231  0.0650 -0.2141
  231loPI    C2 3682   6.405  15.688   9.961  0.1621  0.1015 -0.2611
  231loPI    C3 3683   6.630  15.554  10.263 -0.1853 -0.1483 -0.1061
  231loPI   PO4 3684   6.394  15.193   9.829  0.2050  0.3298 -0.3043
  231loPI   GL1 3685   6.237  14.898   9.498 -0.0287  0.0274 -0.1925
  231loPI   GL2 3686   6.448  15.130   9.317 -0.3719  0.1248  0.1550
  231loPI   C1A 3687   6.023  14.823   9.177 -0.1527 -0.1631  0.1788
  231loPI   C2A 3688   5.963  14.671   8.808 -0.1076  0.2298 -0.0977
  231loPI   C3A 3689   5.806  14.537   8.291  0.1038 -0.2913 -0.2688
  231loPI   C4A 3690   5.584  14.688   7.881 -0.1370 -0.1747  0.2776
  231loPI   C5A 3691   5.232  14.601   7.620 -0.1546  0.1017  0.1094
  231loPI   C6A 3692   4.869  14.774   7.308  0.1572  0.0497 -0.0113
  231loPI   C1B 3693   6.317  15.034   8.796  0.1147 -0.2109  0.0471
  231loPI   C2B 3694   6.161  14.918   8.431  0.0704  0.0306 -0.3083
  231loPI   C3B 3695   6.244  14.735   8.028 -0.2376  0.1062  0.0171
  231loPI   C4B 3696   6.089  14.303   8.023 -0.0363  0.0569 -0.1207
  232loPI    C1 3697  18.363   1.639  10.822 -0.1840 -0.1608  0.0461
  232loPI    C2 3698  18.247   1.949  11.047 -0.1247 -0.0827 -0.0304
  232loPI    C3 3699  18.457   1.651  11.211  0.1443  0.1001 -0.0374
  232loPI   PO4 3700  18.284   1.652  10.540 -0.0691  0.2491 -0.1394
  232loPI   GL1 3701  18.061   1.690  10.190 -0.0766 -0.4836  0.2271
  232loPI   GL2 3702  17.906   2.031  10.198 -0.4074  0.2647 -0.0738
  232loPI   C1A 3703  18.334   1.653   9.838 -0.0424  0.3016  0.0915
  232loPI   C2A 3704  18.418   1.757   9.301  0.2363  0.2393 -0.0338
  232loPI   C3A 3705  18.407   1.882   8.951  0.1861  0.0723  0.4728
  232loPI   C4A 3706  18.538   1.811   8.604 -0.2832 -0.1991  0.1402
  232loPI   C5A 3707  18.906   1.507   8.287  0.0210 -0.0567 -0.1064
  232loPI   C6A 3708  19.274   1.251   8.175 -0.0269 -0.1279  0.4076
  232loPI   C1B 3709  17.921   1.973   9.761 -0.2961 -0.3703  0.0645
  232loPI   C2B 3710  17.964   2.034   9.248  0.0114  0.0474 -0.2125
  232loPI   C3B 3711  17.953   2.137   8.826  0.3907 -0.2489  0.1593
  232loPI   C4B 3712  18.228   2.179   8.506  0.1134 -0.0559 -0.2666
  233loPI    C1 3713  14.475   7.428  10.718  0.1585 -0.0828 -0.0474
  233loPI    C2 3714  14.858   7.449  10.830  0.1540  0.3776 -0.0967
  233loPI    C3 3715  14.573   7.603  11.064  0.0004  0.0858 -0.0864
  233loPI   PO4 3716  14.521   7.380  10.449  0.2865  0.3896 -0.1637
  233loPI   GL1 3717  14.308   7.312   9.999  0.1228  0.2041  0.1496
  233loPI   GL2 3718  14.639   7.197  10.009  0.0890 -0.1728  0.4373
  233loPI   C1A 3719  14.396   7.471   9.577  0.1440 -0.0077 -0.1556
  233loPI   C2A 3720  14.308   7.481   9.059 -0.0895  0.3155  0.1251
  233loPI   C3A 3721  14.299   7.441   8.631 -0.1107 -0.0785 -0.0886
  233loPI   C4A 3722  14.341   7.237   8.226  0.3029  0.1264  0.1173
  233loPI   C5A 3723  14.670   7.035   8.090 -0.1983  0.1920  0.1300
  233loPI   C6A 3724  14.842   6.631   7.852  0.1835 -0.5019  0.0720
  233loPI   C1B 3725  14.779   7.246   9.659 -0.0076  0.1281 -0.1705
  233loPI   C2B 3726  14.890   7.269   9.223 -0.2614 -0.0222  0.2607
  233loPI   C3B 3727  14.768   7.416   8.808 -0.2137 -0.3389 -0.2931
  233loPI   C4B 3728  15.067   7.445   8.458 -0.2027  0.1962 -0.3486
  234loPI    C1 3729  16.621   2.894  10.534 -0.1697 -0.0881  0.1109
  234loPI    C2 3730  16.512   3.030  10.894  0.0209  0.1396  0.0851
  234loPI    C3 3731  16.890   2.919  10.829 -0.0139  0.0964 -0.0446
  234loPI   PO4 3732  16.540   3.051  10.419 -0.1501 -0.1308 -0.0961
  234loPI   GL1 3733  16.382   2.928  10.058 -0.0703  0.0886 -0.3458
  234loPI   GL2 3734  16.063   2.943  10.131  0.0674 -0.0950 -0.0894
  234loPI   C1A 3735  16.540   3.010   9.675  0.0834  0.3805 -0.1197
  234loPI   C2A 3736  16.617   3.051   9.297  0.1246  0.2141 -0.2295
  234loPI   C3A 3737  16.637   2.932   8.856 -0.1175 -0.2831  0.1428
  234loPI   C4A 3738  16.650   2.697   8.572  0.2931 -0.1343 -0.0466
  234loPI   C5A 3739  16.977   2.505   8.285  0.0119  0.4585  0.2463
  234loPI   C6A 3740  17.546   2.545   8.337  0.1918 -0.1258  0.0326
  234loPI   C1B 3741  16.043   3.029   9.726 -0.0321 -0.1219  0.1066
  234loPI   C2B 3742  16.082   3.093   9.291 -0.2774  0.2001  0.0529
  234loPI   C3B 3743  16.062   3.038   8.915  0.1479 -0.1194 -0.0142
  234loPI   C4B 3744  16.203   2.975   8.533 -0.0653 -0.3009  0.0262
  235loPI    C1 3745  15.194  16.735  10.274 -0.0769  0.0762 -0.3255
  235loPI    C2 3746  14.905  16.940  10.458 -0.0243 -0.0059 -0.1495
  235loPI    C3 3747  15.239  16.845  10.656 -0.0568 -0.2786 -0.2224
  235loPI   PO4 3748  14.982  16.700  10.015  0.1240  0.3513  0.2038
  235loPI   GL1 3749  15.041  16.598   9.603 -0.2742  0.0559  0.1407
  235loPI   GL2 3750  14.732  16.774   9.589 -0.3334  0.1222 -0.2887
  235loPI   C1A 3751  14.889  16.787   9.132 -0.1894  0.0780  0.3841
  235loPI   C2A 3752  14.842  16.682   8.744 -0.0322 -0.1176 -0.0211
  235loPI   C3A 3753  14.722  16.666   8.279  0.1829  0.0476  0.1169
  235loPI   C4A 3754  14.676  16.601   7.925 -0.2090 -0.0138  0.1365
  235loPI   C5A 3755  14.900  16.363   7.638 -0.0108 -0.1201  0.1117
  235loPI   C6A 3756  14.911  16.286   7.172  0.0010  0.1362  0.1079
  235loPI   C1B 3757  14.861  17.231   9.483  0.0357 -0.2801  0.2526
  235loPI   C2B 3758  15.054  17.522   9.197 -0.1344 -0.0191 -0.1307
  235loPI   C3B 3759  15.043  17.711   8.804 -0.0410 -0.1494  0.1064
  235loPI   C4B 3760  14.879  17.796   8.395  0.0262  0.1721  0.0548
  236loPI    C1 3761   8.080  13.544  10.260 -0.1981  0.0227 -0.0069
  236loPI    C2 3762   8.430  13.380  10.157 -0.1050  0.0824  0.2093
  236loPI    C3 3763   8.419  13.674  10.428 -0.3327  0.0157  0.2745
  236loPI   PO4 3764   7.977  13.614   9.964  0.2847  0.0398  0.1808
  236loPI   GL1 3765   8.207  13.677   9.588  0.2531  0.0695  0.0357
  236loPI   GL2 3766   8.426  13.893   9.373 -0.1496 -0.2605 -0.0559
  236loPI   C1A 3767   8.118  13.485   9.249 -0.2050  0.0002  0.5861
  236loPI   C2A 3768   7.988  13.495   8.835  0.0177  0.3120  0.1957
  236loPI   C3A 3769   7.737  13.491   8.488 -0.1865 -0.2708 -0.0524
  236loPI   C4A 3770   7.943  13.466   8.129  0.2358  0.2709  0.0211
  236loPI   C5A 3771   8.102  13.645   7.702 -0.4420  0.2762  0.2052
  236loPI   C6A 3772   7.797  13.706   7.282  0.0375 -0.0187 -0.1853
  236loPI   C1B 3773   8.566  13.667   9.056  0.0148 -0.0726 -0.1353
  236loPI   C2B 3774   8.567  13.774   8.636  0.3915  0.1935  0.2098
  236loPI   C3B 3775   8.479  13.717   8.238  0.2207 -0.0277 -0.3303
  236loPI   C4B 3776   8.486  13.882   7.912 -0.2682 -0.0082  0.1218
  237loPI    C1 3777  15.981  13.905  10.198 -0.1132 -0.0020  0.1069
  237loPI    C2 3778  15.930  14.282  10.322  0.0861  0.0537  0.0229
  237loPI    C3 3779  16.139  14.024  10.545 -0.1477 -0.0403  0.1357
  237loPI   PO4 3780  15.749  13.886  10.021 -0.4796  0.1707 -0.3207
  237loPI   GL1 3781  15.656  13.929   9.560 -0.3334  0.0820 -0.2478
  237loPI   GL2 3782  15.418  14.138   9.629 -0.0183  0.1778  0.0766
  237loPI   C1A 3783  15.679  13.702   9.110 -0.0004  0.2230 -0.1020
  237loPI   C2A 3784  15.722  13.735   8.586 -0.3563 -0.0842  0.0961
  237loPI   C3A 3785  15.718  13.508   8.227 -0.1152  0.1351 -0.1497
  237loPI   C4A 3786  15.496  13.255   7.853 -0.1944 -0.0956  0.1639
  237loPI   C5A 3787  15.279  13.121   7.587  0.3480 -0.2510 -0.2006
  237loPI   C6A 3788  15.095  12.738   7.404  0.0234 -0.0964 -0.1054
  237loPI   C1B 3789  15.505  14.135   9.109  0.3573 -0.2106  0.1995
  237loPI   C2B 3790  15.454  14.272   8.642  0.1194 -0.2638 -0.2816
  237loPI   C3B 3791  15.695  14.269   8.286  0.3740 -0.1197 -0.0863
  237loPI   C4B 3792  15.844  14.271   7.942  0.0470  0.1861 -0.1374
  238loPI    C1 3793  14.339  12.082  10.410 -0.1522 -0.1928 -0.0912
  238loPI    C2 3794  14.382  11.784  10.673  0.5779 -0.0814 -0.0637
  238loPI    C3 3795  14.499  12.154  10.770 -0.0892  0.1761 -0.1888
  238loPI   PO4 3796  14.389  11.974  10.168  0.1875  0.1922 -0.1049
  238loPI   GL1 3797  14.368  11.954   9.657 -0.2616 -0.2214  0.2465
  238loPI   GL2 3798  14.732  12.064   9.737  0.1045 -0.3167 -0.2173
  238loPI   C1A 3799  14.383  12.093   9.234 -0.0099  0.3042 -0.0756
  238loPI   C2A 3800  14.426  12.175   8.764  0.3326  0.3457  0.3335
  238loPI   C3A 3801  14.507  12.368   8.335  0.0894 -0.0224 -0.0536
  238loPI   C4A 3802  14.470  12.092   7.861  0.0884  0.3835 -0.1312
  238loPI   C5A 3803  14.728  11.862   7.546  0.0813 -0.0927  0.1801
  238loPI   C6A 3804  15.145  11.751   7.738  0.2918  0.0528 -0.2378
  238loPI   C1B 3805  14.843  12.062   9.285 -0.2236  0.3452 -0.1089
  238loPI   C2B 3806  14.915  12.037   8.948  0.0019 -0.0754  0.0060
  238loPI   C3B 3807  15.228  11.963   8.612  0.3955  0.1708  0.2860
  238loPI   C4B 3808  15.289  11.961   8.155  0.0186 -0.3371 -0.2613
  239loPI    C1 3809  11.044   6.361  10.263  0.3860 -0.1565 -0.1551
  239loPI    C2 3810  11.104   6.334  10.658  0.1282 -0.0183 -0.1040
  239loPI    C3 3811  11.259   6.641  10.453 -0.1536  0.1822 -0.0220
  239loPI   PO4 3812  10.901   6.354  10.186 -0.3108 -0.2266  0.1128
  239loPI   GL1 3813  10.868   6.401   9.682  0.2251  0.1716  0.0639
  239loPI   GL2 3814  10.469   6.528   9.513 -0.0145 -0.4485 -0.3162
  239loPI   C1A 3815  11.088   6.411   9.278 -0.1133  0.0522 -0.1605
  239loPI   C2A 3816  11.171   6.409   8.833 -0.2971  0.1976  0.1301
  239loPI   C3A 3817  11.235   5.926   8.633 -0.2798 -0.0954  0.1375
  239loPI   C4A 3818  11.273   5.574   8.319 -0.1409  0.0755  0.0386
  239loPI   C5A 3819  11.229   5.222   7.944  0.1407  0.2805 -0.0489
  239loPI   C6A 3820  10.994   4.888   7.814 -0.2772  0.0367 -0.0724
  239loPI   C1B 3821  10.568   6.442   9.130 -0.0344 -0.2747  0.3151
  239loPI   C2B 3822  10.711   6.421   8.719 -0.1188 -0.1805 -0.0599
  239loPI   C3B 3823  10.897   6.105   8.356  0.0139 -0.0310 -0.3096
  239loPI   C4B 3824  10.883   5.850   8.027  0.1976  0.3835 -0.0120
  240loPI    C1 3825   7.918  17.588   9.728  0.0085  0.1449  0.0412
  240loPI    C2 3826   7.744  17.563  10.087 -0.1266 -0.0289 -0.0348
  240loPI    C3 3827   7.966  17.883   9.994  0.0144 -0.0411  0.2489
  240loPI   PO4 3828   7.730  17.537   9.552  0.1839 -0.2285  0.0833
  240loPI   GL1 3829   7.623  17.534   9.248 -0.4168 -0.1675  0.0145
  240loPI   GL2 3830   7.861  17.755   9.111 -0.1141  0.0805  0.1268
  240loPI   C1A 3831   7.369  17.405   8.958 -0.3274 -0.0898  0.1594
  240loPI   C2A 3832   7.176  17.360   8.464  0.1574 -0.3027 -0.0493
  240loPI   C3A 3833   7.209  17.246   7.976 -0.3813 -0.0341 -0.1247
  240loPI   C4A 3834   7.145  17.061   7.518 -0.1266 -0.1077  0.2866
  240loPI   C5A 3835   6.947  16.676   7.465  0.1609 -0.2831 -0.0011
  240loPI   C6A 3836   6.854  16.235   7.290 -0.3657 -0.0188 -0.3284
  240loPI   C1B 3837   7.657  17.791   8.730  0.3287  0.0390  0.1197
  240loPI   C2B 3838   7.634  17.636   8.319  0.0854 -0.2366 -0.0548
  240loPI   C3B 3839   7.687  17.465   7.929 -0.1508 -0.0965 -0.0710
  240loPI   C4B 3840   7.435  17.489   7.514  0.0382  0.3840 -0.5978
  241loPI    C1 3841  12.013   9.368   9.921  0.0618 -0.1135 -0.0708
  241loPI    C2 3842  12.327   9.123   9.956  0.0880 -0.0648  0.0408
  241loPI    C3 3843  12.099   9.202  10.275  0.0789  0.0551  0.0050
  241loPI   PO4 3844  12.126   9.578   9.811  0.0062 -0.0308  0.0996
  241loPI   GL1 3845  12.335   9.483   9.312 -0.1167  0.1561  0.2277
  241loPI   GL2 3846  12.381   9.144   9.438  0.0020 -0.0931  0.0192
  241loPI   C1A 3847  12.396   9.409   8.971 -0.2681  0.2367  0.2468
  241loPI   C2A 3848  12.549   9.425   8.606  0.1717  0.0252  0.0885
  241loPI   C3A 3849  12.862   9.502   8.337  0.0741  0.1542 -0.0142
  241loPI   C4A 3850  13.168   9.486   7.916 -0.0155  0.1197 -0.1634
  241loPI   C5A 3851  13.269   9.676   7.618  0.0326  0.2440 -0.1227
  241loPI   C6A 3852  13.352  10.151   7.553  0.3061 -0.0350 -0.0256
  241loPI   C1B 3853  12.475   8.919   9.004  0.2271 -0.0227  0.2169
  241loPI   C2B 3854  12.572   8.913   8.537  0.4133  0.2001  0.1732
  241loPI   C3B 3855  12.655   9.138   8.109  0.4406  0.0824 -0.2169
  241loPI   C4B 3856  12.788   9.138   7.678  0.2923  0.1123 -0.0954
  242loPI    C1 3857   1.431   4.629  10.934  0.0002  0.0227  0.2091
  242loPI    C2 3858   1.769   4.430  10.856 -0.0861 -0.0217 -0.0626
  242loPI    C3 3859   1.482   4.259  11.077 -0.0010 -0.0487  0.0276
  242loPI   PO4 3860   1.367   4.770  10.670  0.1808 -0.0465  0.0092
  242loPI   GL1 3861   1.092   4.772  10.277 -0.3251 -0.1819 -0.2831
  242loPI   GL2 3862   1.082   5.127  10.281 -0.0601  0.3250  0.0274
  242loPI   C1A 3863   1.097   4.770   9.800  0.0693 -0.3158  0.0809
  242loPI   C2A 3864   1.104   4.900   9.377  0.3888 -0.3969  0.1224
  242loPI   C3A 3865   1.027   5.081   8.960 -0.3507  0.1264 -0.2686
  242loPI   C4A 3866   0.993   5.074   8.565  0.1421  0.1090 -0.0825
  242loPI   C5A 3867   1.306   5.029   8.189 -0.3895 -0.2264 -0.3837
  242loPI   C6A 3868   1.513   4.656   8.025 -0.3191  0.0386  0.0433
  242loPI   C1B 3869   0.939   5.381   9.887 -0.2623  0.0478 -0.0683
  242loPI   C2B 3870   0.756   5.381   9.459  0.0210 -0.1168 -0.0649
  242loPI   C3B 3871   0.639   5.692   9.101 -0.1818  0.0276  0.1162
  242loPI   C4B 3872   0.251   5.725   8.837 -0.1495  0.1086  0.2178
  243loPI    C1 3873  14.300  14.259  10.317 -0.1695 -0.1198  0.1643
  243loPI    C2 3874  14.587  14.477  10.491  0.0807 -0.2573 -0.0689
  243loPI    C3 3875  14.210  14.609  10.489  0.1391 -0.0752  0.2418
  243loPI   PO4 3876  14.465  14.186  10.077 -0.1073 -0.2882 -0.3907
  243loPI   GL1 3877  14.572  14.052   9.688  0.2118 -0.2032  0.0397
  243loPI   GL2 3878  14.970  14.084   9.806  0.2228  0.2861  0.2683
  243loPI   C1A 3879  14.549  13.865   9.238 -0.0658  0.3814  0.0692
  243loPI   C2A 3880  14.679  13.901   8.798  0.1571 -0.1036  0.4249
  243loPI   C3A 3881  14.845  13.748   8.373  0.2476  0.1878  0.1333
  243loPI   C4A 3882  14.906  13.902   7.959  0.2276 -0.2905 -0.0234
  243loPI   C5A 3883  15.047  14.181   7.631 -0.0367  0.0893 -0.1342
  243loPI   C6A 3884  15.125  14.238   7.218  0.0404  0.3496 -0.3840
  243loPI   C1B 3885  14.917  14.182   9.360 -0.2335  0.0084  0.0044
  243loPI   C2B 3886  15.010  14.251   8.944  0.0859 -0.2263  0.1456
  243loPI   C3B 3887  14.999  14.202   8.547 -0.0332  0.4248  0.0456
  243loPI   C4B 3888  15.185  14.357   8.184 -0.1388  0.1421  0.3662
  244loPI    C1 3889  16.253   0.793   9.894 -0.0158  0.2697  0.0446
  244loPI    C2 3890  16.604   0.673  10.044 -0.0696 -0.1176 -0.1260
  244loPI    C3 3891  16.275   0.662  10.271 -0.0560 -0.2046 -0.1104
  244loPI   PO4 3892  16.281   0.912   9.751 -0.0029 -0.3276 -0.3860
  244loPI   GL1 3893  16.269   1.212   9.523  0.3315  0.0481  0.0613
  244loPI   GL2 3894  16.526   1.477   9.681  0.2450 -0.0388  0.2585
  244loPI   C1A 3895  16.197   1.305   9.080  0.1396 -0.1733 -0.0903
  244loPI   C2A 3896  16.176   1.219   8.718 -0.2235 -0.1591 -0.0640
  244loPI   C3A 3897  16.453   1.193   8.434  0.0578 -0.1113 -0.0270
  244loPI   C4A 3898  16.526   1.397   8.062 -0.1685  0.0065  0.0046
  244loPI   C5A 3899  16.399   1.782   7.807 -0.0944 -0.2929  0.2008
  244loPI   C6A 3900  16.165   2.101   8.011  0.2000  0.1228 -0.3304
  244loPI   C1B 3901  16.668   1.359   9.210  0.1057  0.0267 -0.1591
  244loPI   C2B 3902  16.738   1.403   8.776 -0.1896  0.1265  0.4008
  244loPI   C3B 3903  16.697   1.698   8.450  0.1463 -0.0570  0.2456
  244loPI   C4B 3904  16.587   2.194   8.266 -0.0349 -0.0886  0.0819
  245loPI    C1 3905   0.792  16.289  10.289 -0.1640 -0.3007  0.0213
  245loPI    C2 3906   0.540  16.574  10.168  0.2119 -0.0233 -0.1277
  245loPI    C3 3907   0.411  16.284  10.412 -0.1867  0.2478 -0.0049
  245loPI   PO4 3908   0.882  16.236   9.993  0.1526  0.0243 -0.0938
  245loPI   GL1 3909   1.090  16.494   9.714  0.1218 -0.1397 -0.4494
  245loPI   GL2 3910   0.814  16.629   9.756 -0.2280 -0.0480  0.1181
  245loPI   C1A 3911   1.322  16.543   9.296 -0.2048 -0.0574  0.0681
  245loPI   C2A 3912   1.334  16.594   8.888 -0.0019  0.1407  0.1135
  245loPI   C3A 3913   1.417  16.783   8.517 -0.4334 -0.0184  0.1130
  245loPI   C4A 3914   1.469  16.734   8.056 -0.1923 -0.2357 -0.1780
  245loPI   C5A 3915   1.213  16.818   7.710 -0.0742  0.2829  0.0425
  245loPI   C6A 3916   1.397  16.971   7.373  0.2066  0.0400 -0.3290
  245loPI   C1B 3917   0.848  16.799   9.416  0.3055  0.2702  0.3011
  245loPI   C2B 3918   0.976  16.931   9.082  0.0976  0.1529  0.0182
  245loPI   C3B 3919   0.934  16.855   8.590  0.2360  0.2368 -0.2810
  245loPI   C4B 3920   0.994  16.768   8.266  0.1616 -0.1867  0.0162
  246loPI    C1 3921  15.898   0.127  10.242 -0.0984 -0.2356 -0.1466
  246loPI    C2 3922  15.551   0.126  10.441  0.0393 -0.1332  0.0978
  246loPI    C3 3923  15.825  -0.157  10.513 -0.0094 -0.2402 -0.1274
  246loPI   PO4 3924  15.905   0.358  10.155  0.0639 -0.0976  0.2054
  246loPI   GL1 3925  15.831   0.468   9.766  0.0975  0.2373 -0.2946
  246loPI   GL2 3926  15.774   0.819   9.667 -0.1694 -0.2236 -0.2635
  246loPI   C1A 3927  15.489   0.396   9.473 -0.0581 -0.1892 -0.0259
  246loPI   C2A 3928  15.509   0.533   9.049 -0.2604 -0.0427  0.1200
  246loPI   C3A 3929  15.572   0.495   8.674 -0.2688 -0.4014 -0.1069
  246loPI   C4A 3930  15.690   0.540   8.306  0.0818 -0.0944 -0.3529
  246loPI   C5A 3931  15.763   0.766   7.934 -0.1788  0.4602  0.0773
  246loPI   C6A 3932  15.989   0.991   7.672  0.2248  0.1018 -0.1857
  246loPI   C1B 3933  15.919   0.713   9.300 -0.0690 -0.1658 -0.0190
  246loPI   C2B 3934  15.954   0.822   8.885 -0.0189 -0.3934  0.1584
  246loPI   C3B 3935  16.100   0.767   8.483 -0.1315  0.0834 -0.1949
  246loPI   C4B 3936  16.328   0.603   8.095 -0.2567 -0.0807 -0.1227
  247loPI    C1 3937  17.205  12.698  10.334  0.2934  0.1824 -0.0757
  247loPI    C2 3938  17.305  12.354  10.157 -0.1292 -0.0325  0.0896
  247loPI    C3 3939  17.399  12.416  10.540  0.0375  0.0809  0.0311
  247loPI   PO4 3940  17.051  12.807  10.049 -0.3653 -0.4290 -0.1023
  247loPI   GL1 3941  16.775  12.855   9.734  0.0306 -0.1556  0.2398
  247loPI   GL2 3942  17.068  12.921   9.569  0.1015  0.2664 -0.0077
  247loPI   C1A 3943  16.679  12.806   9.264  0.4074 -0.2589 -0.1179
  247loPI   C2A 3944  16.836  12.919   8.821 -0.2611  0.0503  0.1292
  247loPI   C3A 3945  16.855  12.907   8.422 -0.3252 -0.0270  0.0250
  247loPI   C4A 3946  16.829  12.744   8.114  0.0901 -0.3124 -0.2972
  247loPI   C5A 3947  16.708  12.458   7.738  0.0108  0.0975 -0.0675
  247loPI   C6A 3948  16.290  12.336   7.718 -0.1222 -0.1939  0.1287
  247loPI   C1B 3949  17.166  12.997   9.133 -0.3656 -0.2333  0.0802
  247loPI   C2B 3950  17.300  12.955   8.698 -0.2082 -0.0539 -0.0744
  247loPI   C3B 3951  17.317  12.798   8.244 -0.0842  0.0207  0.0773
  247loPI   C4B 3952  17.333  12.938   7.804 -0.0707 -0.3631 -0.0449
  248loPI    C1 3953  16.753  14.783  10.100  0.3046  0.1202  0.0914
  248loPI    C2 3954  16.811  14.894  10.480 -0.0540 -0.0872  0.2116
  248loPI    C3 3955  16.953  14.543  10.349  0.1328  0.0168  0.1318
  248loPI   PO4 3956  16.606  14.923   9.983  0.5599  0.1310 -0.1203
  248loPI   GL1 3957  16.592  15.126   9.551 -0.2637 -0.0610 -0.2265
  248loPI   GL2 3958  16.865  15.190   9.402  0.1053 -0.1908 -0.0390
  248loPI   C1A 3959  16.423  15.428   9.220  0.0109  0.0535 -0.0974
  248loPI   C2A 3960  16.482  15.559   8.866 -0.0122  0.0869  0.1931
  248loPI   C3A 3961  16.472  15.546   8.507 -0.3988 -0.1615 -0.0378
  248loPI   C4A 3962  16.716  15.459   8.169  0.4789  0.1153 -0.2715
  248loPI   C5A 3963  16.851  15.635   7.780 -0.0658  0.0772 -0.1911
  248loPI   C6A 3964  16.745  16.076   7.674 -0.1881  0.2874  0.0849
  248loPI   C1B 3965  16.759  15.168   8.926 -0.0079  0.0022 -0.2067
  248loPI   C2B 3966  17.016  15.178   8.545  0.1721 -0.1270 -0.0086
  248loPI   C3B 3967  17.182  15.141   8.039 -0.2681  0.3448  0.2405
  248loPI   C4B 3968  17.392  14.851   7.698  0.2032 -0.0835  0.0687
  249loPI    C1 3969  15.918   9.450  10.492 -0.0417  0.1221 -0.0760
  249loPI    C2 3970  15.757   9.793  10.365  0.2178  0.3132  0.0987
  249loPI    C3 3971  15.602   9.604  10.682  0.0139  0.2145 -0.0575
  249loPI   PO4 3972  16.015   9.293  10.177  0.2376  0.5567 -0.1113
  249loPI   GL1 3973  15.944   8.949   9.881 -0.0556 -0.1011 -0.3582
  249loPI   GL2 3974  15.646   9.042   9.757 -0.2432 -0.2296 -0.1249
  249loPI   C1A 3975  16.165   8.980   9.532 -0.2189  0.0330  0.3952
  249loPI   C2A 3976  16.218   8.771   9.201 -0.2095 -0.0612  0.0017
  249loPI   C3A 3977  16.332   8.641   8.809 -0.0519 -0.4321  0.1512
  249loPI   C4A 3978  16.552   8.415   8.452  0.0555 -0.0383 -0.0105
  249loPI   C5A 3979  16.983   8.510   8.261  0.0204 -0.4151  0.4208
  249loPI   C6A 3980  17.157   8.441   7.854  0.2454  0.1203 -0.0209
  249loPI   C1B 3981  15.756   8.838   9.358 -0.2641  0.3522  0.2380
  249loPI   C2B 3982  15.724   8.628   8.926 -0.1003  0.1809  0.1040
  249loPI   C3B 3983  15.696   8.354   8.511 -0.0118  0.1856 -0.2841
  249loPI   C4B 3984  15.790   8.342   8.044 -0.1764  0.1415  0.0247
  250loPI    C1 3985  13.971   0.620  10.758 -0.0668 -0.2126 -0.2752
  250loPI    C2 3986  14.265   0.891  10.749 -0.3270  0.0897  0.0502
  250loPI    C3 3987  14.301   0.566  10.978 -0.0155 -0.1596 -0.3385
  250loPI   PO4 3988  13.905   0.614  10.452  0.0959  0.2559  0.3514
  250loPI   GL1 3989  14.059   0.651  10.009  0.1041 -0.0569  0.0060
  250loPI   GL2 3990  13.805   0.779   9.895  0.2225  0.3197  0.1456
  250loPI   C1A 3991  14.145   0.668   9.514  0.0503  0.1880 -0.0999
  250loPI   C2A 3992  14.155   0.627   9.097 -0.1640 -0.0693 -0.0533
  250loPI   C3A 3993  14.204   0.669   8.677 -0.1258 -0.3407  0.0229
  250loPI   C4A 3994  14.227   0.787   8.253 -0.2707 -0.1853  0.2620
  250loPI   C5A 3995  14.238   0.835   7.883  0.0282  0.1264  0.1195
  250loPI   C6A 3996  14.275   0.969   7.440 -0.1335 -0.2290  0.1161
  250loPI   C1B 3997  13.673   0.752   9.511 -0.0830  0.1030 -0.0668
  250loPI   C2B 3998  13.581   0.813   9.131 -0.1860 -0.1839  0.1403
  250loPI   C3B 3999  13.420   0.903   8.759  0.0978 -0.2169  0.1101
  250loPI   C4B 4000  13.307   1.201   8.420  0.1697  0.0954  0.0242
  251loPI    C1 4001  12.031  13.130  10.388 -0.0000  0.0685 -0.1307
  251loPI    C2 4002  12.190  12.777  10.488  0.0019  0.1306  0.0912
  251loPI    C3 4003  12.376  13.116  10.589 -0.1131  0.1986  0.0761
  251loPI   PO4 4004  11.974  13.084  10.057 -0.0324 -0.2426 -0.0409
  251loPI   GL1 4005  12.270  13.119   9.559  0.1141 -0.1484  0.4323
  251loPI   GL2 4006  12.059  13.346   9.479  0.1211 -0.0301  0.1236
  251loPI   C1A 4007  12.409  12.868   9.257 -0.0712  0.0759 -0.1177
  251loPI   C2A 4008  12.480  12.820   8.817  0.0157 -0.0157 -0.1287
  251loPI   C3A 4009  12.566  12.805   8.389  0.1999 -0.3031 -0.0155
  251loPI   C4A 4010  12.578  12.689   7.998  0.0735  0.0930 -0.0304
  251loPI   C5A 4011  12.525  12.815   7.598  0.0809  0.0614  0.4230
  251loPI   C6A 4012  12.219  12.816   7.313 -0.1906  0.0447 -0.3367
  251loPI   C1B 4013  11.939  13.323   9.101 -0.0590 -0.3129 -0.0042
  251loPI   C2B 4014  12.192  13.176   8.847 -0.2061  0.1097  0.3134
  251loPI   C3B 4015  12.308  13.313   8.467  0.2312 -0.0456  0.1903
  251loPI   C4B 4016  12.451  13.193   8.067 -0.0096  0.1688  0.2790
  252loPI    C1 4017   1.161   6.027  10.720 -0.0013  0.0513  0.1806
  252loPI    C2 4018   1.006   6.393  10.676 -0.1499 -0.0143  0.1521
  252loPI    C3 4019   1.070   6.246  11.042 -0.0859  0.0415  0.1637
  252loPI   PO4 4020   1.275   6.080  10.401 -0.2480  0.0396  0.1567
  252loPI   GL1 4021   1.318   5.762  10.011 -0.0498  0.0214 -0.5628
  252loPI   GL2 4022   1.564   5.938  10.044 -0.1096  0.0045  0.1664
  252loPI   C1A 4023   1.063   5.790   9.573 -0.1513 -0.1558 -0.0936
  252loPI   C2A 4024   0.760   5.990   9.524  0.1002  0.1009  0.2387
  252loPI   C3A 4025   0.732   6.185   9.126 -0.3872 -0.1028  0.3198
  252loPI   C4A 4026   0.618   6.144   8.766  0.0635 -0.2176  0.1126
  252loPI   C5A 4027   0.554   5.916   8.453  0.4245 -0.0567  0.0243
  252loPI   C6A 4028   0.324   5.600   8.363  0.1290  0.2842  0.0292
  252loPI   C1B 4029   1.501   5.972   9.557 -0.1808 -0.0590 -0.0296
  252loPI   C2B 4030   1.585   5.972   9.149  0.0005 -0.0227  0.1204
  252loPI   C3B 4031   1.535   5.846   8.728  0.2187 -0.0108 -0.1614
  252loPI   C4B 4032   1.669   5.770   8.298  0.1728  0.1211 -0.2610
  253loPI    C1 4033  15.358  13.149  10.170  0.2196  0.0251 -0.2217
  253loPI    C2 4034  15.610  13.452  10.241 -0.0063  0.1265  0.1783
  253loPI    C3 4035  15.476  13.228  10.544  0.0034 -0.2536 -0.0914
  253loPI   PO4 4036  15.213  13.216  10.006  0.0005  0.0413  0.2218
  253loPI   GL1 4037  15.173  12.914   9.624  0.0662  0.0827 -0.1048
  253loPI   GL2 4038  15.305  12.724   9.812  0.1797 -0.1147  0.0972
  253loPI   C1A 4039  15.032  12.933   9.238  0.1134 -0.3046  0.1224
  253loPI   C2A 4040  15.103  12.962   8.765  0.0802  0.0427  0.3208
  253loPI   C3A 4041  15.339  12.881   8.420  0.0185  0.0591 -0.0115
  253loPI   C4A 4042  15.312  12.767   8.002 -0.4599 -0.2518 -0.1943
  253loPI   C5A 4043  15.544  12.753   7.672  0.1513 -0.0312 -0.0758
  253loPI   C6A 4044  15.850  13.081   7.450  0.2952  0.2252  0.0554
  253loPI   C1B 4045  15.630  12.862   9.445  0.1414 -0.3344 -0.0210
  253loPI   C2B 4046  15.758  12.846   8.940  0.1289 -0.2436 -0.0068
  253loPI   C3B 4047  15.832  12.859   8.484 -0.0885  0.0216 -0.2126
  253loPI   C4B 4048  15.835  12.935   8.074 -0.2315  0.3233 -0.1917
  254loPI    C1 4049   1.150  10.880  10.264 -0.1767 -0.0169 -0.1224
  254loPI    C2 4050   1.140  10.553  10.494  0.1150  0.0440 -0.0188
  254loPI    C3 4051   0.930  10.565  10.154 -0.2841 -0.0649  0.2169
  254loPI   PO4 4052   1.343  10.967  10.185  0.1229 -0.1501 -0.1573
  254loPI   GL1 4053   1.210  11.242   9.861  0.1479 -0.2332  0.1532
  254loPI   GL2 4054   0.870  11.463   9.872 -0.0322  0.1080 -0.3486
  254loPI   C1A 4055   1.236  11.277   9.481  0.1507  0.0367  0.0471
  254loPI   C2A 4056   1.358  11.190   9.038 -0.2106  0.0195  0.1522
  254loPI   C3A 4057   1.598  11.133   8.608 -0.1539  0.3584  0.1468
  254loPI   C4A 4058   1.925  11.121   8.307  0.2921 -0.2211 -0.3322
  254loPI   C5A 4059   2.108  10.936   8.136 -0.1815  0.0316 -0.2018
  254loPI   C6A 4060   2.339  10.804   7.848 -0.0171 -0.1308  0.1255
  254loPI   C1B 4061   0.763  11.613   9.494  0.0991  0.0963 -0.1045
  254loPI   C2B 4062   0.758  11.776   9.113  0.0605  0.0990 -0.0945
  254loPI   C3B 4063   0.815  11.611   8.826  0.3032 -0.0288  0.1007
  254loPI   C4B 4064   0.751  11.416   8.353 -0.0461 -0.2109  0.1470
  255loPI    C1 4065   8.401  12.446  10.056 -0.1018  0.0213 -0.1659
  255loPI    C2 4066   8.611  12.660  10.321  0.1221 -0.1129 -0.2322
  255loPI    C3 4067   8.266  12.489  10.430  0.0972  0.0244 -0.0932
  255loPI   PO4 4068   8.382  12.587   9.850  0.2321  0.2533  0.1321
  255loPI   GL1 4069   8.480  12.666   9.481 -0.0658 -0.0062  0.1115
  255loPI   GL2 4070   8.573  12.918   9.498  0.1778 -0.0275 -0.2256
  255loPI   C1A 4071   8.483  12.627   9.115 -0.2020 -0.1148 -0.1243
  255loPI   C2A 4072   8.402  12.710   8.642 -0.2068  0.1092  0.0788
  255loPI   C3A 4073   8.206  12.650   8.131 -0.1376 -0.1959 -0.2866
  255loPI   C4A 4074   8.287  12.641   7.778  0.2948  0.1207  0.0316
  255loPI   C5A 4075   8.353  12.897   7.388  0.0391  0.0240  0.0692
  255loPI   C6A 4076   8.488  13.323   7.267  0.0791  0.1142  0.1206
  255loPI   C1B 4077   8.618  13.132   9.171 -0.1314 -0.2752 -0.0049
  255loPI   C2B 4078   8.516  13.218   8.719 -0.1389 -0.0203 -0.1201
  255loPI   C3B 4079   8.336  13.166   8.310  0.0965  0.3672  0.0363
  255loPI   C4B 4080   8.256  13.132   7.854 -0.1229 -0.0019 -0.3370
  256loPI    C1 4081   6.545   2.422  10.456  0.1031  0.1748  0.3371
  256loPI    C2 4082   6.527   2.819  10.411 -0.2794  0.1113 -0.1703
  256loPI    C3 4083   6.323   2.641  10.706  0.0169  0.2970  0.1554
  256loPI   PO4 4084   6.493   2.340  10.258 -0.0265  0.0170 -0.0765
  256loPI   GL1 4085   6.645   2.084   9.936  0.0268 -0.5439 -0.0321
  256loPI   GL2 4086   6.447   1.795   9.745  0.0480 -0.0070  0.1140
  256loPI   C1A 4087   6.410   2.216   9.489 -0.0981 -0.0317 -0.0161
  256loPI   C2A 4088   6.313   2.276   9.071  0.0774  0.1019  0.3270
  256loPI   C3A 4089   6.214   2.284   8.657 -0.2870  0.1040  0.2994
  256loPI   C4A 4090   6.138   2.170   8.230 -0.0676  0.0099  0.1027
  256loPI   C5A 4091   5.915   2.514   7.981 -0.4209 -0.3408  0.1060
  256loPI   C6A 4092   5.548   2.554   7.664  0.2169 -0.1000  0.0987
  256loPI   C1B 4093   6.652   1.791   9.379  0.0406  0.0459 -0.2488
  256loPI   C2B 4094   6.547   1.720   9.067 -0.0616  0.0208 -0.2252
  256loPI   C3B 4095   6.421   1.843   8.701 -0.1339 -0.0804 -0.0229
  256loPI   C4B 4096   6.399   1.736   8.299 -0.0664 -0.0280 -0.0995
  257loPI    C1 4097  17.677   5.884  10.880  0.0269  0.2588  0.2196
  257loPI    C2 4098  17.743   5.562  11.108  0.2258  0.0759 -0.0882
  257loPI    C3 4099  17.507   5.535  10.786  0.2309  0.2421 -0.1070
  257loPI   PO4 4100  17.904   6.023  10.796 -0.2420  0.1408  0.2493
  257loPI   GL1 4101  18.223   5.992  10.562 -0.2834 -0.1686  0.1744
  257loPI   GL2 4102  18.229   6.226  10.329  0.0404  0.0721 -0.1303
  257loPI   C1A 4103  18.282   5.652  10.162 -0.3088  0.0281 -0.1352
  257loPI   C2A 4104  18.421   5.734   9.823  0.1953  0.2718 -0.0975
  257loPI   C3A 4105  18.613   5.651   9.383 -0.0347 -0.1851 -0.2307
  257loPI   C4A 4106  18.348   5.411   9.099  0.0248 -0.0844  0.0742
  257loPI   C5A 4107  18.370   5.374   8.713 -0.0009 -0.2376  0.1563
  257loPI   C6A 4108  18.246   5.525   8.386 -0.2958  0.1431 -0.1679
  257loPI   C1B 4109  18.333   6.287   9.904  0.2049 -0.0380  0.2073
  257loPI   C2B 4110  18.300   6.304   9.513 -0.1602  0.2695 -0.0892
  257loPI   C3B 4111  17.991   6.351   9.163  0.2547  0.0454  0.0262
  257loPI   C4B 4112  18.080   6.382   8.679  0.2895 -0.1295  0.0074
  258loPI    C1 4113  16.746  12.297  10.399 -0.0815  0.0169  0.0171
  258loPI    C2 4114  16.644  12.499  10.069  0.1221  0.1411  0.0287
  258loPI    C3 4115  16.403  12.503  10.389 -0.0663  0.0363 -0.1100
  258loPI   PO4 4116  16.877  12.009  10.246 -0.1493  0.0850  0.2418
  258loPI   GL1 4117  17.009  11.762   9.865 -0.2064 -0.0747 -0.3356
  258loPI   GL2 4118  17.352  11.873   9.954 -0.0012 -0.1333  0.4658
  258loPI   C1A 4119  17.177  11.974   9.442  0.0592  0.2577 -0.4193
  258loPI   C2A 4120  17.344  11.939   9.059 -0.1933  0.0096 -0.1055
  258loPI   C3A 4121  17.419  11.977   8.704 -0.3782  0.1229 -0.0407
  258loPI   C4A 4122  17.564  11.930   8.325  0.0121  0.4484  0.0380
  258loPI   C5A 4123  17.644  11.774   7.971 -0.3439 -0.1599 -0.2210
  258loPI   C6A 4124  17.812  12.065   7.685  0.1634 -0.0222  0.3069
  258loPI   C1B 4125  17.570  12.139   9.792 -0.0306  0.1422  0.1162
  258loPI   C2B 4126  17.587  12.302   9.439  0.3527 -0.1554 -0.0818
  258loPI   C3B 4127  17.670  12.303   8.988  0.0033  0.1036  0.2343
  258loPI   C4B 4128  17.582  12.435   8.512  0.0149 -0.0809  0.1370
  259loPI    C1 4129   8.187  12.028   9.883  0.3995  0.0334  0.0790
  259loPI    C2 4130   8.240  12.030  10.279 -0.2345  0.3083  0.1739
  259loPI    C3 4131   8.012  11.748  10.110  0.1789  0.0847 -0.0248
  259loPI   PO4 4132   8.143  12.125   9.748  0.1989  0.0588 -0.1404
  259loPI   GL1 4133   8.061  12.382   9.386 -0.1319 -0.0858  0.1355
  259loPI   GL2 4134   7.798  12.515   9.214  0.1559 -0.0116 -0.1817
  259loPI   C1A 4135   8.189  12.089   9.004 -0.1982  0.0122  0.1383
  259loPI   C2A 4136   8.406  11.876   8.748 -0.1311  0.0834  0.2830
  259loPI   C3A 4137   8.558  11.896   8.372 -0.0958  0.0819  0.0022
  259loPI   C4A 4138   8.625  11.712   8.006 -0.1083  0.2361 -0.2193
  259loPI   C5A 4139   8.793  11.710   7.584  0.3576 -0.2713  0.0482
  259loPI   C6A 4140   8.953  11.992   7.401 -0.4227 -0.1668  0.0625
  259loPI   C1B 4141   7.967  12.508   8.822  0.1198  0.3081  0.0663
  259loPI   C2B 4142   8.145  12.225   8.459 -0.1522  0.3859 -0.1116
  259loPI   C3B 4143   8.240  12.174   7.982 -0.1057 -0.0125 -0.3337
  259loPI   C4B 4144   8.361  11.971   7.680  0.0749 -0.0857  0.0144
  260loPI    C1 4145  14.939  15.034  10.258  0.0442  0.3199  0.0316
  260loPI    C2 4146  15.292  14.848  10.236 -0.1430 -0.0360 -0.0468
  260loPI    C3 4147  15.023  14.735  10.510 -0.3149  0.0229 -0.1893
  260loPI   PO4 4148  14.943  15.144  10.034  0.1488 -0.0377  0.1516
  260loPI   GL1 4149  15.291  15.259   9.684  0.0214 -0.0344  0.1660
  260loPI   GL2 4150  15.244  15.555   9.534 -0.1904 -0.3100  0.1538
  260loPI   C1A 4151  15.556  15.062   9.362  0.0486 -0.1887  0.1161
  260loPI   C2A 4152  15.703  15.087   8.983 -0.1680 -0.1166  0.0874
  260loPI   C3A 4153  15.784  15.176   8.521 -0.2980  0.0939 -0.0584
  260loPI   C4A 4154  15.579  15.312   8.159  0.1558 -0.2445  0.3340
  260loPI   C5A 4155  15.507  15.068   7.768  0.0257  0.1437 -0.1903
  260loPI   C6A 4156  15.592  14.990   7.296 -0.0339 -0.3611 -0.2327
  260loPI   C1B 4157  15.447  15.480   9.133 -0.0596  0.1271  0.1445
  260loPI   C2B 4158  15.473  15.549   8.764 -0.2503  0.2066  0.3190
  260loPI   C3B 4159  15.287  15.605   8.380  0.1006  0.1114 -0.0725
  260loPI   C4B 4160  15.200  15.582   7.924  0.3482  0.1011  0.0356
  261loPI    C1 4161   7.135  16.316  10.040 -0.0809  0.2277 -0.0840
  261loPI    C2 4162   7.509  16.184   9.994 -0.2118 -0.1824 -0.0087
  261loPI    C3 4163   7.442  16.535  10.173  0.1468  0.0177 -0.2555
  261loPI   PO4 4164   7.074  16.278   9.734 -0.0747 -0.2373  0.1644
  261loPI   GL1 4165   7.001  16.540   9.428  0.2921  0.3045 -0.2151
  261loPI   GL2 4166   6.899  16.878   9.507 -0.1353 -0.0275  0.0288
  261loPI   C1A 4167   6.833  16.602   8.999 -0.0804 -0.5447 -0.0761
  261loPI   C2A 4168   6.721  16.607   8.577  0.2102 -0.0260  0.0189
  261loPI   C3A 4169   6.781  16.554   8.063  0.0954  0.1347  0.5150
  261loPI   C4A 4170   6.473  16.708   7.670 -0.0454  0.0397  0.0098
  261loPI   C5A 4171   6.238  17.002   7.407  0.1666 -0.0753  0.2392
  261loPI   C6A 4172   5.755  17.183   7.351 -0.2208 -0.0571 -0.2503
  261loPI   C1B 4173   7.292  16.827   9.170 -0.0662 -0.0868  0.2823
  261loPI   C2B 4174   7.224  16.848   8.689 -0.0142 -0.2757 -0.0119
  261loPI   C3B 4175   7.269  16.795   8.363 -0.0252  0.0601  0.1175
  261loPI   C4B 4176   7.290  16.758   7.921  0.0564 -0.0474 -0.0422
  262loPI    C1 4177   3.631  17.445  10.397 -0.0106 -0.0141  0.1963
  262loPI    C2 4178   3.709  17.780  10.192 -0.0074 -0.2425 -0.1838
  262loPI    C3 4179   3.712  17.785  10.592  0.0026  0.2068 -0.1852
  262loPI   PO4 4180   3.766  17.200  10.139 -0.0447  0.1606  0.0824
  262loPI   GL1 4181   3.752  16.964   9.721  0.1547 -0.3310 -0.2274
  262loPI   GL2 4182   4.081  17.068   9.713 -0.1323  0.1863  0.1333
  262loPI   C1A 4183   3.791  16.983   9.252 -0.3301 -0.0802 -0.1205
  262loPI   C2A 4184   3.739  16.805   8.952  0.3455  0.3851 -0.1365
  262loPI   C3A 4185   3.742  17.030   8.580 -0.3166  0.0375  0.0739
  262loPI   C4A 4186   3.640  17.280   8.122 -0.0305  0.0760  0.1690
  262loPI   C5A 4187   3.219  17.354   7.985 -0.1505 -0.1522  0.1759
  262loPI   C6A 4188   3.091  17.746   8.104 -0.3377 -0.1698 -0.1363
  262loPI   C1B 4189   4.053  17.392   9.360 -0.0326 -0.2716  0.1850
  262loPI   C2B 4190   3.935  17.434   8.871 -0.0662 -0.3281  0.0370
  262loPI   C3B 4191   3.892  17.502   8.490 -0.0753  0.0658 -0.3148
  262loPI   C4B 4192   4.062  17.641   8.175  0.0690  0.1933  0.0859
  263loPI    C1 4193   4.958   5.453  10.630 -0.1843 -0.0680 -0.1036
  263loPI    C2 4194   4.782   5.759  10.819  0.2880 -0.0056  0.2535
  263loPI    C3 4195   4.601   5.402  10.803  0.1125  0.0650  0.5797
  263loPI   PO4 4196   5.001   5.445  10.384 -0.0959  0.1363  0.2415
  263loPI   GL1 4197   4.922   5.704  10.013 -0.1197 -0.2580  0.3964
  263loPI   GL2 4198   5.242   5.624  10.051 -0.1770  0.0621 -0.4688
  263loPI   C1A 4199   4.792   5.581   9.578  0.3061  0.1814 -0.2836
  263loPI   C2A 4200   4.708   5.639   9.133  0.0365 -0.2539  0.0815
  263loPI   C3A 4201   4.768   5.681   8.585  0.2980 -0.4848  0.2076
  263loPI   C4A 4202   4.937   5.811   8.227  0.2286  0.2377 -0.0371
  263loPI   C5A 4203   5.185   6.014   8.118 -0.3496  0.0312 -0.1538
  263loPI   C6A 4204   5.302   6.357   7.900  0.0847 -0.1800 -0.0590
  263loPI   C1B 4205   5.211   5.908   9.608  0.4342  0.0428 -0.2362
  263loPI   C2B 4206   5.146   6.047   9.140 -0.0087 -0.0160 -0.1224
  263loPI   C3B 4207   5.111   6.070   8.678 -0.0594  0.2314 -0.2035
  263loPI   C4B 4208   5.281   6.469   8.408 -0.3541 -0.4090  0.0441
  264loPI    C1 4209  15.308  17.611  10.192  0.1875 -0.2158 -0.0856
  264loPI    C2 4210  14.992  17.455  10.381  0.1762 -0.1282 -0.0316
  264loPI    C3 4211  15.260  17.214  10.207  0.0986 -0.2038 -0.0470
  264loPI   PO4 4212  15.228  17.736  10.019 -0.2268 -0.0394 -0.2429
  264loPI   GL1 4213  15.216  17.907   9.586  0.3495  0.1301  0.1043
  264loPI   GL2 4214  15.373  18.075   9.668  0.2061  0.1465 -0.1553
  264loPI   C1A 4215  15.107  18.072   9.218 -0.1422 -0.0953  0.2034
  264loPI   C2A 4216  15.116  18.206   8.780  0.5481 -0.4016 -0.2589
  264loPI   C3A 4217  14.975  18.379   8.375 -0.1833  0.0254  0.2541
  264loPI   C4A 4218  14.839  18.578   7.998 -0.1659 -0.0375  0.1946
  264loPI   C5A 4219  14.618  18.880   7.730 -0.1287  0.2407  0.1234
  264loPI   C6A 4220  14.588  19.091   7.315  0.3173  0.0113  0.1012
  264loPI   C1B 4221  15.499  18.342   9.432 -0.0340 -0.0351  0.2917
  264loPI   C2B 4222  15.597  18.396   8.992  0.0582 -0.1430  0.1425
  264loPI   C3B 4223  15.438  18.467   8.577 -0.0748  0.2624  0.2951
  264loPI   C4B 4224  15.419  18.608   8.111 -0.0155 -0.1114  0.2533
  265loPI    C1 4225  18.322   9.905  10.691  0.0033 -0.1132  0.0707
  265loPI    C2 4226  17.942   9.786  10.723  0.0024 -0.2255 -0.3094
  265loPI    C3 4227  18.239   9.532  10.809 -0.0061 -0.2924 -0.4741
  265loPI   PO4 4228  18.291  10.072  10.411  0.0140  0.3318 -0.0071
  265loPI   GL1 4229  18.173  10.244   9.984  0.0389  0.2178 -0.3939
  265loPI   GL2 4230  18.403  10.257   9.800  0.1594  0.2224 -0.1418
  265loPI   C1A 4231  18.024  10.127   9.577  0.1689 -0.2648  0.1766
  265loPI   C2A 4232  18.141  10.171   9.227  0.0837 -0.4050  0.1989
  265loPI   C3A 4233  18.279  10.288   8.790  0.1456 -0.3676  0.1284
  265loPI   C4A 4234  18.220  10.179   8.344  0.1863  0.2363  0.1853
  265loPI   C5A 4235  18.153  10.096   7.951 -0.1681  0.2645  0.1470
  265loPI   C6A 4236  17.744  10.097   7.875  0.0824  0.0278 -0.5766
  265loPI   C1B 4237  18.656  10.301   9.472 -0.2144  0.1062  0.2065
  265loPI   C2B 4238  18.851  10.382   9.037  0.0452  0.0744  0.1007
  265loPI   C3B 4239  18.912  10.375   8.644  0.0279 -0.1268  0.0616
  265loPI   C4B 4240  19.094  10.349   8.301  0.0323 -0.2996 -0.2957
  266loPI    C1 4241  16.319   2.422  10.598 -0.1308  0.2002 -0.0412
  266loPI    C2 4242  16.695   2.462  10.728 -0.1043 -0.2554  0.0399
  266loPI    C3 4243  16.389   2.566  10.964 -0.0340  0.0633 -0.0050
  266loPI   PO4 4244  16.380   2.484  10.351 -0.1760  0.0016  0.0196
  266loPI   GL1 4245  16.764   2.529  10.186 -0.1251  0.0843  0.5209
  266loPI   GL2 4246  17.091   2.469  10.042  0.0105 -0.0556  0.0218
  266loPI   C1A 4247  16.670   2.506   9.747 -0.0471 -0.0145 -0.1082
  266loPI   C2A 4248  16.772   2.459   9.384 -0.0839  0.1475  0.0446
  266loPI   C3A 4249  16.727   2.355   9.026  0.2097  0.0266  0.0037
  266loPI   C4A 4250  16.881   2.155   8.662 -0.2756  0.0996  0.0260
  266loPI   C5A 4251  16.951   1.938   8.121  0.0112 -0.0308  0.1476
  266loPI   C6A 4252  16.893   1.804   7.716  0.1636  0.0192 -0.0506
  266loPI   C1B 4253  17.135   2.176   9.644 -0.0332 -0.1864  0.1136
  266loPI   C2B 4254  17.216   2.195   9.190 -0.0541  0.3532 -0.0546
  266loPI   C3B 4255  17.431   2.198   8.754  0.1644 -0.0126  0.3189
  266loPI   C4B 4256  17.312   2.142   8.438  0.1045 -0.1213  0.0452
  267loPI    C1 4257   5.206  15.173  10.046  0.0105  0.1367 -0.0361
  267loPI    C2 4258   5.390  15.338   9.731  0.0269 -0.0627 -0.1327
  267loPI    C3 4259   5.385  15.529  10.083  0.1482  0.0872 -0.2111
  267loPI   PO4 4260   5.035  15.012   9.975 -0.0835 -0.0863  0.1942
  267loPI   GL1 4261   4.786  14.937   9.665 -0.4330  0.1291 -0.1112
  267loPI   GL2 4262   5.054  14.747   9.541  0.1184 -0.1360  0.0238
  267loPI   C1A 4263   4.573  15.125   9.270  0.3989 -0.0298  0.0040
  267loPI   C2A 4264   4.638  15.125   8.805 -0.0434  0.0152 -0.1357
  267loPI   C3A 4265   4.930  15.223   8.375 -0.0521 -0.1670  0.1585
  267loPI   C4A 4266   5.305  15.336   8.086 -0.1904  0.1087  0.0411
  267loPI   C5A 4267   5.806  15.185   8.030 -0.2418 -0.1757  0.0312
  267loPI   C6A 4268   6.224  15.391   7.866  0.2322 -0.2462  0.0091
  267loPI   C1B 4269   4.974  14.877   9.083  0.0553 -0.0842  0.0772
  267loPI   C2B 4270   4.919  14.755   8.656 -0.0123  0.5615  0.0041
  267loPI   C3B 4271   4.590  14.829   8.328 -0.0327  0.4328  0.0947
  267loPI   C4B 4272   4.410  15.163   8.098 -0.0393 -0.1062 -0.0682
  268loPI    C1 4273   1.476  13.131  10.465  0.1485 -0.1542  0.2054
  268loPI    C2 4274   1.684  12.884  10.700 -0.0791 -0.1420  0.4235
  268loPI    C3 4275   1.660  13.273  10.790  0.1985 -0.0533  0.1336
  268loPI   PO4 4276   1.605  13.077  10.208 -0.2223 -0.5132  0.0359
  268loPI   GL1 4277   1.484  13.099   9.638  0.1265 -0.2336 -0.1236
  268loPI   GL2 4278   1.328  13.290   9.477 -0.1643 -0.2599 -0.3649
  268loPI   C1A 4279   1.687  12.860   9.327  0.1251  0.2850  0.1748
  268loPI   C2A 4280   1.840  12.822   8.971 -0.0508 -0.2200  0.0838
  268loPI   C3A 4281   2.017  12.781   8.613  0.0011  0.0410 -0.0202
  268loPI   C4A 4282   1.745  12.471   8.358 -0.2351  0.4239  0.1974
  268loPI   C5A 4283   1.553  12.341   7.920 -0.2121  0.2246 -0.3668
  268loPI   C6A 4284   1.384  12.272   7.533  0.0553 -0.0220  0.0548
  268loPI   C1B 4285   1.443  13.199   9.067 -0.0584  0.0780 -0.2052
  268loPI   C2B 4286   1.570  13.168   8.651  0.2972  0.2184  0.2598
  268loPI   C3B 4287   1.644  13.198   8.270 -0.0419  0.0794 -0.0767
  268loPI   C4B 4288   1.730  12.850   8.021 -0.0285 -0.0350  0.0901
  269loPI    C1 4289   4.277   8.004  10.590  0.0880 -0.0772  0.0258
  269loPI    C2 4290   3.890   8.065  10.509  0.1037  0.0606  0.0519
  269loPI    C3 4291   4.004   7.974  10.882  0.1080  0.1285  0.0673
  269loPI   PO4 4292   4.426   8.292  10.469 -0.1606  0.1599  0.0988
  269loPI   GL1 4293   4.605   8.249  10.061 -0.2153  0.2005  0.0852
  269loPI   GL2 4294   4.760   8.100  10.016 -0.0176 -0.0609 -0.3038
  269loPI   C1A 4295   4.249   8.063   9.690  0.1690  0.1596 -0.1839
  269loPI   C2A 4296   4.197   7.932   9.279  0.0337  0.0932 -0.1687
  269loPI   C3A 4297   4.035   8.107   8.873 -0.0481 -0.1284  0.1958
  269loPI   C4A 4298   3.825   8.101   8.549 -0.0055  0.0039  0.0131
  269loPI   C5A 4299   3.445   7.959   8.309 -0.2006 -0.2296 -0.0273
  269loPI   C6A 4300   3.211   7.707   8.076 -0.3412 -0.3482  0.1788
  269loPI   C1B 4301   4.704   7.963   9.647  0.1450 -0.2031 -0.3045
  269loPI   C2B 4302   4.642   7.712   9.244 -0.4526 -0.0723 -0.0118
  269loPI   C3B 4303   4.339   7.580   8.902  0.1743  0.2512 -0.0965
  269loPI   C4B 4304   4.132   7.604   8.524 -0.2616  0.0635 -0.1788
  270loPI    C1 4305  16.113   2.869  10.638  0.1684  0.0532  0.2511
  270loPI    C2 4306  15.869   2.942  10.946 -0.2553  0.1068 -0.0866
  270loPI    C3 4307  15.852   2.590  10.757  0.1807 -0.0232  0.1017
  270loPI   PO4 4308  16.076   3.207  10.550  0.0624  0.0303  0.1018
  270loPI   GL1 4309  15.820   3.386  10.243  0.1035 -0.0114  0.1685
  270loPI   GL2 4310  15.553   3.546  10.254 -0.3261  0.3767 -0.0415
  270loPI   C1A 4311  15.762   3.514   9.799  0.1226 -0.0197 -0.1437
  270loPI   C2A 4312  15.808   3.566   9.352  0.0622  0.1349 -0.2078
  270loPI   C3A 4313  15.959   3.573   8.964  0.0579  0.1161  0.4048
  270loPI   C4A 4314  16.142   3.481   8.585 -0.0541 -0.0131 -0.1138
  270loPI   C5A 4315  16.392   3.455   8.243  0.0279  0.1641 -0.2085
  270loPI   C6A 4316  16.799   3.564   8.101 -0.0974 -0.0057 -0.0546
  270loPI   C1B 4317  15.368   3.697   9.967  0.1726  0.0805  0.0934
  270loPI   C2B 4318  15.336   3.858   9.569  0.3311  0.2472  0.0667
  270loPI   C3B 4319  15.198   3.974   9.248  0.3930  0.0474 -0.0545
  270loPI   C4B 4320  15.036   4.186   8.900  0.3586 -0.1915 -0.1762
  271loPI    C1 4321  13.924  11.293  10.121 -0.1600  0.3751  0.0810
  271loPI    C2 4322  13.888  11.049  10.435 -0.0113  0.0564 -0.1436
  271loPI    C3 4323  13.892  11.445  10.489 -0.0932  0.0089  0.2425
  271loPI   PO4 4324  13.815  11.071   9.823 -0.1324 -0.0400  0.0141
  271loPI   GL1 4325  13.865  10.981   9.486 -0.0715 -0.1475 -0.0662
  271loPI   GL2 4326  13.930  10.852   9.309  0.0511  0.2487 -0.1028
  271loPI   C1A 4327  14.012  11.089   8.925  0.2035 -0.1178 -0.2345
  271loPI   C2A 4328  14.089  10.948   8.585  0.0168 -0.0019  0.0321
  271loPI   C3A 4329  13.801  11.011   8.196 -0.0185  0.0966 -0.2008
  271loPI   C4A 4330  13.618  10.892   7.863  0.1070  0.1346  0.0054
  271loPI   C5A 4331  13.271  10.612   7.613  0.1550  0.3253 -0.0450
  271loPI   C6A 4332  13.043  10.566   7.189 -0.1142  0.0547 -0.1015
  271loPI   C1B 4333  14.353  10.806   9.036  0.3527  0.2858 -0.1800
  271loPI   C2B 4334  14.479  10.687   8.697  0.1778 -0.1416 -0.2250
  271loPI   C3B 4335  14.435  10.645   8.248  0.3517  0.0221  0.1209
  271loPI   C4B 4336  14.657  10.478   7.849 -0.3073  0.1968  0.0323
  272loPI    C1 4337  10.370  14.457   9.990  0.2336  0.0708 -0.2507
  272loPI    C2 4338  10.549  14.657  10.287  0.0798  0.0725 -0.1581
  272loPI    C3 4339  10.418  14.284  10.348 -0.1693  0.1596 -0.1486
  272loPI   PO4 4340  10.534  14.527   9.789  0.0629 -0.3438 -0.1919
  272loPI   GL1 4341  10.634  14.747   9.482  0.2834 -0.1865  0.1499
  272loPI   GL2 4342  10.614  14.591   9.160 -0.2287 -0.1516 -0.0941
  272loPI   C1A 4343  10.787  15.058   9.141  0.1124  0.2324 -0.0934
  272loPI   C2A 4344  10.920  15.066   8.737 -0.0634 -0.0605  0.1676
  272loPI   C3A 4345  11.237  14.983   8.410 -0.2218 -0.0580 -0.3383
  272loPI   C4A 4346  11.363  14.874   7.944 -0.2098  0.2200 -0.0140
  272loPI   C5A 4347  11.351  14.540   7.671  0.0274  0.1233  0.1745
  272loPI   C6A 4348  11.367  14.295   7.272 -0.0548 -0.0041  0.1629
  272loPI   C1B 4349  10.660  14.625   8.647  0.2007 -0.1488 -0.1926
  272loPI   C2B 4350  10.741  14.827   8.269  0.2261  0.2289 -0.0250
  272loPI   C3B 4351  10.778  14.918   7.831  0.0509  0.0310  0.0441
  272loPI   C4B 4352  10.526  14.774   7.489  0.0926  0.1155  0.1212
  273loPI    C1 4353  11.323  14.270   9.900 -0.1045  0.0065  0.0787
  273loPI    C2 4354  11.515  14.596   9.770 -0.1741 -0.0106 -0.0683
  273loPI    C3 4355  11.592  14.451  10.134  0.2578 -0.1486 -0.2090
  273loPI   PO4 4356  11.298  14.169   9.741 -0.1854  0.1959 -0.0041
  273loPI   GL1 4357  11.284  14.152   9.296 -0.1664 -0.0507 -0.3361
  273loPI   GL2 4358  11.018  14.175   9.036 -0.1996 -0.0648 -0.3059
  273loPI   C1A 4359  11.461  13.910   9.065  0.0889  0.3441 -0.1617
  273loPI   C2A 4360  11.589  13.794   8.753 -0.0451  0.2623  0.1982
  273loPI   C3A 4361  11.807  13.456   8.639 -0.1173 -0.0378 -0.0301
  273loPI   C4A 4362  11.831  13.324   8.153  0.0759 -0.4837 -0.1656
  273loPI   C5A 4363  12.121  13.549   7.887 -0.0601 -0.1075 -0.0916
  273loPI   C6A 4364  12.516  13.758   7.898 -0.1501 -0.1616 -0.0950
  273loPI   C1B 4365  11.198  14.124   8.677 -0.2730 -0.3384  0.0934
  273loPI   C2B 4366  11.383  14.077   8.230  0.2049 -0.3559  0.1101
  273loPI   C3B 4367  11.546  13.945   7.791  0.4208 -0.2683 -0.2866
  273loPI   C4B 4368  11.726  13.948   7.447 -0.4064  0.0915 -0.0128
  274loPI    C1 4369   7.829  12.208  10.165 -0.2392 -0.0844 -0.5667
  274loPI    C2 4370   7.465  12.324  10.283 -0.0552  0.0250 -0.0843
  274loPI    C3 4371   7.596  11.956  10.370  0.1767  0.1903  0.2899
  274loPI   PO4 4372   7.911  12.496  10.093 -0.1645 -0.0419  0.2258
  274loPI   GL1 4373   7.945  12.759   9.703  0.0345 -0.0541  0.0645
  274loPI   GL2 4374   7.693  12.927   9.542  0.1363  0.1519  0.0254
  274loPI   C1A 4375   8.104  12.974   9.254 -0.2524  0.1229  0.0242
  274loPI   C2A 4376   8.086  12.985   8.922  0.2811  0.2845  0.1487
  274loPI   C3A 4377   7.981  13.039   8.616 -0.3238  0.0566  0.3730
  274loPI   C4A 4378   7.772  13.005   8.162  0.3082 -0.2905  0.0191
  274loPI   C5A 4379   7.670  13.280   7.811  0.2159 -0.1080 -0.0366
  274loPI   C6A 4380   7.938  13.247   7.426  0.1511 -0.0130 -0.0882
  274loPI   C1B 4381   7.623  12.969   9.085 -0.2076  0.1468  0.0495
  274loPI   C2B 4382   7.522  12.755   8.677  0.1312  0.1512 -0.1152
  274loPI   C3B 4383   7.776  12.557   8.347  0.1166 -0.0316 -0.1457
  274loPI   C4B 4384   7.779  12.363   7.960 -0.0962  0.3779 -0.1472
  275loPI    C1 4385   2.496  16.669  10.631  0.2337 -0.1008 -0.0139
  275loPI    C2 4386   2.163  16.841  10.772  0.1348 -0.2481 -0.0651
  275loPI    C3 4387   2.452  16.728  11.024  0.1377 -0.1374 -0.0186
  275loPI   PO4 4388   2.463  16.737  10.375  0.1456 -0.2178 -0.0900
  275loPI   GL1 4389   2.232  16.575   9.946 -0.0962  0.0930 -0.0871
  275loPI   GL2 4390   2.603  16.611   9.887  0.1487 -0.0811  0.1537
  275loPI   C1A 4391   2.214  16.764   9.503  0.0656  0.1258 -0.2775
  275loPI   C2A 4392   2.366  16.780   9.139 -0.1243 -0.0456  0.1017
  275loPI   C3A 4393   2.530  16.731   8.710  0.0179  0.1663 -0.3187
  275loPI   C4A 4394   2.392  16.789   8.274 -0.0806 -0.0955  0.1767
  275loPI   C5A 4395   2.186  17.036   7.931  0.3250 -0.3719  0.0831
  275loPI   C6A 4396   1.752  17.105   7.813  0.1449 -0.1626 -0.0711
  275loPI   C1B 4397   2.734  16.781   9.481  0.0488  0.1568  0.0617
  275loPI   C2B 4398   2.881  17.010   9.073  0.1367 -0.0460  0.0049
  275loPI   C3B 4399   2.914  17.097   8.704 -0.2335 -0.2152  0.1089
  275loPI   C4B 4400   2.828  17.222   8.271 -0.0766  0.0804 -0.1504
  276loPI    C1 4401   3.451  15.687  10.774 -0.1473  0.2592 -0.0845
  276loPI    C2 4402   3.233  15.983  10.932 -0.0437  0.3711 -0.1496
  276loPI    C3 4403   3.556  15.847  11.125 -0.3106  0.0325  0.0705
  276loPI   PO4 4404   3.529  15.893  10.457  0.4242 -0.0285 -0.2214
  276loPI   GL1 4405   3.581  15.769   9.980 -0.0875 -0.2427  0.0689
  276loPI   GL2 4406   3.405  16.053   9.913 -0.0013  0.1323 -0.0621
  276loPI   C1A 4407   3.418  15.617   9.582  0.1422  0.2640 -0.1399
  276loPI   C2A 4408   3.230  15.566   9.139 -0.2615  0.1730  0.0979
  276loPI   C3A 4409   3.332  15.635   8.756  0.0767  0.0621 -0.3163
  276loPI   C4A 4410   3.243  15.718   8.268 -0.1193 -0.1096 -0.0575
  276loPI   C5A 4411   3.284  15.976   7.839  0.1977  0.1668  0.0885
  276loPI   C6A 4412   3.324  16.014   7.427 -0.0476 -0.0220  0.1814
  276loPI   C1B 4413   3.404  16.126   9.477  0.0042 -0.1458  0.2076
  276loPI   C2B 4414   3.311  16.277   9.047  0.0763  0.4042 -0.0429
  276loPI   C3B 4415   3.283  16.235   8.604  0.0474 -0.3589 -0.2788
  276loPI   C4B 4416   3.301  16.432   8.136  0.0234  0.2921 -0.0036
  277loPI    C1 4417  15.582   4.924  10.793 -0.1666 -0.1943  0.1389
  277loPI    C2 4418  15.811   4.650  10.973  0.0332  0.0079  0.1970
  277loPI    C3 4419  15.449   4.736  11.120  0.0750 -0.0399  0.3291
  277loPI   PO4 4420  15.594   4.856  10.578  0.1463  0.1028 -0.2542
  277loPI   GL1 4421  15.899   4.883  10.300 -0.0061  0.0543  0.1526
  277loPI   GL2 4422  15.797   5.225  10.338 -0.1201  0.0239 -0.0122
  277loPI   C1A 4423  16.013   4.905   9.933  0.0063  0.2552  0.0077
  277loPI   C2A 4424  16.066   5.007   9.564 -0.2695  0.1615  0.1420
  277loPI   C3A 4425  16.105   5.191   9.123 -0.0045  0.3684  0.0572
  277loPI   C4A 4426  16.273   5.267   8.657 -0.0357 -0.2248  0.0061
  277loPI   C5A 4427  16.092   5.234   8.301 -0.1821  0.0155 -0.2724
  277loPI   C6A 4428  16.064   5.473   7.921 -0.3181  0.1578  0.0622
  277loPI   C1B 4429  15.769   5.388   9.932  0.0686  0.2343  0.1459
  277loPI   C2B 4430  15.847   5.510   9.586 -0.1310 -0.1356  0.2451
  277loPI   C3B 4431  15.794   5.577   9.082 -0.0480  0.0460  0.0698
  277loPI   C4B 4432  15.744   5.438   8.658  0.1142 -0.1879  0.1162
  278loPI    C1 4433  10.030   0.860  10.511 -0.4600  0.1163  0.0182
  278loPI    C2 4434   9.951   0.469  10.532 -0.2700  0.0797  0.0682
  278loPI    C3 4435  10.068   0.667  10.859 -0.1008  0.1198 -0.0152
  278loPI   PO4 4436  10.323   0.831  10.238  0.1294 -0.3322  0.2488
  278loPI   GL1 4437  10.279   0.856   9.859 -0.1165 -0.1605 -0.2758
  278loPI   GL2 4438  10.093   1.066   9.770 -0.0638 -0.0094 -0.1410
  278loPI   C1A 4439  10.632   0.742   9.576 -0.0307 -0.1757 -0.2176
  278loPI   C2A 4440  10.743   0.800   9.185 -0.4683  0.2059 -0.1597
  278loPI   C3A 4441  10.750   1.027   8.744  0.1090  0.0828  0.1884
  278loPI   C4A 4442  10.541   1.103   8.400  0.1926 -0.0147  0.0421
  278loPI   C5A 4443  10.658   1.227   8.072  0.0864  0.2578  0.0421
  278loPI   C6A 4444  10.821   1.500   7.818 -0.1612  0.1087  0.1068
  278loPI   C1B 4445  10.330   1.166   9.409  0.1558 -0.4089  0.0535
  278loPI   C2B 4446  10.346   1.372   9.039  0.0152  0.0241 -0.0354
  278loPI   C3B 4447  10.591   1.585   8.694  0.1434 -0.0144 -0.0019
  278loPI   C4B 4448  10.736   1.647   8.309  0.1916  0.0468 -0.3019
  279loPI    C1 4449   7.742  18.293   9.871  0.1746  0.1566  0.1016
  279loPI    C2 4450   7.526  18.608   9.753 -0.1695 -0.0168  0.2549
  279loPI    C3 4451   7.822  18.657  10.017 -0.0826  0.2078  0.1194
  279loPI   PO4 4452   7.542  18.142   9.849  0.0063  0.2065  0.1525
  279loPI   GL1 4453   7.474  18.117   9.371 -0.1509 -0.2624  0.1081
  279loPI   GL2 4454   7.628  18.351   9.325 -0.1309 -0.1511 -0.2460
  279loPI   C1A 4455   7.258  18.030   9.048  0.0589 -0.1795 -0.0773
  279loPI   C2A 4456   7.081  17.840   8.720 -0.2155 -0.4109 -0.2748
  279loPI   C3A 4457   6.853  17.785   8.436 -0.1451 -0.0020  0.0599
  279loPI   C4A 4458   6.768  17.635   7.954 -0.2046  0.0125  0.1757
  279loPI   C5A 4459   6.850  17.475   7.547 -0.2173 -0.0921  0.2396
  279loPI   C6A 4460   7.062  17.572   7.148 -0.0906 -0.3424  0.0881
  279loPI   C1B 4461   7.761  18.248   8.953 -0.3527  0.0824  0.5588
  279loPI   C2B 4462   7.414  18.231   8.612 -0.0795  0.1233 -0.0797
  279loPI   C3B 4463   7.367  18.066   8.235  0.0840 -0.3193 -0.0194
  279loPI   C4B 4464   7.222  17.760   8.095 -0.0087 -0.0292  0.0885
  280loPI    C1 4465  15.282   6.596  10.859  0.2538  0.1562 -0.1618
  280loPI    C2 4466  15.375   6.232  10.996 -0.3055  0.0384 -0.0705
  280loPI    C3 4467  15.600   6.547  11.097  0.0390 -0.2410  0.0549
  280loPI   PO4 4468  15.246   6.548  10.614 -0.3754 -0.1163 -0.0106
  280loPI   GL1 4469  15.336   6.855  10.318 -0.0295  0.1587  0.1264
  280loPI   GL2 4470  15.091   6.962  10.016  0.1035  0.0094 -0.4315
  280loPI   C1A 4471  15.520   6.647   9.948 -0.0689  0.1323 -0.0487
  280loPI   C2A 4472  15.443   6.579   9.510  0.1735 -0.3834 -0.2307
  280loPI   C3A 4473  15.353   6.595   9.218 -0.0517 -0.0817 -0.2701
  280loPI   C4A 4474  15.301   6.623   8.726 -0.3413  0.1179 -0.0806
  280loPI   C5A 4475  15.413   6.564   8.377  0.0398 -0.0634  0.0921
  280loPI   C6A 4476  15.851   6.353   8.414  0.0530  0.0821  0.0166
  280loPI   C1B 4477  15.396   7.079   9.763  0.2048  0.4307 -0.0864
  280loPI   C2B 4478  15.339   7.087   9.350  0.2089  0.0553 -0.0234
  280loPI   C3B 4479  15.259   7.104   8.915 -0.1490  0.0164 -0.0637
  280loPI   C4B 4480  15.465   7.068   8.549 -0.2383  0.1372 -0.0009
  281loPI    C1 4481   5.607   6.094  10.614  0.0563 -0.2033 -0.1475
  281loPI    C2 4482   5.923   5.858  10.678  0.0361 -0.2064 -0.0580
  281loPI    C3 4483   5.954   6.253  10.732 -0.0041 -0.2182  0.0548
  281loPI   PO4 4484   5.520   6.058  10.379  0.2547  0.4540  0.1048
  281loPI   GL1 4485   5.433   6.125   9.990 -0.0795  0.1425 -0.1815
  281loPI   GL2 4486   5.062   6.219   9.892  0.1879 -0.2230  0.0038
  281loPI   C1A 4487   5.548   6.276   9.540  0.1460  0.1346 -0.1157
  281loPI   C2A 4488   5.683   6.270   9.213 -0.0874  0.1305 -0.4830
  281loPI   C3A 4489   5.549   6.301   8.906  0.0670 -0.0676 -0.1115
  281loPI   C4A 4490   5.645   6.004   8.633 -0.1924  0.0229  0.2199
  281loPI   C5A 4491   5.666   5.852   8.265  0.0293  0.0561 -0.0032
  281loPI   C6A 4492   5.592   5.522   7.887 -0.3553 -0.0649 -0.2192
  281loPI   C1B 4493   5.099   6.461   9.379  0.1473  0.2793  0.0557
  281loPI   C2B 4494   4.833   6.561   8.964 -0.1908 -0.2563  0.0645
  281loPI   C3B 4495   4.842   6.715   8.568  0.1799 -0.2585 -0.0793
  281loPI   C4B 4496   4.957   7.051   8.288 -0.1543  0.3176  0.0224
  282loPI    C1 4497  10.873   7.257  10.082  0.2769 -0.0841 -0.0310
  282loPI    C2 4498  10.730   7.019  10.371  0.0534 -0.0147 -0.0822
  282loPI    C3 4499  10.850   7.391  10.459 -0.0176  0.0075 -0.0791
  282loPI   PO4 4500  10.858   7.207   9.905  0.0595 -0.1950 -0.2009
  282loPI   GL1 4501  10.554   7.315   9.633 -0.0833  0.1708 -0.3620
  282loPI   GL2 4502  10.423   7.063   9.585 -0.0504 -0.1864  0.0024
  282loPI   C1A 4503  10.646   7.437   9.255 -0.1067 -0.0657  0.1410
  282loPI   C2A 4504  10.747   7.582   8.794  0.0214 -0.1660  0.1355
  282loPI   C3A 4505  10.575   7.692   8.352  0.2036 -0.0044 -0.1428
  282loPI   C4A 4506  10.162   7.578   8.211  0.1434 -0.3168  0.2245
  282loPI   C5A 4507   9.734   7.534   8.302 -0.3278 -0.2317  0.0902
  282loPI   C6A 4508   9.390   7.569   8.334 -0.1440 -0.0747 -0.0741
  282loPI   C1B 4509  10.474   6.914   9.189  0.0245  0.1537  0.0439
  282loPI   C2B 4510  10.357   6.792   8.707  0.0425 -0.0257  0.0025
  282loPI   C3B 4511  10.558   6.674   8.226  0.2127  0.1542  0.0693
  282loPI   C4B 4512  10.824   6.386   7.942 -0.0624  0.0277  0.1341
  283loPI    C1 4513  17.160  18.054  10.583 -0.1444 -0.0695 -0.0283
  283loPI    C2 4514  17.389  17.875  10.858  0.0097  0.2318  0.0437
  283loPI    C3 4515  16.995  17.806  10.850  0.0203  0.1363  0.2704
  283loPI   PO4 4516  17.345  18.027  10.358 -0.2166  0.0989 -0.2424
  283loPI   GL1 4517  17.351  18.291   9.984 -0.2309  0.0977  0.1108
  283loPI   GL2 4518  17.238  18.066   9.757  0.3302 -0.0799 -0.2310
  283loPI   C1A 4519  17.650  18.264   9.596 -0.0678  0.1387 -0.0963
  283loPI   C2A 4520  17.709  18.263   9.215 -0.1813 -0.0651 -0.0662
  283loPI   C3A 4521  17.752  18.327   8.789  0.0553  0.2288  0.0777
  283loPI   C4A 4522  17.918  18.351   8.406  0.0148 -0.0406 -0.2089
  283loPI   C5A 4523  18.094  18.579   8.034  0.2983  0.2867  0.2991
  283loPI   C6A 4524  18.089  18.747   7.589  0.0714  0.0289  0.1715
  283loPI   C1B 4525  17.234  18.296   9.283  0.0532 -0.1305  0.1021
  283loPI   C2B 4526  17.141  18.202   8.754 -0.0392 -0.0923 -0.2513
  283loPI   C3B 4527  17.310  18.427   8.393 -0.1153 -0.2398 -0.0702
  283loPI   C4B 4528  17.123  18.423   8.058  0.2784  0.0346  0.0848
  284loPI    C1 4529   5.664  12.769  10.356 -0.2757 -0.0738  0.2348
  284loPI    C2 4530   6.035  12.622  10.378 -0.1087  0.2750 -0.1351
  284loPI    C3 4531   5.861  12.774  10.704  0.0262  0.0059  0.0661
  284loPI   PO4 4532   5.637  12.842  10.096 -0.0584  0.0433 -0.0696
  284loPI   GL1 4533   5.573  13.214   9.860  0.0033 -0.3064  0.0303
  284loPI   GL2 4534   5.320  13.103   9.685 -0.0605 -0.1388 -0.0044
  284loPI   C1A 4535   5.685  13.416   9.445  0.1741 -0.1011 -0.1723
  284loPI   C2A 4536   5.567  13.439   8.962 -0.3538  0.1266  0.0075
  284loPI   C3A 4537   5.497  13.435   8.561 -0.1114 -0.1049 -0.1413
  284loPI   C4A 4538   5.443  13.682   8.216 -0.0248  0.1556 -0.0365
  284loPI   C5A 4539   5.172  13.827   7.866  0.4560  0.2296 -0.2707
  284loPI   C6A 4540   5.246  14.036   7.566 -0.0988 -0.1399 -0.1305
  284loPI   C1B 4541   5.221  13.245   9.310 -0.1627 -0.3537  0.1448
  284loPI   C2B 4542   5.109  13.290   8.917 -0.0373  0.1086  0.1025
  284loPI   C3B 4543   5.061  13.332   8.503  0.0582  0.0678 -0.1536
  284loPI   C4B 4544   5.332  13.240   8.026 -0.0846 -0.0403  0.1874
  285loPI    C1 4545   0.302   4.986  10.961  0.1646 -0.2636 -0.0891
  285loPI    C2 4546   0.173   5.359  11.024  0.3379 -0.2005 -0.1020
  285loPI    C3 4547  -0.038   5.049  11.162  0.2664 -0.0930  0.0326
  285loPI   PO4 4548   0.339   5.016  10.658 -0.1273 -0.0977 -0.1832
  285loPI   GL1 4549   0.207   4.994  10.416  0.1016  0.3074 -0.2442
  285loPI   GL2 4550   0.253   4.799  10.077  0.1428 -0.0222 -0.3008
  285loPI   C1A 4551  -0.229   5.053  10.137 -0.1318  0.0090  0.2542
  285loPI   C2A 4552  -0.458   4.989   9.754 -0.3779  0.1311 -0.1696
  285loPI   C3A 4553  -0.510   5.161   9.360  0.2571 -0.1288  0.0234
  285loPI   C4A 4554  -0.616   5.465   9.170 -0.0138  0.0311  0.1626
  285loPI   C5A 4555  -0.562   5.343   8.732 -0.0945 -0.0750  0.1014
  285loPI   C6A 4556  -0.844   5.023   8.632  0.0916  0.1170  0.0075
  285loPI   C1B 4557   0.041   4.853   9.723  0.2718  0.0460 -0.3031
  285loPI   C2B 4558  -0.082   4.909   9.346 -0.2040  0.1234  0.0421
  285loPI   C3B 4559  -0.268   4.932   8.987  0.0459  0.1461  0.1603
  285loPI   C4B 4560  -0.278   4.953   8.518 -0.3112  0.2283 -0.0683
  286loPI    C1 4561  14.508   8.979  10.305  0.2334  0.0746 -0.0695
  286loPI    C2 4562  14.274   8.692  10.457  0.2302 -0.0116 -0.2345
  286loPI    C3 4563  14.360   9.017  10.675  0.1023 -0.0621 -0.1070
  286loPI   PO4 4564  14.705   8.844  10.238  0.1716 -0.2856 -0.0858
  286loPI   GL1 4565  14.855   8.825   9.787 -0.0347  0.3808  0.1960
  286loPI   GL2 4566  14.618   9.084   9.840  0.2060 -0.1999  0.1349
  286loPI   C1A 4567  14.873   8.688   9.359 -0.0825 -0.2812 -0.2324
  286loPI   C2A 4568  14.849   8.823   8.956 -0.1010  0.1675 -0.2026
  286loPI   C3A 4569  15.196   9.084   8.858  0.2926  0.1939 -0.0098
  286loPI   C4A 4570  15.553   9.228   8.590  0.2325 -0.1511  0.1033
  286loPI   C5A 4571  15.761   8.838   8.423  0.0722  0.1596 -0.0287
  286loPI   C6A 4572  16.122   8.597   8.331 -0.1637  0.2116  0.2065
  286loPI   C1B 4573  14.404   8.931   9.425  0.3170  0.0509 -0.2389
  286loPI   C2B 4574  14.354   8.754   9.024  0.0614  0.0486  0.2895
  286loPI   C3B 4575  14.511   8.892   8.635 -0.0143 -0.0842 -0.1936
  286loPI   C4B 4576  14.798   8.841   8.408  0.2868 -0.0711 -0.0265
  287loPI    C1 4577  16.714  13.300  10.089 -0.1008  0.1679  0.0613
  287loPI    C2 4578  16.483  12.974  10.120  0.1454 -0.0436 -0.2596
  287loPI    C3 4579  16.443  13.274  10.382  0.0167 -0.3941  0.1319
  287loPI   PO4 4580  16.698  13.364   9.881  0.2442 -0.3322 -0.0259
  287loPI   GL1 4581  16.383  13.341   9.532 -0.1878 -0.1798  0.1196
  287loPI   GL2 4582  16.021  13.442   9.455 -0.0162 -0.1177  0.2952
  287loPI   C1A 4583  16.516  13.259   9.067  0.3324 -0.1066  0.3258
  287loPI   C2A 4584  16.605  13.297   8.627  0.0803 -0.4026 -0.1023
  287loPI   C3A 4585  16.617  13.266   8.145  0.0492 -0.0419 -0.0231
  287loPI   C4A 4586  16.707  13.159   7.688  0.5885 -0.2051 -0.0111
  287loPI   C5A 4587  16.920  12.881   7.524 -0.1655 -0.2312 -0.1105
  287loPI   C6A 4588  17.200  12.488   7.660 -0.1260 -0.1133 -0.1934
  287loPI   C1B 4589  16.061  13.373   9.075  0.0409  0.1471 -0.0533
  287loPI   C2B 4590  15.903  13.327   8.715  0.0557  0.0154  0.0834
  287loPI   C3B 4591  16.190  13.261   8.385  0.0035 -0.0434 -0.0791
  287loPI   C4B 4592  16.175  13.310   7.892 -0.1211 -0.3827 -0.0630
  288loPI    C1 4593  13.176   4.102  10.702  0.0982  0.1218 -0.0329
  288loPI    C2 4594  12.882   4.332  10.847  0.0526  0.1011 -0.0921
  288loPI    C3 4595  13.255   4.474  10.826  0.0631  0.0980  0.0620
  288loPI   PO4 4596  12.968   3.922  10.455 -0.0226  0.1600  0.0965
  288loPI   GL1 4597  12.866   4.016  10.006 -0.2470  0.0725  0.0349
  288loPI   GL2 4598  12.967   3.722   9.967  0.0113  0.3114  0.0604
  288loPI   C1A 4599  13.032   4.268   9.664 -0.0517  0.1066  0.2630
  288loPI   C2A 4600  12.988   4.304   9.177  0.2801  0.1595 -0.0248
  288loPI   C3A 4601  12.835   4.601   8.851  0.0139  0.1063  0.1408
  288loPI   C4A 4602  12.661   4.278   8.464  0.3327 -0.1156  0.0801
  288loPI   C5A 4603  12.799   3.855   8.407 -0.1629  0.1469  0.2572
  288loPI   C6A 4604  13.139   3.614   8.683  0.3717  0.0298 -0.2691
  288loPI   C1B 4605  13.051   3.708   9.543  0.0230 -0.1588 -0.1379
  288loPI   C2B 4606  13.211   3.889   9.211 -0.0354 -0.2616  0.2632
  288loPI   C3B 4607  13.570   3.835   8.958 -0.0712 -0.0419  0.1206
  288loPI   C4B 4608  13.582   3.784   8.472  0.1109 -0.1775  0.1310
  289loPI    C1 4609  15.856  12.285  10.234  0.0932 -0.0073  0.1132
  289loPI    C2 4610  15.652  12.263  10.577 -0.1958 -0.1830 -0.0657
  289loPI    C3 4611  15.999  12.069  10.538 -0.1688 -0.1739  0.1213
  289loPI   PO4 4612  15.700  12.213  10.083  0.1543 -0.0672  0.2090
  289loPI   GL1 4613  15.688  11.889   9.748 -0.0582 -0.4016 -0.2256
  289loPI   GL2 4614  15.971  11.536   9.808  0.1421 -0.1918  0.1124
  289loPI   C1A 4615  15.740  11.956   9.361  0.2391  0.0863 -0.0880
  289loPI   C2A 4616  15.733  11.978   8.936  0.1880 -0.3310 -0.1924
  289loPI   C3A 4617  15.736  11.975   8.608  0.1963 -0.0140 -0.0894
  289loPI   C4A 4618  15.770  11.895   8.253  0.1321 -0.1852 -0.1501
  289loPI   C5A 4619  15.758  11.843   7.748 -0.1042 -0.2564  0.3616
  289loPI   C6A 4620  15.498  11.943   7.347  0.0339 -0.3042 -0.3571
  289loPI   C1B 4621  16.210  11.836   9.484  0.1535  0.1731 -0.1417
  289loPI   C2B 4622  16.274  12.036   9.065  0.3324  0.1379  0.2332
  289loPI   C3B 4623  16.328  12.013   8.507 -0.1638 -0.2157 -0.1471
  289loPI   C4B 4624  16.196  11.956   8.055 -0.0620 -0.1711  0.1026
  290loPI    C1 4625   4.177  17.540  10.170  0.0433  0.1800 -0.0549
  290loPI    C2 4626   4.370  17.415   9.843 -0.1191  0.0236 -0.0930
  290loPI    C3 4627   4.469  17.268  10.202 -0.1091  0.0089 -0.1017
  290loPI   PO4 4628   4.172  17.827  10.197 -0.1356  0.2532  0.2021
  290loPI   GL1 4629   4.060  18.093   9.927 -0.1431  0.1250  0.1178
  290loPI   GL2 4630   3.967  18.308   9.713  0.0759 -0.1392 -0.2052
  290loPI   C1A 4631   4.121  17.903   9.474  0.3113  0.1220 -0.1867
  290loPI   C2A 4632   4.113  17.909   9.002 -0.1289 -0.0009  0.2015
  290loPI   C3A 4633   4.060  17.962   8.549 -0.2072  0.1987 -0.0918
  290loPI   C4A 4634   4.114  18.198   8.173 -0.1356 -0.1994  0.3876
  290loPI   C5A 4635   3.856  18.346   7.821 -0.0758 -0.1362 -0.1108
  290loPI   C6A 4636   3.551  18.558   7.625 -0.0381  0.2396 -0.1970
  290loPI   C1B 4637   3.828  18.294   9.283  0.0921  0.3303  0.0184
  290loPI   C2B 4638   3.909  18.338   8.877  0.0349 -0.1760 -0.0969
  290loPI   C3B 4639   4.030  18.587   8.518  0.0910 -0.0922 -0.0496
  290loPI   C4B 4640   4.246  18.855   8.256  0.2470 -0.1308 -0.2470
  291loPI    C1 4641  10.080   2.564  10.476  0.0721 -0.1146  0.1223
  291loPI    C2 4642   9.824   2.259  10.512 -0.1797  0.0800  0.0067
  291loPI    C3 4643   9.966   2.440  10.839 -0.0107 -0.1738  0.0765
  291loPI   PO4 4644   9.878   2.777  10.357  0.0802 -0.5773  0.1009
  291loPI   GL1 4645   9.606   2.893  10.086 -0.0680 -0.1582  0.1395
  291loPI   GL2 4646   9.685   3.155   9.938  0.0633 -0.0026  0.2476
  291loPI   C1A 4647   9.492   2.634   9.669 -0.2425 -0.0667 -0.1036
  291loPI   C2A 4648   9.534   2.524   9.250  0.2228  0.1510  0.0932
  291loPI   C3A 4649   9.579   2.487   8.948  0.0548 -0.1738  0.2617
  291loPI   C4A 4650   9.556   2.416   8.409  0.3174 -0.2735 -0.1280
  291loPI   C5A 4651   9.252   2.451   8.071  0.0089  0.2178  0.1406
  291loPI   C6A 4652   8.945   2.342   7.885 -0.1241 -0.2581  0.2440
  291loPI   C1B 4653   9.509   3.093   9.487 -0.0867 -0.0636  0.0058
  291loPI   C2B 4654   9.483   3.025   9.085  0.0541  0.3096  0.3599
  291loPI   C3B 4655   9.390   2.889   8.641  0.0281 -0.1494  0.0563
  291loPI   C4B 4656   9.448   2.915   8.130  0.1725 -0.0276  0.1273
  292loPI    C1 4657   2.893  18.119  10.482  0.0126 -0.1598 -0.1583
  292loPI    C2 4658   2.964  18.499  10.584 -0.1401 -0.0914 -0.3028
  292loPI    C3 4659   2.796  18.249  10.847 -0.0222 -0.0647 -0.2012
  292loPI   PO4 4660   2.883  18.154  10.240  0.0422  0.4122 -0.2232
  292loPI   GL1 4661   3.072  18.001   9.870  0.4389 -0.1573 -0.0076
  292loPI   GL2 4662   2.892  17.749   9.808  0.2256  0.2638 -0.1509
  292loPI   C1A 4663   3.107  17.881   9.379  0.0070  0.0594  0.1037
  292loPI   C2A 4664   3.127  17.959   8.996 -0.0376 -0.2873  0.1976
  292loPI   C3A 4665   3.032  17.978   8.528  0.0000 -0.2222  0.0735
  292loPI   C4A 4666   2.935  18.208   8.184 -0.1468  0.2421  0.0310
  292loPI   C5A 4667   2.654  18.581   8.075  0.0828  0.1569 -0.3080
  292loPI   C6A 4668   2.304  18.733   7.960 -0.3440 -0.0945 -0.1155
  292loPI   C1B 4669   2.956  17.428   9.524  0.1116 -0.2356  0.4880
  292loPI   C2B 4670   2.906  17.482   9.060 -0.0609 -0.0588 -0.0398
  292loPI   C3B 4671   2.814  17.607   8.760  0.0589 -0.1032 -0.3289
  292loPI   C4B 4672   2.474  17.654   8.565 -0.0744  0.0426 -0.1516
  293loPI    C1 4673  13.277  17.106  10.085  0.0454  0.3586 -0.0088
  293loPI    C2 4674  13.085  17.074  10.434  0.0959 -0.1512 -0.0199
  293loPI    C3 4675  12.888  17.197  10.108  0.0029  0.1440  0.1434
  293loPI   PO4 4676  13.450  16.838  10.027  0.2136 -0.2238 -0.1853
  293loPI   GL1 4677  13.652  16.583   9.658  0.0662 -0.1924 -0.1157
  293loPI   GL2 4678  13.488  16.788   9.560  0.0994 -0.0542 -0.0311
  293loPI   C1A 4679  13.751  16.415   9.198  0.1960  0.1598  0.2309
  293loPI   C2A 4680  13.978  16.243   8.969  0.2898  0.0395  0.1865
  293loPI   C3A 4681  14.036  16.213   8.440  0.1538  0.0698 -0.1053
  293loPI   C4A 4682  13.799  16.292   8.105 -0.1041  0.0963 -0.1333
  293loPI   C5A 4683  13.584  16.352   7.740  0.0222 -0.0099  0.0609
  293loPI   C6A 4684  13.286  16.730   7.851  0.1868  0.3695 -0.0986
  293loPI   C1B 4685  13.411  16.778   9.104 -0.0823 -0.0109  0.0645
  293loPI   C2B 4686  13.254  16.762   8.621 -0.0032  0.4110  0.0327
  293loPI   C3B 4687  13.519  16.893   8.270  0.2813  0.1469 -0.2353
  293loPI   C4B 4688  13.744  16.796   7.997 -0.2207 -0.3596  0.0981
  294loPI    C1 4689  10.566  15.368  10.076  0.3805  0.2710  0.2333
  294loPI    C2 4690  10.673  15.169   9.746 -0.2871  0.1747  0.0603
  294loPI    C3 4691  10.953  15.329   9.982  0.2306 -0.3043 -0.2046
  294loPI   PO4 4692  10.375  15.497  10.016  0.0192 -0.2449 -0.0592
  294loPI   GL1 4693  10.398  15.606   9.530 -0.3209  0.1924  0.3256
  294loPI   GL2 4694  10.142  15.356   9.472 -0.0680  0.2465 -0.0880
  294loPI   C1A 4695  10.506  15.613   9.195 -0.2713 -0.1373 -0.0747
  294loPI   C2A 4696  10.865  15.520   8.929 -0.0080  0.3949  0.2039
  294loPI   C3A 4697  10.788  15.620   8.501  0.0154 -0.0806 -0.0688
  294loPI   C4A 4698  10.775  15.558   8.097 -0.1278  0.0848  0.2548
  294loPI   C5A 4699  11.028  15.469   7.747 -0.0850 -0.2207 -0.1947
  294loPI   C6A 4700  11.175  15.049   7.487  0.1650  0.1551 -0.2710
  294loPI   C1B 4701  10.197  15.061   9.094 -0.0468 -0.0334 -0.0220
  294loPI   C2B 4702  10.175  14.692   8.793 -0.1344 -0.0750  0.0949
  294loPI   C3B 4703  10.227  14.550   8.306 -0.0131  0.2133  0.1658
  294loPI   C4B 4704  10.487  14.506   7.916 -0.1972  0.0192  0.1255
  295loPI    C1 4705   2.201  12.489  10.232  0.0420  0.0175  0.0368
  295loPI    C2 4706   2.048  12.514  10.601 -0.1167  0.0863 -0.0328
  295loPI    C3 4707   2.018  12.824  10.351  0.0978  0.0836 -0.0631
  295loPI   PO4 4708   2.277  12.185  10.276  0.0337  0.1526 -0.1240
  295loPI   GL1 4709   2.414  11.896   9.955  0.2362  0.1851 -0.1719
  295loPI   GL2 4710   2.245  12.264   9.780  0.0645 -0.1760 -0.0027
  295loPI   C1A 4711   2.763  12.019   9.749 -0.1130 -0.0901  0.2773
  295loPI   C2A 4712   2.774  12.039   9.341 -0.1769  0.2389  0.0751
  295loPI   C3A 4713   2.938  11.889   8.872 -0.0754  0.3151 -0.2727
  295loPI   C4A 4714   2.826  11.718   8.456  0.0135 -0.0884 -0.1053
  295loPI   C5A 4715   2.774  11.600   8.006 -0.1646 -0.2251  0.1053
  295loPI   C6A 4716   2.785  11.613   7.575 -0.3114 -0.1568  0.0655
  295loPI   C1B 4717   2.233  12.220   9.263 -0.0574  0.1155 -0.1794
  295loPI   C2B 4718   2.155  12.380   8.931 -0.0043 -0.2883 -0.2829
  295loPI   C3B 4719   2.189  12.288   8.479  0.3817  0.0863 -0.0386
  295loPI   C4B 4720   2.486  11.951   8.195  0.0589 -0.0179  0.2581
  296loPI    C1 4721   7.518  13.816  10.150 -0.2748 -0.1380  0.0464
  296loPI    C2 4722   7.557  13.483  10.369 -0.1233 -0.1943 -0.0642
  296loPI    C3 4723   7.384  13.808  10.527  0.0297 -0.2180  0.1560
  296loPI   PO4 4724   7.334  13.702   9.861 -0.1800  0.0708  0.0222
  296loPI   GL1 4725   7.255  13.699   9.427  0.0896  0.1172 -0.0962
  296loPI   GL2 4726   7.321  14.024   9.296 -0.1720  0.3102 -0.0709
  296loPI   C1A 4727   6.991  13.591   9.071  0.0471  0.4157  0.1291
  296loPI   C2A 4728   6.873  13.329   8.663  0.1559  0.0847 -0.2004
  296loPI   C3A 4729   6.893  13.435   8.291 -0.0127 -0.2719 -0.0738
  296loPI   C4A 4730   6.568  13.805   8.186  0.0188  0.0604  0.0035
  296loPI   C5A 4731   6.554  13.909   7.745 -0.1587  0.2609  0.1733
  296loPI   C6A 4732   6.659  14.225   7.449  0.3525  0.0285  0.1225
  296loPI   C1B 4733   7.368  13.974   8.839  0.2113 -0.1282 -0.0544
  296loPI   C2B 4734   7.373  13.822   8.486  0.2113 -0.3938  0.3676
  296loPI   C3B 4735   7.568  13.756   8.070  0.3159 -0.2601  0.2904
  296loPI   C4B 4736   7.482  13.839   7.668 -0.0334  0.0611 -0.1564
  297loPI    C1 4737   9.438   2.647  10.529 -0.1318  0.1040 -0.1101
  297loPI    C2 4738   9.534   3.008  10.674  0.0523 -0.0165  0.0751
  297loPI    C3 4739   9.455   2.706  10.925  0.0115 -0.1347 -0.0784
  297loPI   PO4 4740   9.215   2.687  10.362  0.4117  0.0394 -0.1360
  297loPI   GL1 4741   9.150   2.728   9.973  0.1225  0.0221 -0.1142
  297loPI   GL2 4742   8.876   2.795  10.023 -0.2642 -0.1335  0.3101
  297loPI   C1A 4743   9.055   2.781   9.452  0.1525 -0.3497 -0.2622
  297loPI   C2A 4744   9.088   2.679   8.986 -0.1272  0.0102 -0.0553
  297loPI   C3A 4745   9.148   2.355   8.649 -0.1411  0.1338 -0.0137
  297loPI   C4A 4746   9.017   2.085   8.424 -0.0289 -0.0207 -0.1568
  297loPI   C5A 4747   8.728   1.877   7.993  0.1082  0.1597  0.2084
  297loPI   C6A 4748   8.729   1.939   7.659 -0.0564  0.2369  0.3042
  297loPI   C1B 4749   8.653   2.641   9.663 -0.0966  0.0180 -0.3222
  297loPI   C2B 4750   8.727   2.452   9.272 -0.1939 -0.0147 -0.1609
  297loPI   C3B 4751   8.643   2.473   8.815  0.1082 -0.1310  0.1613
  297loPI   C4B 4752   8.590   2.449   8.495 -0.0558  0.0312 -0.0211
  298loPI    C1 4753   7.599   7.220  10.465  0.1174 -0.2715 -0.0944
  298loPI    C2 4754   7.781   7.088  10.796 -0.1601 -0.0133  0.1669
  298loPI    C3 4755   7.386   7.154  10.797 -0.1117  0.3050 -0.1157
  298loPI   PO4 4756   7.683   7.097  10.254 -0.1692  0.0498 -0.0827
  298loPI   GL1 4757   8.029   6.990   9.912  0.3637 -0.1474  0.3227
  298loPI   GL2 4758   8.160   6.674   9.933 -0.0638  0.5207  0.1283
  298loPI   C1A 4759   8.093   7.237   9.426  0.3792  0.0579 -0.1019
  298loPI   C2A 4760   8.169   7.473   9.073  0.1106 -0.0275 -0.1400
  298loPI   C3A 4761   8.098   7.642   8.629  0.2077 -0.0890 -0.3048
  298loPI   C4A 4762   8.067   7.884   8.213 -0.0589  0.0831 -0.1492
  298loPI   C5A 4763   7.980   8.228   8.072  0.0982  0.1310 -0.2816
  298loPI   C6A 4764   7.902   8.650   8.071  0.1658 -0.2084 -0.1475
  298loPI   C1B 4765   7.952   6.685   9.553 -0.0067 -0.0518  0.1334
  298loPI   C2B 4766   7.924   6.846   9.149  0.2493 -0.1039  0.0940
  298loPI   C3B 4767   7.775   6.759   8.720 -0.0275 -0.0412 -0.0742
  298loPI   C4B 4768   7.798   6.867   8.321 -0.0308  0.1514 -0.2089
  299loPI    C1 4769   2.426   6.761  10.527 -0.2103 -0.2271  0.1945
  299loPI    C2 4770   2.366   7.050  10.797  0.0535  0.2094 -0.1981
  299loPI    C3 4771   2.704   6.836  10.804  0.0199  0.1581 -0.1293
  299loPI   PO4 4772   2.390   6.851  10.318  0.2374  0.2014  0.0351
  299loPI   GL1 4773   2.475   7.130  10.062  0.0539 -0.2740 -0.1959
  299loPI   GL2 4774   2.218   7.388   9.954  0.2292  0.2367  0.0876
  299loPI   C1A 4775   2.427   6.966   9.639 -0.0225 -0.0105  0.0658
  299loPI   C2A 4776   2.493   6.917   9.284  0.3060  0.1918  0.1396
  299loPI   C3A 4777   2.489   6.906   8.813 -0.4037  0.0174  0.0389
  299loPI   C4A 4778   2.452   6.712   8.500 -0.4052 -0.1956  0.1134
  299loPI   C5A 4779   2.271   6.913   8.208 -0.0434  0.1761 -0.1539
  299loPI   C6A 4780   1.968   7.233   8.144 -0.0577  0.2027  0.3522
  299loPI   C1B 4781   2.441   7.480   9.610 -0.0787  0.0453 -0.0169
  299loPI   C2B 4782   2.686   7.421   9.278  0.2388  0.2539 -0.0946
  299loPI   C3B 4783   2.706   7.540   8.878  0.1361  0.0476 -0.0852
  299loPI   C4B 4784   2.764   7.641   8.540 -0.0139 -0.2135  0.2157
  300loPI    C1 4785  14.828  13.629  10.156 -0.3223  0.1622  0.0616
  300loPI    C2 4786  14.865  13.292  10.368 -0.1332  0.1139 -0.0463
  300loPI    C3 4787  15.118  13.596  10.429  0.0711  0.0119 -0.3624
  300loPI   PO4 4788  14.791  13.605   9.836 -0.0114  0.1370  0.4625
  300loPI   GL1 4789  15.084  13.655   9.523 -0.2410 -0.4709  0.0840
  300loPI   GL2 4790  14.851  13.403   9.356 -0.3042 -0.0644  0.1185
  300loPI   C1A 4791  15.182  13.700   9.148 -0.2606 -0.1284 -0.1543
  300loPI   C2A 4792  15.218  13.805   8.777  0.2163 -0.0058 -0.0397
  300loPI   C3A 4793  15.348  13.899   8.313  0.1206 -0.1186  0.3321
  300loPI   C4A 4794  15.451  13.947   7.919 -0.1158 -0.1787 -0.2597
  300loPI   C5A 4795  15.303  13.704   7.640  0.1870 -0.1241  0.0248
  300loPI   C6A 4796  14.978  13.708   7.271 -0.1160  0.4573 -0.0635
  300loPI   C1B 4797  14.849  13.404   8.928 -0.1873  0.2377  0.2897
  300loPI   C2B 4798  14.772  13.269   8.517 -0.0600  0.1376 -0.4058
  300loPI   C3B 4799  14.638  13.345   8.132  0.1301 -0.1228  0.0962
  300loPI   C4B 4800  14.315  13.221   7.923 -0.2216  0.0822 -0.2337
  301loPI    C1 4801  14.431  12.717  10.050  0.1652  0.0161 -0.0090
  301loPI    C2 4802  14.351  12.558  10.408  0.0050 -0.0747 -0.0838
  301loPI    C3 4803  14.616  12.856  10.376  0.0010 -0.0484  0.1132
  301loPI   PO4 4804  14.353  12.434   9.847 -0.0587 -0.1904 -0.1861
  301loPI   GL1 4805  14.163  12.518   9.503  0.2319 -0.2149  0.0188
  301loPI   GL2 4806  14.526  12.559   9.433 -0.2190  0.1124  0.1917
  301loPI   C1A 4807  14.179  12.589   9.064 -0.0810 -0.3398  0.1416
  301loPI   C2A 4808  14.013  12.626   8.610  0.1492 -0.0865  0.0509
  301loPI   C3A 4809  13.925  12.334   8.209  0.0029 -0.1036  0.0113
  301loPI   C4A 4810  13.564  12.392   7.901  0.1708  0.0217  0.3166
  301loPI   C5A 4811  13.390  12.265   7.677 -0.0484  0.3645 -0.5872
  301loPI   C6A 4812  13.196  12.157   7.177 -0.1887  0.2600 -0.0787
  301loPI   C1B 4813  14.809  12.529   9.158 -0.0760  0.3368  0.0775
  301loPI   C2B 4814  14.948  12.483   8.687 -0.0178  0.2727 -0.1023
  301loPI   C3B 4815  15.061  12.408   8.179  0.1127 -0.0892 -0.0686
  301loPI   C4B 4816  14.900  12.488   7.847 -0.3937  0.1620 -0.0403
  302loPI    C1 4817  18.201   6.435  11.080  0.2139  0.1219  0.0014
  302loPI    C2 4818  18.442   6.131  10.985 -0.0220  0.0142 -0.2656
  302loPI    C3 4819  18.438   6.273  11.358  0.0616 -0.3369 -0.1266
  302loPI   PO4 4820  18.064   6.508  10.807  0.0393 -0.1812  0.0307
  302loPI   GL1 4821  17.811   6.615  10.362  0.0861  0.3671 -0.1687
  302loPI   GL2 4822  18.051   6.839  10.366  0.0285 -0.0605  0.0982
  302loPI   C1A 4823  17.818   6.474   9.969 -0.3582  0.3531  0.0995
  302loPI   C2A 4824  17.621   6.487   9.531  0.1312  0.2842 -0.1002
  302loPI   C3A 4825  17.312   6.344   9.285 -0.0112  0.2105 -0.0400
  302loPI   C4A 4826  17.322   6.193   8.792 -0.2701  0.3394  0.1704
  302loPI   C5A 4827  17.483   6.411   8.429 -0.0753  0.2596 -0.1120
  302loPI   C6A 4828  17.762   6.756   8.321  0.2737  0.1023  0.1532
  302loPI   C1B 4829  18.130   6.851   9.931 -0.3204  0.0549  0.0420
  302loPI   C2B 4830  18.015   6.823   9.529  0.1635 -0.4331  0.0847
  302loPI   C3B 4831  17.841   6.895   9.108 -0.2431 -0.0025  0.3026
  302loPI   C4B 4832  17.599   6.584   8.874 -0.1575  0.2399 -0.1776
  303loPI    C1 4833  14.377  13.379  10.480  0.1489 -0.0494 -0.1648
  303loPI    C2 4834  14.218  13.053  10.649  0.1126  0.0813  0.0578
  303loPI    C3 4835  14.537  13.229  10.814  0.0890  0.1999 -0.0212
  303loPI   PO4 4836  14.372  13.275  10.202  0.1481  0.0309 -0.2153
  303loPI   GL1 4837  14.352  13.414   9.646  0.0218  0.3104 -0.1127
  303loPI   GL2 4838  14.046  13.532   9.549 -0.0194 -0.2453  0.0784
  303loPI   C1A 4839  14.419  13.099   9.352 -0.0581  0.1579 -0.2317
  303loPI   C2A 4840  14.549  12.892   8.957 -0.0963 -0.0181 -0.2289
  303loPI   C3A 4841  14.544  12.805   8.561 -0.1147  0.1261 -0.1915
  303loPI   C4A 4842  14.828  12.883   8.269  0.0743  0.0843 -0.1872
  303loPI   C5A 4843  14.844  12.998   7.791  0.2038  0.0698  0.2037
  303loPI   C6A 4844  14.875  13.406   7.678  0.1765 -0.0692 -0.1416
  303loPI   C1B 4845  14.223  13.507   9.061 -0.3192 -0.0670 -0.1297
  303loPI   C2B 4846  14.294  13.478   8.703 -0.1860  0.3144  0.1001
  303loPI   C3B 4847  14.318  13.738   8.331 -0.0352  0.4624  0.1968
  303loPI   C4B 4848  14.416  13.785   7.933  0.3606 -0.2318 -0.0173
  304loPI    C1 4849  17.297  11.042  10.361 -0.0789  0.2570 -0.1885
  304loPI    C2 4850  17.004  10.777  10.427  0.0457  0.0604 -0.4083
  304loPI    C3 4851  17.176  10.967  10.734 -0.2391  0.0997 -0.2705
  304loPI   PO4 4852  17.252  11.048  10.105  0.0240 -0.1935  0.0544
  304loPI   GL1 4853  17.427  10.997   9.723 -0.0245 -0.0657 -0.3309
  304loPI   GL2 4854  17.439  11.309   9.724  0.1982 -0.0207 -0.0857
  304loPI   C1A 4855  17.471  11.038   9.230  0.1120 -0.0329 -0.0951
  304loPI   C2A 4856  17.167  10.928   8.954 -0.2130  0.2083  0.1334
  304loPI   C3A 4857  17.294  10.895   8.564 -0.0675  0.0915 -0.0656
  304loPI   C4A 4858  17.099  10.713   8.151  0.0567  0.2131  0.1436
  304loPI   C5A 4859  16.879  10.390   7.923 -0.3829  0.0110  0.1797
  304loPI   C6A 4860  16.601  10.042   7.721  0.2975 -0.1084  0.1530
  304loPI   C1B 4861  17.209  11.447   9.419 -0.0899  0.1961 -0.1955
  304loPI   C2B 4862  17.102  11.546   8.971 -0.0727 -0.0926 -0.1484
  304loPI   C3B 4863  17.142  11.380   8.588  0.2078 -0.1993 -0.1977
  304loPI   C4B 4864  17.399  11.363   8.223 -0.0192  0.0835 -0.1215
  305loPI    C1 4865   4.440  12.638  10.439  0.0119  0.0376  0.2178
  305loPI    C2 4866   4.073  12.789  10.390 -0.0289 -0.1588 -0.1163
  305loPI    C3 4867   4.358  13.007  10.568 -0.1786  0.1772 -0.2787
  305loPI   PO4 4868   4.416  12.450  10.138  0.3591  0.1223 -0.3823
  305loPI   GL1 4869   4.481  12.561   9.682  0.0708  0.2287 -0.0588
  305loPI   GL2 4870   4.567  12.245   9.559 -0.1110  0.2863 -0.0102
  305loPI   C1A 4871   4.347  12.656   9.357  0.0838 -0.1726 -0.3594
  305loPI   C2A 4872   4.381  12.575   8.908  0.1072  0.1295 -0.1410
  305loPI   C3A 4873   4.564  12.582   8.488 -0.2115  0.1940 -0.1435
  305loPI   C4A 4874   4.511  12.505   8.052  0.1403 -0.2126  0.0006
  305loPI   C5A 4875   4.358  12.202   7.710  0.0850  0.2822 -0.2671
  305loPI   C6A 4876   4.635  12.047   7.415 -0.0660 -0.0849  0.0607
  305loPI   C1B 4877   4.813  12.417   9.255 -0.0620  0.1096 -0.1647
  305loPI   C2B 4878   4.883  12.260   8.761  0.1363  0.2189 -0.0521
  305loPI   C3B 4879   4.897  12.133   8.297 -0.0317  0.1307  0.0653
  305loPI   C4B 4880   4.956  11.877   7.877 -0.0821 -0.4742  0.0455
  306loPI    C1 4881  13.142   8.064  10.105  0.0038 -0.0454 -0.2307
  306loPI    C2 4882  13.260   7.809  10.390  0.1336  0.3633  0.0919
  306loPI    C3 4883  12.873   7.904  10.354  0.0330 -0.1360 -0.2569
  306loPI   PO4 4884  13.249   8.041   9.812 -0.1416  0.0611 -0.0019
  306loPI   GL1 4885  13.448   8.223   9.410  0.0464  0.0918  0.0574
  306loPI   GL2 4886  13.248   8.109   9.321 -0.2847 -0.2144 -0.1241
  306loPI   C1A 4887  13.649   8.260   9.053 -0.0253 -0.2582 -0.2392
  306loPI   C2A 4888  13.726   8.181   8.640  0.0832 -0.0037 -0.1576
  306loPI   C3A 4889  13.908   8.016   8.343 -0.2803  0.2474 -0.1301
  306loPI   C4A 4890  14.298   7.776   8.282 -0.1155 -0.0408 -0.0300
  306loPI   C5A 4891  14.705   7.738   8.296  0.0643 -0.1471  0.0343
  306loPI   C6A 4892  15.104   7.837   8.044 -0.2014 -0.0568 -0.0000
  306loPI   C1B 4893  13.228   8.223   8.806  0.2562  0.1162 -0.5684
  306loPI   C2B 4894  13.214   8.108   8.357  0.3349 -0.0056 -0.3237
  306loPI   C3B 4895  13.072   7.627   8.215  0.1231  0.3000 -0.3032
  306loPI   C4B 4896  12.841   7.374   8.546 -0.0178 -0.0174 -0.1268
  307loPI    C1 4897   9.638  15.148  10.040 -0.0037  0.0748  0.0602
  307loPI    C2 4898   9.919  15.330  10.259  0.2783 -0.2293 -0.0419
  307loPI    C3 4899   9.557  15.495  10.223  0.3867  0.0802  0.2334
  307loPI   PO4 4900   9.767  15.066   9.820  0.0270 -0.0386  0.1860
  307loPI   GL1 4901   9.761  14.879   9.422 -0.0810 -0.1596  0.1008
  307loPI   GL2 4902   9.545  15.116   9.410  0.0456 -0.0426 -0.2031
  307loPI   C1A 4903   9.744  14.893   8.930  0.1633  0.0566 -0.1861
  307loPI   C2A 4904   9.670  15.032   8.454 -0.1145 -0.0685  0.0610
  307loPI   C3A 4905   9.521  15.006   8.032  0.3941  0.0026  0.3625
  307loPI   C4A 4906   9.494  15.261   7.715 -0.2334  0.0560 -0.0259
  307loPI   C5A 4907   9.850  15.478   7.551 -0.2512  0.1711  0.1585
  307loPI   C6A 4908  10.200  15.584   7.368 -0.3310  0.3523  0.0649
  307loPI   C1B 4909   9.784  15.385   9.120 -0.1979 -0.0278  0.1230
  307loPI   C2B 4910   9.967  15.395   8.758  0.1955  0.0651 -0.4805
  307loPI   C3B 4911   9.860  15.500   8.435 -0.3041  0.0296 -0.0831
  307loPI   C4B 4912   9.817  15.407   8.113 -0.1024  0.0271  0.1736
  308loPI    C1 4913   2.725  11.588  10.226 -0.3021 -0.1530 -0.1067
  308loPI    C2 4914   2.602  11.336  10.510  0.0951 -0.1495  0.0751
  308loPI    C3 4915   2.444  11.702  10.486 -0.2890 -0.3171 -0.0194
  308loPI   PO4 4916   3.028  11.475  10.235  0.2079  0.0528 -0.1329
  308loPI   GL1 4917   3.176  11.470   9.766 -0.2703  0.0586 -0.0202
  308loPI   GL2 4918   2.851  11.533   9.774  0.1747 -0.2628 -0.0560
  308loPI   C1A 4919   3.358  11.307   9.432  0.1293 -0.1875  0.2582
  308loPI   C2A 4920   3.295  11.172   8.953  0.0796  0.2447  0.0110
  308loPI   C3A 4921   3.246  11.303   8.433  0.0514  0.2876 -0.2642
  308loPI   C4A 4922   3.147  11.244   8.022 -0.0738  0.2372 -0.0132
  308loPI   C5A 4923   3.090  10.796   7.900  0.2659 -0.0087 -0.2315
  308loPI   C6A 4924   2.775  10.482   7.902  0.1313  0.1203 -0.0950
  308loPI   C1B 4925   2.862  11.492   9.328 -0.6572  0.0225  0.3961
  308loPI   C2B 4926   2.851  11.393   8.918  0.1323 -0.3182 -0.1077
  308loPI   C3B 4927   2.713  11.242   8.474 -0.0258  0.2018  0.0581
  308loPI   C4B 4928   2.668  11.120   8.106 -0.1852 -0.2226  0.0178
  309loPI    C1 4929  16.364  11.987  10.205  0.1640  0.1352  0.1862
  309loPI    C2 4930  16.519  11.717   9.953 -0.1806  0.1978 -0.1012
  309loPI    C3 4931  16.513  11.643  10.346 -0.1336 -0.1458 -0.1619
  309loPI   PO4 4932  16.232  12.101  10.074  0.4210  0.0706 -0.0799
  309loPI   GL1 4933  16.004  12.256   9.681 -0.0607  0.2974  0.0420
  309loPI   GL2 4934  15.752  12.444   9.635  0.4607 -0.0927 -0.2343
  309loPI   C1A 4935  16.310  12.394   9.439 -0.1597 -0.2201  0.3436
  309loPI   C2A 4936  16.399  12.517   9.019 -0.1716 -0.4554 -0.0046
  309loPI   C3A 4937  16.581  12.521   8.642 -0.1456  0.1168 -0.0196
  309loPI   C4A 4938  16.670  12.277   8.239 -0.1469 -0.0381  0.1459
  309loPI   C5A 4939  16.703  11.928   7.966 -0.3258 -0.1547  0.0081
  309loPI   C6A 4940  17.049  11.612   7.784  0.1751 -0.0655 -0.0351
  309loPI   C1B 4941  15.867  12.433   9.203  0.2215 -0.2142  0.1323
  309loPI   C2B 4942  15.977  12.407   8.732  0.3155 -0.1119 -0.0363
  309loPI   C3B 4943  16.040  12.369   8.269 -0.1287 -0.1429 -0.1464
  309loPI   C4B 4944  15.812  12.314   7.794 -0.0748  0.1749 -0.2909
  310loPI    C1 4945  17.332  15.415  10.187  0.0980  0.1165  0.0562
  310loPI    C2 4946  17.335  15.115  10.451 -0.0543 -0.1317 -0.2180
  310loPI    C3 4947  16.996  15.313  10.378  0.0799  0.2204  0.0805
  310loPI   PO4 4948  17.509  15.270  10.003 -0.4051 -0.0593  0.0501
  310loPI   GL1 4949  17.376  15.057   9.580  0.2591  0.0252  0.3106
  310loPI   GL2 4950  17.520  14.918   9.487 -0.0094 -0.3508 -0.1277
  310loPI   C1A 4951  17.338  15.154   9.162  0.1545  0.1502  0.1654
  310loPI   C2A 4952  17.458  15.185   8.787 -0.1962  0.2678  0.0496
  310loPI   C3A 4953  17.530  15.378   8.427  0.2496 -0.2018  0.2205
  310loPI   C4A 4954  17.781  15.527   8.252 -0.2567  0.0459 -0.0187
  310loPI   C5A 4955  17.865  15.774   7.820  0.1261 -0.1065 -0.0200
  310loPI   C6A 4956  18.153  16.017   7.578 -0.2110 -0.2225 -0.0200
  310loPI   C1B 4957  17.652  14.715   9.157 -0.0687 -0.0412 -0.0680
  310loPI   C2B 4958  17.731  14.720   8.690  0.1393  0.1338  0.1309
  310loPI   C3B 4959  17.884  14.919   8.327  0.1295 -0.2028 -0.1564
  310loPI   C4B 4960  17.699  15.153   7.972  0.1064  0.1179  0.3690
  311loPI    C1 4961   1.078  17.423  10.550  0.0026 -0.0906 -0.3504
  311loPI    C2 4962   1.335  17.231  10.790  0.0115  0.1647 -0.1509
  311loPI    C3 4963   0.949  17.261  10.893 -0.0453  0.0198 -0.3158
  311loPI   PO4 4964   1.061  17.292  10.357  0.0270 -0.0112 -0.1434
  311loPI   GL1 4965   1.236  17.201  10.008 -0.1453  0.2942  0.0030
  311loPI   GL2 4966   1.531  17.395   9.906  0.0431  0.0632 -0.0087
  311loPI   C1A 4967   1.335  17.000   9.572  0.0657  0.1424  0.0259
  311loPI   C2A 4968   1.488  17.086   9.237  0.0250  0.1939  0.0373
  311loPI   C3A 4969   1.330  17.109   8.869 -0.3728 -0.2343  0.0875
  311loPI   C4A 4970   1.213  17.269   8.428 -0.0053 -0.2515 -0.2941
  311loPI   C5A 4971   1.290  17.304   8.053 -0.1288 -0.0413  0.2270
  311loPI   C6A 4972   1.330  17.369   7.626 -0.3763  0.2023 -0.1465
  311loPI   C1B 4973   1.521  17.454   9.509  0.3044  0.0306 -0.2241
  311loPI   C2B 4974   1.616  17.530   9.078 -0.1796  0.0456  0.0597
  311loPI   C3B 4975   1.566  17.567   8.632  0.0544 -0.1144  0.2298
  311loPI   C4B 4976   1.752  17.498   8.228 -0.0689  0.0978  0.1442
  312loPI    C1 4977  15.944  13.044  10.503 -0.2373 -0.3289  0.0973
  312loPI    C2 4978  16.001  12.657  10.588  0.2181 -0.3099 -0.0911
  312loPI    C3 4979  16.281  12.926  10.685 -0.1839  0.0081  0.2250
  312loPI   PO4 4980  15.993  13.069  10.255  0.1831  0.1185 -0.1040
  312loPI   GL1 4981  15.813  13.063   9.836 -0.1020  0.1103  0.0931
  312loPI   GL2 4982  15.634  13.314   9.747  0.1916 -0.0552 -0.1307
  312loPI   C1A 4983  16.194  12.917   9.602 -0.0102 -0.2118  0.2712
  312loPI   C2A 4984  16.164  12.926   9.203  0.0013 -0.0296 -0.0911
  312loPI   C3A 4985  16.276  12.915   8.723 -0.0235  0.1835 -0.1517
  312loPI   C4A 4986  16.368  12.756   8.259 -0.1905  0.0906 -0.1137
  312loPI   C5A 4987  16.207  12.855   7.726  0.2010  0.1553 -0.1139
  312loPI   C6A 4988  16.350  13.211   7.356 -0.1984 -0.1866 -0.0932
  312loPI   C1B 4989  15.372  13.302   9.318  0.1104 -0.0877 -0.2538
  312loPI   C2B 4990  15.421  13.370   8.922  0.2704 -0.0298  0.1415
  312loPI   C3B 4991  15.325  13.405   8.523 -0.0632 -0.0593  0.1936
  312loPI   C4B 4992  15.189  13.307   8.189  0.0928 -0.2472  0.1256
  313loPI    C1 4993   0.580  10.868  10.375  0.1136 -0.0239 -0.1517
  313loPI    C2 4994   0.839  11.023  10.638  0.1182  0.1138 -0.2363
  313loPI    C3 4995   0.681  10.661  10.702 -0.0044  0.2134  0.0382
  313loPI   PO4 4996   0.695  10.999  10.104  0.3314  0.1559  0.0376
  313loPI   GL1 4997   0.884  10.907   9.806  0.2930 -0.0773 -0.0002
  313loPI   GL2 4998   1.148  10.761   9.676  0.1180 -0.0881 -0.3588
  313loPI   C1A 4999   0.813  11.038   9.481 -0.1061 -0.1153  0.1339
  313loPI   C2A 5000   0.847  11.225   9.113  0.2293 -0.1503  0.2188
  313loPI   C3A 5001   0.985  11.044   8.701 -0.0680  0.1834  0.0811
  313loPI   C4A 5002   1.144  10.913   8.362 -0.3327  0.4330  0.0643
  313loPI   C5A 5003   1.404  11.166   8.066 -0.1247  0.3299 -0.0270
  313loPI   C6A 5004   1.791  11.357   7.878 -0.1067  0.1497 -0.3886
  313loPI   C1B 5005   1.314  10.670   9.268 -0.0056 -0.1228 -0.3378
  313loPI   C2B 5006   1.350  10.661   8.905  0.0542  0.2544 -0.1616
  313loPI   C3B 5007   1.499  10.651   8.621 -0.0429  0.1098  0.1591
  313loPI   C4B 5008   1.589  10.751   8.270  0.1615  0.0139  0.0125
  314loPI    C1 5009   6.894   4.930  10.626 -0.1234  0.0238 -0.1962
  314loPI    C2 5010   6.533   4.759  10.623 -0.1904  0.1596 -0.0142
  314loPI    C3 5011   6.728   4.807  10.969  0.1269 -0.1713 -0.1414
  314loPI   PO4 5012   6.906   4.920  10.345 -0.0128 -0.1941  0.3019
  314loPI   GL1 5013   6.928   5.268   9.986 -0.1298  0.1497 -0.3833
  314loPI   GL2 5014   6.709   5.531   9.972  0.0581 -0.1071  0.1366
  314loPI   C1A 5015   6.944   5.208   9.571  0.1983  0.1143  0.0932
  314loPI   C2A 5016   6.928   5.079   9.068 -0.0126 -0.0359 -0.2962
  314loPI   C3A 5017   6.923   5.162   8.636  0.0802 -0.1766  0.2958
  314loPI   C4A 5018   6.932   5.175   8.199 -0.1297 -0.2384 -0.0514
  314loPI   C5A 5019   6.938   4.796   7.945 -0.1264  0.1220  0.0898
  314loPI   C6A 5020   6.837   4.402   7.786 -0.1452 -0.0032  0.1496
  314loPI   C1B 5021   6.723   5.867   9.573  0.0637 -0.2506 -0.1118
  314loPI   C2B 5022   6.820   5.990   9.221  0.0953 -0.2599 -0.4520
  314loPI   C3B 5023   6.624   6.129   8.943 -0.2587 -0.3218  0.1003
  314loPI   C4B 5024   6.590   6.024   8.504 -0.0876 -0.1127 -0.1270
  315loPI    C1 5025  14.828  15.849  10.140 -0.1384 -0.2396 -0.2066
  315loPI    C2 5026  14.455  15.955  10.042 -0.1044  0.0704 -0.0157
  315loPI    C3 5027  14.532  15.805  10.405 -0.0275  0.0954 -0.0216
  315loPI   PO4 5028  15.001  15.841   9.852 -0.1646 -0.1518 -0.1420
  315loPI   GL1 5029  14.666  15.732   9.579  0.0342 -0.0413  0.1083
  315loPI   GL2 5030  14.853  15.779   9.213  0.1700 -0.0380  0.1650
  315loPI   C1A 5031  14.419  15.491   9.253  0.2503 -0.0789 -0.1408
  315loPI   C2A 5032  14.524  15.418   8.924 -0.0007 -0.2203  0.0834
  315loPI   C3A 5033  14.543  15.294   8.592  0.1809 -0.0898  0.3135
  315loPI   C4A 5034  14.624  15.184   8.140 -0.0747  0.0762 -0.0228
  315loPI   C5A 5035  14.673  15.093   7.771 -0.1244 -0.0197 -0.0434
  315loPI   C6A 5036  14.897  15.063   7.502  0.0470  0.1817  0.1691
  315loPI   C1B 5037  14.819  15.777   8.731  0.1191  0.3431 -0.2714
  315loPI   C2B 5038  14.802  15.608   8.298 -0.1805  0.0266 -0.4528
  315loPI   C3B 5039  14.620  15.684   7.883  0.0607  0.0068 -0.2885
  315loPI   C4B 5040  14.654  15.951   7.536  0.0981  0.1862  0.1258
  316loPI    C1 5041  14.108   3.855  10.885  0.1262  0.0787 -0.0098
  316loPI    C2 5042  14.016   3.783  11.268 -0.0649 -0.0032 -0.0701
  316loPI    C3 5043  14.069   4.159  11.143 -0.0244  0.0252  0.0318
  316loPI   PO4 5044  14.008   3.684  10.720  0.1277 -0.0058 -0.0686
  316loPI   GL1 5045  13.958   3.462  10.336 -0.0374 -0.0057  0.1538
  316loPI   GL2 5046  14.219   3.251  10.205 -0.0876 -0.0497  0.2032
  316loPI   C1A 5047  13.911   3.480   9.865  0.1426 -0.3582 -0.1946
  316loPI   C2A 5048  13.772   3.567   9.423 -0.1723  0.3623 -0.2130
  316loPI   C3A 5049  13.337   3.368   9.177  0.0942  0.5404 -0.1054
  316loPI   C4A 5050  13.249   3.148   8.870  0.1633 -0.0927 -0.1286
  316loPI   C5A 5051  13.082   3.020   8.488 -0.1711  0.1335  0.2412
  316loPI   C6A 5052  13.286   3.256   8.241  0.0292 -0.0754  0.0684
  316loPI   C1B 5053  14.209   3.067   9.743 -0.0083 -0.0724 -0.0727
  316loPI   C2B 5054  14.123   2.685   9.464  0.0857 -0.1048 -0.1316
  316loPI   C3B 5055  14.119   2.687   9.044 -0.2090 -0.1223 -0.2156
  316loPI   C4B 5056  14.120   2.994   8.679 -0.3053 -0.0731 -0.0414
  317loPI    C1 5057   9.265   8.236  10.270  0.0230 -0.0503 -0.1642
  317loPI    C2 5058   9.156   8.401  10.618  0.1469 -0.0411 -0.1290
  317loPI    C3 5059   8.933   8.458  10.290  0.0576 -0.0071 -0.0630
  317loPI   PO4 5060   9.295   8.006  10.313  0.1285  0.0903 -0.0979
  317loPI   GL1 5061   9.186   7.954   9.868 -0.0129  0.2930  0.1686
  317loPI   GL2 5062   9.402   7.770   9.732  0.0955  0.0100  0.1390
  317loPI   C1A 5063   8.951   8.233   9.670  0.0411  0.1296  0.1323
  317loPI   C2A 5064   8.752   8.287   9.219  0.4717  0.1550  0.1192
  317loPI   C3A 5065   8.655   8.245   8.833  0.3339 -0.3470  0.1506
  317loPI   C4A 5066   8.508   7.925   8.513  0.0478  0.0230 -0.1390
  317loPI   C5A 5067   8.463   7.610   8.072 -0.1147  0.1285  0.0858
  317loPI   C6A 5068   8.213   7.252   7.917  0.0166  0.0871 -0.1093
  317loPI   C1B 5069   9.257   7.603   9.224 -0.0928  0.0002 -0.2765
  317loPI   C2B 5070   9.211   7.481   8.881 -0.0126 -0.2211 -0.2798
  317loPI   C3B 5071   9.062   7.209   8.556 -0.0491 -0.2390 -0.0485
  317loPI   C4B 5072   9.055   7.025   8.161 -0.0205  0.1983  0.0813
  318loPI    C1 5073   9.118  15.000   9.980  0.0492  0.1254 -0.0307
  318loPI    C2 5074   8.783  15.131  10.154  0.1337  0.2784  0.0182
  318loPI    C3 5075   9.135  15.177  10.338  0.1388 -0.2568  0.1601
  318loPI   PO4 5076   9.123  15.113   9.697  0.4539  0.2900 -0.0872
  318loPI   GL1 5077   9.070  15.318   9.413 -0.1136 -0.1279  0.1236
  318loPI   GL2 5078   8.864  15.143   9.195  0.3749  0.0216 -0.0817
  318loPI   C1A 5079   9.258  15.487   9.118  0.2099 -0.0816 -0.2269
  318loPI   C2A 5080   9.336  15.380   8.740 -0.3796  0.2401 -0.0741
  318loPI   C3A 5081   9.277  15.409   8.250  0.0112 -0.2379  0.1798
  318loPI   C4A 5082   9.030  15.528   7.868  0.1959  0.1572 -0.0137
  318loPI   C5A 5083   9.099  15.269   7.405 -0.0837 -0.2560 -0.0823
  318loPI   C6A 5084   9.243  15.247   6.989  0.0523  0.0004 -0.1353
  318loPI   C1B 5085   8.779  15.341   8.796 -0.1757  0.0518 -0.0820
  318loPI   C2B 5086   8.732  15.439   8.372  0.2751  0.1945  0.1850
  318loPI   C3B 5087   8.586  15.377   8.003  0.1221  0.4434  0.1435
  318loPI   C4B 5088   8.610  15.260   7.563 -0.2659  0.2189 -0.2442
  319loPI    C1 5089   5.840  12.175  10.279  0.0719  0.2209 -0.1221
  319loPI    C2 5090   6.049  12.114  10.614 -0.1481 -0.1162 -0.0414
  319loPI    C3 5091   5.696  12.299  10.631 -0.1152 -0.0477 -0.1010
  319loPI   PO4 5092   5.757  11.877  10.167 -0.0883 -0.2230 -0.1077
  319loPI   GL1 5093   5.926  11.742   9.852 -0.0506  0.0160  0.1987
  319loPI   GL2 5094   5.938  11.962   9.704  0.2315  0.1880 -0.4039
  319loPI   C1A 5095   5.960  11.609   9.377 -0.0723 -0.2168 -0.3059
  319loPI   C2A 5096   5.952  11.665   8.943  0.2265 -0.0187  0.0678
  319loPI   C3A 5097   6.140  11.682   8.622  0.0154  0.0971  0.0403
  319loPI   C4A 5098   6.016  11.551   8.268  0.0290  0.1877  0.0628
  319loPI   C5A 5099   5.820  11.450   7.867 -0.1760 -0.0493 -0.5328
  319loPI   C6A 5100   5.856  11.429   7.390  0.1626 -0.2865 -0.1335
  319loPI   C1B 5101   5.832  12.232   9.333 -0.3576  0.0323 -0.0336
  319loPI   C2B 5102   5.789  12.302   8.945 -0.2074 -0.0065 -0.2467
  319loPI   C3B 5103   5.837  12.126   8.555 -0.1203  0.1574  0.0843
  319loPI   C4B 5104   5.890  11.967   8.099  0.1607 -0.2009 -0.1020
  320loPI    C1 5105   9.999   7.206  10.265 -0.0518 -0.3125  0.0979
  320loPI    C2 5106  10.350   7.206  10.073  0.0060 -0.0317  0.1993
  320loPI    C3 5107  10.324   7.358  10.442 -0.2762  0.1978  0.0886
  320loPI   PO4 5108   9.835   6.970  10.221 -0.1100 -0.0539 -0.2119
  320loPI   GL1 5109   9.668   6.849   9.866 -0.1131  0.0381 -0.0810
  320loPI   GL2 5110   9.757   6.500   9.678 -0.1000 -0.0746  0.2256
  320loPI   C1A 5111   9.896   6.951   9.443  0.1577 -0.1276  0.0493
  320loPI   C2A 5112   9.976   6.942   8.990  0.1295 -0.1417  0.2799
  320loPI   C3A 5113   9.810   6.668   8.583 -0.0443 -0.0265 -0.1222
  320loPI   C4A 5114   9.423   6.691   8.177  0.0444 -0.0715  0.0106
  320loPI   C5A 5115   9.322   6.345   7.883 -0.1076  0.1439 -0.2137
  320loPI   C6A 5116   9.253   6.311   7.465  0.0049 -0.2872 -0.1217
  320loPI   C1B 5117   9.921   6.510   9.209 -0.2363 -0.0726 -0.2892
  320loPI   C2B 5118  10.176   6.239   8.847 -0.5112 -0.0468 -0.0835
  320loPI   C3B 5119  10.068   6.263   8.463 -0.1373 -0.0199  0.1124
  320loPI   C4B 5120  10.336   6.273   8.093  0.0662 -0.0421  0.0398
  321loPI    C1 5121  14.925   0.651  10.416  0.1299 -0.1345  0.1665
  321loPI    C2 5122  14.742   0.905  10.665 -0.0391 -0.0152 -0.0749
  321loPI    C3 5123  14.655   0.515  10.678  0.0557 -0.0308  0.1445
  321loPI   PO4 5124  14.900   0.760  10.195  0.2085 -0.0835 -0.1269
  321loPI   GL1 5125  15.020   0.723   9.811 -0.0014 -0.1515  0.0881
  321loPI   GL2 5126  14.936   0.587   9.508  0.0638 -0.2107  0.0646
  321loPI   C1A 5127  15.257   0.944   9.470 -0.5246  0.4695  0.0697
  321loPI   C2A 5128  15.164   1.110   9.068 -0.2496  0.2104  0.2130
  321loPI   C3A 5129  15.306   1.399   8.660  0.0131 -0.0793  0.0397
  321loPI   C4A 5130  15.468   1.406   8.265 -0.0046  0.1553 -0.0857
  321loPI   C5A 5131  15.316   1.662   7.925  0.0524 -0.2703 -0.0537
  321loPI   C6A 5132  15.321   2.009   7.910  0.1168 -0.0441  0.2987
  321loPI   C1B 5133  14.960   0.656   9.101  0.0211  0.0930 -0.1949
  321loPI   C2B 5134  15.284   0.826   8.644  0.0596 -0.1624 -0.0655
  321loPI   C3B 5135  15.223   0.930   8.176  0.1322  0.0550  0.0305
  321loPI   C4B 5136  15.423   1.098   7.873  0.1287 -0.1884  0.0099
  322loPI    C1 5137  15.761  15.218  10.251 -0.2587  0.2954  0.1356
  322loPI    C2 5138  15.480  15.195  10.535 -0.2189  0.0850  0.1597
  322loPI    C3 5139  15.867  15.164  10.633 -0.2014  0.0882  0.0919
  322loPI   PO4 5140  15.720  14.974  10.048 -0.1807  0.2661  0.0083
  322loPI   GL1 5141  15.904  14.845   9.694  0.1765 -0.3753 -0.3134
  322loPI   GL2 5142  16.255  14.659   9.606 -0.0505  0.0191 -0.1307
  322loPI   C1A 5143  16.073  14.991   9.308  0.0752  0.0315  0.0372
  322loPI   C2A 5144  16.189  15.101   8.968  0.0318 -0.2004  0.0414
  322loPI   C3A 5145  16.393  15.085   8.565 -0.3776  0.0163  0.0212
  322loPI   C4A 5146  16.329  15.028   8.208 -0.1363 -0.2458  0.0364
  322loPI   C5A 5147  16.506  15.140   7.795 -0.1685  0.3436 -0.0930
  322loPI   C6A 5148  16.975  15.242   7.600 -0.0176 -0.0453 -0.0137
  322loPI   C1B 5149  16.569  14.796   9.216 -0.2870  0.0738  0.1948
  322loPI   C2B 5150  16.618  14.681   8.794  0.0102 -0.3424 -0.3574
  322loPI   C3B 5151  16.750  14.761   8.366 -0.0033 -0.1465 -0.0070
  322loPI   C4B 5152  16.808  14.797   7.962 -0.1176 -0.2455  0.2026
  323loPI    C1 5153   6.224   7.538  10.983  0.0730  0.1342 -0.0623
  323loPI    C2 5154   5.834   7.609  11.042  0.0215 -0.1931  0.0074
  323loPI    C3 5155   5.957   7.246  10.927  0.2986 -0.0660 -0.1078
  323loPI   PO4 5156   6.380   7.643  10.708  0.1972  0.3813 -0.0473
  323loPI   GL1 5157   6.380   7.915  10.368 -0.1334  0.0583 -0.1515
  323loPI   GL2 5158   6.477   8.235  10.174  0.0437  0.0359 -0.1127
  323loPI   C1A 5159   6.200   7.852   9.894  0.1473  0.1015 -0.3662
  323loPI   C2A 5160   6.131   7.898   9.457 -0.3494 -0.0941  0.2263
  323loPI   C3A 5161   6.149   7.730   9.002 -0.3319 -0.0205 -0.5319
  323loPI   C4A 5162   6.235   7.854   8.572  0.3218 -0.0910  0.1370
  323loPI   C5A 5163   6.396   7.593   8.251 -0.3047  0.0468  0.0695
  323loPI   C6A 5164   6.747   7.324   8.136 -0.1276  0.4418 -0.1258
  323loPI   C1B 5165   6.368   8.325   9.785 -0.1577 -0.0773  0.2435
  323loPI   C2B 5166   6.457   8.263   9.390 -0.1496 -0.1627  0.1026
  323loPI   C3B 5167   6.541   8.240   8.926 -0.0798  0.1300 -0.2359
  323loPI   C4B 5168   6.653   8.385   8.498  0.0006 -0.1257  0.2516
  324loPI    C1 5169   0.978   9.309  10.180  0.2763 -0.2724  0.2126
  324loPI    C2 5170   1.109   9.289  10.558 -0.2261 -0.0367  0.4091
  324loPI    C3 5171   1.034   9.644  10.391 -0.1153 -0.1451  0.1219
  324loPI   PO4 5172   1.101   9.242  10.045  0.4125  0.0054  0.1685
  324loPI   GL1 5173   1.056   8.947   9.683 -0.1675  0.0052 -0.0687
  324loPI   GL2 5174   0.719   8.917   9.775  0.0598  0.1108 -0.1847
  324loPI   C1A 5175   1.142   8.991   9.215 -0.2346 -0.2097  0.0232
  324loPI   C2A 5176   1.256   8.912   8.728 -0.0174 -0.0510 -0.0490
  324loPI   C3A 5177   1.525   8.916   8.368  0.2820 -0.2686 -0.1090
  324loPI   C4A 5178   1.711   9.135   8.018  0.1865  0.1531  0.3662
  324loPI   C5A 5179   1.925   9.403   7.822  0.1566  0.1033  0.0272
  324loPI   C6A 5180   1.787   9.458   7.294  0.1995  0.3023 -0.0774
  324loPI   C1B 5181   0.783   8.678   9.357  0.0612 -0.1201 -0.1258
  324loPI   C2B 5182   0.806   8.581   8.974  0.2084 -0.1671  0.0192
  324loPI   C3B 5183   0.782   8.644   8.566  0.0713  0.1248  0.3612
  324loPI   C4B 5184   0.960   8.939   8.271 -0.4596  0.3262 -0.2283
  325loPI    C1 5185   1.315   5.376  10.938  0.0499  0.2089  0.0251
  325loPI    C2 5186   1.276   5.036  11.146 -0.3870  0.1914 -0.0755
  325loPI    C3 5187   1.379   5.374  11.333  0.4248 -0.0573 -0.0308
  325loPI   PO4 5188   1.337   5.273  10.708 -0.0021  0.2350  0.3290
  325loPI   GL1 5189   1.548   5.261  10.327  0.0722  0.1088 -0.0579
  325loPI   GL2 5190   1.691   5.522  10.237 -0.2861 -0.0978 -0.1740
  325loPI   C1A 5191   1.429   5.269   9.946 -0.2009 -0.0072 -0.1946
  325loPI   C2A 5192   1.337   5.350   9.568  0.3730  0.1360 -0.1064
  325loPI   C3A 5193   1.265   5.472   9.125 -0.1107  0.1531 -0.3895
  325loPI   C4A 5194   1.022   5.784   8.860  0.0892  0.2505 -0.1417
  325loPI   C5A 5195   1.042   5.963   8.474  0.0478 -0.4552  0.0295
  325loPI   C6A 5196   1.170   6.019   8.097 -0.1592  0.1063  0.1040
  325loPI   C1B 5197   1.819   5.630   9.747 -0.0717  0.1458 -0.0120
  325loPI   C2B 5198   1.746   5.534   9.292 -0.2013  0.0814 -0.0103
  325loPI   C3B 5199   1.973   5.268   9.070  0.0473  0.1435 -0.0571
  325loPI   C4B 5200   2.155   4.998   8.747  0.3593  0.2753 -0.0893
  326loPI    C1 5201   4.836  17.519  10.047  0.0170 -0.0755 -0.0670
  326loPI    C2 5202   5.077  17.336  10.308  0.2620  0.1527 -0.1274
  326loPI    C3 5203   4.801  17.595  10.438  0.1242 -0.0217 -0.0674
  326loPI   PO4 5204   5.000  17.578   9.821  0.1575 -0.1600 -0.0584
  326loPI   GL1 5205   4.904  17.614   9.452 -0.2629 -0.0637 -0.4056
  326loPI   GL2 5206   4.636  17.804   9.512  0.2518 -0.1661  0.0546
  326loPI   C1A 5207   5.069  17.372   9.088  0.0728 -0.1672  0.0685
  326loPI   C2A 5208   4.964  17.402   8.611 -0.0750  0.0645  0.2009
  326loPI   C3A 5209   5.019  17.315   8.190 -0.2524  0.0912  0.0101
  326loPI   C4A 5210   5.069  17.088   7.753  0.0065 -0.3652  0.1528
  326loPI   C5A 5211   5.226  17.165   7.335  0.0076  0.0341  0.1655
  326loPI   C6A 5212   5.350  16.979   6.984 -0.2109  0.2279  0.0929
  326loPI   C1B 5213   4.466  17.649   9.176 -0.0563  0.1128  0.0450
  326loPI   C2B 5214   4.393  17.629   8.731  0.1023 -0.0319 -0.1996
  326loPI   C3B 5215   4.531  17.752   8.402 -0.3115  0.3020 -0.2519
  326loPI   C4B 5216   4.483  17.885   7.967 -0.0302  0.2379  0.0098
  327loPI    C1 5217   6.106   3.742  10.606 -0.0507  0.3072  0.0596
  327loPI    C2 5218   5.919   3.962  10.882  0.0472  0.1004  0.2941
  327loPI    C3 5219   6.316   3.918  10.897  0.0290 -0.0883  0.2482
  327loPI   PO4 5220   5.961   3.698  10.403 -0.0725 -0.0193 -0.1141
  327loPI   GL1 5221   6.100   3.705   9.891 -0.0491  0.2435 -0.1958
  327loPI   GL2 5222   6.062   3.917   9.676 -0.2458 -0.0186  0.1327
  327loPI   C1A 5223   6.533   3.793   9.633  0.0188  0.2808  0.0906
  327loPI   C2A 5224   6.729   3.762   9.298  0.0015 -0.4888  0.0064
  327loPI   C3A 5225   6.610   3.837   8.914 -0.0806 -0.0589 -0.2568
  327loPI   C4A 5226   6.511   3.714   8.497  0.1313  0.2234  0.2657
  327loPI   C5A 5227   6.412   3.693   8.113 -0.0382  0.1612  0.0732
  327loPI   C6A 5228   6.156   3.337   7.911  0.2091 -0.0387  0.0680
  327loPI   C1B 5229   6.177   3.925   9.216 -0.3253  0.1180  0.0501
  327loPI   C2B 5230   6.150   3.795   8.780  0.1410 -0.1935 -0.2181
  327loPI   C3B 5231   6.156   4.060   8.346 -0.1132 -0.0911 -0.1736
  327loPI   C4B 5232   5.902   4.026   8.098 -0.3119  0.2187 -0.1739
  328loPI    C1 5233  16.228   6.745  10.955  0.0832 -0.0082 -0.3388
  328loPI    C2 5234  16.168   7.124  11.070 -0.0681 -0.0990 -0.1104
  328loPI    C3 5235  16.122   6.826  11.332  0.0276 -0.2788 -0.2947
  328loPI   PO4 5236  16.121   6.817  10.624 -0.0824 -0.1661  0.0517
  328loPI   GL1 5237  16.035   6.634  10.243 -0.0324 -0.2227  0.0729
  328loPI   GL2 5238  16.276   6.827  10.116  0.0916 -0.1083 -0.0509
  328loPI   C1A 5239  15.896   6.915   9.819  0.3122  0.2682 -0.0026
  328loPI   C2A 5240  15.793   6.872   9.448  0.0305 -0.0257 -0.2916
  328loPI   C3A 5241  15.730   6.954   8.964 -0.2103 -0.1732  0.2265
  328loPI   C4A 5242  15.959   6.843   8.570 -0.2114  0.1798  0.1046
  328loPI   C5A 5243  16.387   6.961   8.399 -0.3194  0.2603 -0.1051
  328loPI   C6A 5244  16.467   7.190   8.019  0.2617  0.0567  0.1123
  328loPI   C1B 5245  16.428   6.771   9.878  0.2194 -0.1769 -0.0023
  328loPI   C2B 5246  16.266   6.664   9.511  0.1095 -0.3033 -0.1018
  328loPI   C3B 5247  16.314   6.677   9.135  0.0836  0.0355  0.1522
  328loPI   C4B 5248  16.633   6.893   8.835 -0.3433 -0.0720 -0.3024
  329loPI    C1 5249   7.672   7.598  10.866 -0.0691 -0.0453  0.0757
  329loPI    C2 5250   7.682   7.769  11.228 -0.0555  0.0270  0.0412
  329loPI    C3 5251   7.607   7.378  11.194 -0.0683  0.0224  0.1214
  329loPI   PO4 5252   7.543   7.686  10.643 -0.2116 -0.0944 -0.0203
  329loPI   GL1 5253   7.634   7.635  10.193 -0.1545 -0.0624  0.1801
  329loPI   GL2 5254   7.922   7.543  10.011 -0.1406 -0.0265 -0.1481
  329loPI   C1A 5255   7.324   7.559   9.846 -0.1754 -0.2058 -0.3521
  329loPI   C2A 5256   7.101   7.474   9.418  0.0440 -0.1387  0.2287
  329loPI   C3A 5257   7.119   7.518   9.039  0.0486  0.1136  0.0667
  329loPI   C4A 5258   7.076   7.503   8.529  0.0553  0.1096  0.0954
  329loPI   C5A 5259   7.095   7.674   8.118  0.0429 -0.1770  0.2832
  329loPI   C6A 5260   7.109   8.017   7.883  0.0117  0.0678 -0.3813
  329loPI   C1B 5261   7.738   7.678   9.647 -0.3695 -0.1013  0.2098
  329loPI   C2B 5262   7.515   7.732   9.252 -0.0055 -0.1982 -0.0333
  329loPI   C3B 5263   7.646   7.720   8.875  0.1222 -0.2507  0.1683
  329loPI   C4B 5264   7.651   7.862   8.516  0.0836  0.0167  0.2076
  330loPI    C1 5265   4.930   7.198  10.761  0.1003  0.0051  0.0384
  330loPI    C2 5266   4.871   7.587  10.832  0.0300 -0.0139  0.0851
  330loPI    C3 5267   4.875   7.327  11.136 -0.2670 -0.0952  0.0223
  330loPI   PO4 5268   4.754   7.113  10.483 -0.0647  0.0034  0.1430
  330loPI   GL1 5269   4.856   6.922  10.127 -0.0573  0.1157 -0.0403
  330loPI   GL2 5270   4.749   6.658  10.108 -0.2216 -0.0744  0.0863
  330loPI   C1A 5271   5.045   6.900   9.685  0.0736 -0.0013  0.1307
  330loPI   C2A 5272   5.003   6.956   9.246 -0.2172  0.0265 -0.4041
  330loPI   C3A 5273   5.300   6.773   8.914 -0.1535 -0.0695  0.1542
  330loPI   C4A 5274   5.409   7.005   8.528 -0.0623  0.1887 -0.0137
  330loPI   C5A 5275   5.811   7.101   8.272 -0.1960 -0.2895  0.0714
  330loPI   C6A 5276   6.237   7.099   8.101  0.0895 -0.0044 -0.0665
  330loPI   C1B 5277   4.599   6.597   9.600 -0.0661  0.1984 -0.1391
  330loPI   C2B 5278   4.511   6.862   9.303 -0.1298 -0.2740 -0.1144
  330loPI   C3B 5279   4.553   7.014   8.811  0.0859 -0.0895  0.0996
  330loPI   C4B 5280   4.526   7.261   8.468 -0.0649 -0.0255 -0.0367
  331loPI    C1 5281   0.208   9.598  10.470 -0.1926 -0.1110 -0.0734
  331loPI    C2 5282   0.389   9.917  10.629 -0.1373 -0.1135 -0.1307
  331loPI    C3 5283   0.555   9.555  10.662 -0.2748 -0.1604  0.0655
  331loPI   PO4 5284   0.146   9.604  10.260 -0.3213  0.0661 -0.1197
  331loPI   GL1 5285  -0.155   9.759   9.954  0.0199 -0.0746  0.2503
  331loPI   GL2 5286  -0.093   9.421   9.841  0.3707  0.1476 -0.0100
  331loPI   C1A 5287  -0.009   9.851   9.479  0.4601  0.1252  0.2694
  331loPI   C2A 5288   0.065   9.970   9.080 -0.1484  0.1143  0.0904
  331loPI   C3A 5289   0.227   9.963   8.668 -0.0382 -0.4988  0.0776
  331loPI   C4A 5290   0.249   9.774   8.298  0.0388 -0.1397 -0.0107
  331loPI   C5A 5291  -0.067   9.630   8.094 -0.0176  0.2005 -0.1080
  331loPI   C6A 5292  -0.536   9.600   8.023  0.0215  0.1743 -0.3896
  331loPI   C1B 5293  -0.049   9.294   9.466 -0.1047  0.1063  0.2566
  331loPI   C2B 5294  -0.145   9.047   9.026 -0.1392 -0.2973  0.0269
  331loPI   C3B 5295  -0.007   8.953   8.681  0.1780 -0.0937 -0.0068
  331loPI   C4B 5296   0.050   9.214   8.304 -0.2726 -0.2227  0.1829
  332loPI    C1 5297  15.407  14.276  10.254 -0.1597 -0.3578 -0.1796
  332loPI    C2 5298  15.018  14.207  10.314 -0.1433 -0.1783  0.1574
  332loPI    C3 5299  15.255  14.300  10.623  0.1045  0.0260 -0.0891
  332loPI   PO4 5300  15.338  14.450   9.992 -0.2811 -0.0622  0.0807
  332loPI   GL1 5301  15.359  14.691   9.606  0.1065 -0.1181 -0.2045
  332loPI   GL2 5302  15.045  14.788   9.652  0.0384 -0.2530  0.1201
  332loPI   C1A 5303  15.293  14.538   9.300  0.0539 -0.0994 -0.1490
  332loPI   C2A 5304  15.383  14.647   8.939  0.0225  0.0759  0.0057
  332loPI   C3A 5305  15.426  14.778   8.566  0.0692  0.1554  0.0536
  332loPI   C4A 5306  15.425  14.783   8.185  0.0719  0.1868 -0.1350
  332loPI   C5A 5307  15.463  14.588   7.833 -0.0750  0.2519  0.0770
  332loPI   C6A 5308  15.286  14.666   7.500  0.0268 -0.2549 -0.0076
  332loPI   C1B 5309  14.850  14.705   9.260  0.0694 -0.0805  0.3474
  332loPI   C2B 5310  14.918  14.683   8.741 -0.0138 -0.0328 -0.1766
  332loPI   C3B 5311  14.889  14.757   8.355 -0.0687  0.1348 -0.0244
  332loPI   C4B 5312  14.959  14.667   7.894 -0.1154 -0.0140  0.3367
  333loPI    C1 5313   6.713  10.064  10.593  0.0650 -0.0457 -0.0844
  333loPI    C2 5314   6.537  10.027  10.950 -0.0527  0.0027 -0.1371
  333loPI    C3 5315   6.917  10.149  10.927  0.0334 -0.2342 -0.0154
  333loPI   PO4 5316   6.597  10.020  10.434 -0.0727  0.2836 -0.1385
  333loPI   GL1 5317   6.575   9.841  10.100  0.0408 -0.5220 -0.0087
  333loPI   GL2 5318   6.308  10.120   9.996 -0.2587  0.0728  0.1582
  333loPI   C1A 5319   6.388   9.681   9.710 -0.1920  0.0496  0.1253
  333loPI   C2A 5320   6.350   9.682   9.350 -0.1993  0.1620 -0.1773
  333loPI   C3A 5321   6.350   9.679   8.990  0.0696 -0.1600 -0.0938
  333loPI   C4A 5322   6.329   9.817   8.478 -0.0739 -0.0738 -0.0126
  333loPI   C5A 5323   6.449   9.627   8.165  0.2206  0.0609  0.1330
  333loPI   C6A 5324   6.254   9.339   8.040 -0.0192 -0.3533 -0.1808
  333loPI   C1B 5325   6.194  10.211   9.638  0.3257 -0.3055 -0.1000
  333loPI   C2B 5326   6.207  10.158   9.214  0.1748  0.1203 -0.5172
  333loPI   C3B 5327   6.245  10.170   8.828 -0.1406  0.2870  0.2466
  333loPI   C4B 5328   6.326  10.293   8.340 -0.0903  0.0262 -0.4489
  334loPI    C1 5329  15.481   2.085  10.324 -0.1624 -0.0742  0.0420
  334loPI    C2 5330  15.476   2.334  10.636  0.0088 -0.0981  0.0647
  334loPI    C3 5331  15.330   1.964  10.674  0.1825 -0.1572  0.1655
  334loPI   PO4 5332  15.447   2.291  10.116 -0.1707 -0.2384  0.2483
  334loPI   GL1 5333  15.542   2.386   9.748  0.0091  0.0590  0.1596
  334loPI   GL2 5334  15.676   2.630   9.791  0.0029  0.2854  0.2363
  334loPI   C1A 5335  15.429   2.391   9.334 -0.1259  0.3487 -0.0374
  334loPI   C2A 5336  15.208   2.557   8.931 -0.1477 -0.1629 -0.2813
  334loPI   C3A 5337  15.054   2.761   8.655  0.0751 -0.2572  0.2207
  334loPI   C4A 5338  14.953   3.210   8.473 -0.2501  0.6144  0.2086
  334loPI   C5A 5339  15.129   3.652   8.436  0.0790 -0.1807 -0.2905
  334loPI   C6A 5340  15.200   4.065   8.492 -0.1497 -0.3927 -0.0316
  334loPI   C1B 5341  15.761   2.762   9.373 -0.0091 -0.0080 -0.1450
  334loPI   C2B 5342  15.703   2.647   8.971 -0.0129 -0.3820  0.3294
  334loPI   C3B 5343  15.663   2.837   8.541  0.0944 -0.1019 -0.2358
  334loPI   C4B 5344  15.445   2.864   8.146  0.3223 -0.2130  0.2494
  335loPI    C1 5345   7.225  14.262   9.802  0.0879 -0.0488 -0.2431
  335loPI    C2 5346   6.874  14.333   9.622 -0.1830  0.0084  0.2869
  335loPI    C3 5347   6.949  13.973   9.781  0.0770 -0.0602  0.0183
  335loPI   PO4 5348   7.437  14.312   9.649 -0.0718  0.0098 -0.2310
  335loPI   GL1 5349   7.255  14.500   9.343  0.0384 -0.0219  0.0950
  335loPI   GL2 5350   6.960  14.683   9.219  0.1291  0.4356 -0.0953
  335loPI   C1A 5351   6.940  14.170   9.062  0.4473  0.1735 -0.3261
  335loPI   C2A 5352   6.807  14.109   8.712 -0.2157  0.2842  0.1089
  335loPI   C3A 5353   6.978  14.144   8.386 -0.0258  0.0431 -0.2049
  335loPI   C4A 5354   7.019  13.942   8.035  0.2262  0.1763  0.0864
  335loPI   C5A 5355   7.119  14.135   7.579 -0.1393 -0.2205  0.1153
  335loPI   C6A 5356   7.074  14.373   7.251  0.2119  0.0661 -0.1221
  335loPI   C1B 5357   7.070  14.571   8.821  0.1867 -0.0466 -0.0328
  335loPI   C2B 5358   7.112  14.731   8.311  0.1617  0.2607  0.1113
  335loPI   C3B 5359   7.200  14.763   7.877  0.1746  0.0313  0.1228
  335loPI   C4B 5360   6.858  14.732   7.515  0.1948 -0.0651  0.0886
  336loPI    C1 5361  11.414  11.768   9.921 -0.0647  0.0480 -0.0670
  336loPI    C2 5362  11.258  11.905  10.263 -0.0961  0.3831 -0.2121
  336loPI    C3 5363  11.628  11.753  10.259 -0.1735  0.1834  0.0086
  336loPI   PO4 5364  11.291  11.959   9.766  0.0585  0.0007  0.0658
  336loPI   GL1 5365  10.988  12.220   9.568  0.0912 -0.0912  0.3328
  336loPI   GL2 5366  10.703  12.097   9.503  0.1534 -0.0006 -0.0058
  336loPI   C1A 5367  11.079  12.414   9.299  0.1186  0.1345 -0.3225
  336loPI   C2A 5368  11.080  12.286   8.872 -0.4110 -0.3282 -0.0620
  336loPI   C3A 5369  11.057  12.247   8.521  0.0780 -0.1000 -0.0692
  336loPI   C4A 5370  11.215  12.054   8.226 -0.1134  0.0760  0.1142
  336loPI   C5A 5371  11.432  11.965   7.844  0.1327 -0.2195  0.1657
  336loPI   C6A 5372  11.147  12.021   7.436 -0.1095  0.0223 -0.0212
  336loPI   C1B 5373  10.671  12.191   9.121  0.2283 -0.1832 -0.0696
  336loPI   C2B 5374  10.617  12.092   8.688  0.3132 -0.1602  0.0579
  336loPI   C3B 5375  10.548  12.002   8.273  0.3469 -0.0757  0.2336
  336loPI   C4B 5376  10.886  12.011   7.900  0.0853  0.0300 -0.1062
  337loPI    C1 5377  14.489   3.454  11.052  0.0180  0.0252  0.2488
  337loPI    C2 5378  14.334   3.114  11.193  0.1196 -0.0757  0.1189
  337loPI    C3 5379  14.328   3.444  11.418 -0.1258 -0.1217  0.1827
  337loPI   PO4 5380  14.695   3.407  10.942 -0.0215  0.1719  0.2627
  337loPI   GL1 5381  14.622   3.408  10.423  0.0444  0.0168 -0.2159
  337loPI   GL2 5382  14.509   3.602  10.546 -0.0791  0.2193 -0.1084
  337loPI   C1A 5383  14.726   3.372  10.008  0.0673 -0.4214  0.4175
  337loPI   C2A 5384  14.683   3.305   9.662  0.0161 -0.2793  0.2584
  337loPI   C3A 5385  14.875   3.572   9.328  0.4591  0.1765  0.3679
  337loPI   C4A 5386  14.936   3.696   8.932  0.0616 -0.2812  0.0750
  337loPI   C5A 5387  14.715   3.881   8.518  0.1625  0.0036  0.2092
  337loPI   C6A 5388  14.612   3.551   8.154 -0.2589 -0.0890 -0.0647
  337loPI   C1B 5389  14.380   3.713  10.169  0.1139 -0.1835  0.0834
  337loPI   C2B 5390  14.333   3.692   9.877 -0.1037  0.1326 -0.2756
  337loPI   C3B 5391  14.255   3.540   9.521 -0.2779 -0.1457 -0.1221
  337loPI   C4B 5392  14.379   3.455   9.089 -0.0863 -0.0604  0.1572
  338loPI    C1 5393   8.868   4.554  10.249  0.0107  0.0838 -0.0853
  338loPI    C2 5394   8.538   4.628  10.462  0.0556 -0.0190  0.0208
  338loPI    C3 5395   8.870   4.840  10.528  0.1774 -0.2909  0.3092
  338loPI   PO4 5396   8.747   4.608  10.019  0.0579 -0.2501 -0.1266
  338loPI   GL1 5397   8.943   4.606   9.721  0.1754  0.0040  0.2254
  338loPI   GL2 5398   9.289   4.619   9.900 -0.1527 -0.0861 -0.3338
  338loPI   C1A 5399   8.827   4.536   9.296 -0.1604  0.1341 -0.0546
  338loPI   C2A 5400   8.980   4.536   8.895 -0.0547  0.0089  0.2690
  338loPI   C3A 5401   9.160   4.800   8.644  0.0654 -0.0644  0.1003
  338loPI   C4A 5402   9.434   5.065   8.379 -0.0775  0.2169 -0.2746
  338loPI   C5A 5403   9.785   5.368   8.258  0.0074 -0.2985  0.1078
  338loPI   C6A 5404  10.104   5.356   8.510  0.1949 -0.1938 -0.2037
  338loPI   C1B 5405   9.359   4.539   9.483  0.2664 -0.1637 -0.2429
  338loPI   C2B 5406   9.275   4.795   9.148 -0.1177 -0.0880  0.1473
  338loPI   C3B 5407   9.329   5.146   8.967  0.0970  0.1388  0.2236
  338loPI   C4B 5408   9.782   5.376   8.902  0.1768  0.1413  0.0588
  339loPI    C1 5409  11.017   3.104  10.257  0.1145 -0.1363  0.0484
  339loPI    C2 5410  11.084   3.032  10.645  0.0264 -0.1681  0.0581
  339loPI    C3 5411  11.111   2.735  10.379 -0.2110 -0.2119  0.0808
  339loPI   PO4 5412  11.082   3.286  10.187  0.2327  0.2886  0.0108
  339loPI   GL1 5413  11.162   3.412   9.745 -0.4068  0.0130  0.0595
  339loPI   GL2 5414  10.842   3.550   9.749 -0.0549 -0.1687  0.0302
  339loPI   C1A 5415  11.237   3.385   9.266  0.1839  0.0947 -0.1789
  339loPI   C2A 5416  11.167   3.501   8.865  0.2392 -0.3312 -0.4731
  339loPI   C3A 5417  11.187   3.647   8.470  0.2434 -0.1172 -0.1849
  339loPI   C4A 5418  10.923   4.005   8.218  0.0817  0.0770  0.1466
  339loPI   C5A 5419  11.108   4.371   7.970 -0.2023  0.1351  0.1781
  339loPI   C6A 5420  11.332   4.620   8.111  0.2288  0.2451 -0.0077
  339loPI   C1B 5421  10.821   3.259   9.440 -0.0904  0.0516 -0.3396
  339loPI   C2B 5422  10.752   3.189   8.993 -0.0543  0.1100 -0.1447
  339loPI   C3B 5423  10.860   3.327   8.580  0.0587 -0.1486  0.1105
  339loPI   C4B 5424  10.715   3.517   8.267 -0.1148  0.3857  0.1528
  340loPI    C1 5425   0.909  14.254  10.413  0.2939  0.1043 -0.0988
  340loPI    C2 5426   0.656  14.236  10.723  0.1130  0.0215 -0.2486
  340loPI    C3 5427   0.997  14.026  10.730  0.0097 -0.1463 -0.1945
  340loPI   PO4 5428   0.782  14.237  10.225 -0.3725  0.1193  0.3016
  340loPI   GL1 5429   0.848  14.215   9.748 -0.0487  0.0316 -0.2090
  340loPI   GL2 5430   1.226  14.138   9.679 -0.2343  0.3280 -0.2787
  340loPI   C1A 5431   0.859  14.112   9.319  0.2130 -0.1696 -0.0475
  340loPI   C2A 5432   0.959  14.107   8.874  0.1339  0.1766  0.0198
  340loPI   C3A 5433   1.022  14.268   8.497 -0.4723 -0.1588  0.1466
  340loPI   C4A 5434   1.132  14.473   8.121 -0.0300 -0.3272 -0.1806
  340loPI   C5A 5435   1.217  14.681   7.840  0.2530  0.1122 -0.0496
  340loPI   C6A 5436   1.365  14.972   7.664 -0.0179  0.1246  0.0827
  340loPI   C1B 5437   1.356  14.141   9.232 -0.1468 -0.0635  0.0218
  340loPI   C2B 5438   1.466  14.046   8.897 -0.0101  0.0421 -0.0474
  340loPI   C3B 5439   1.537  14.128   8.493 -0.0061 -0.2140  0.3590
  340loPI   C4B 5440   1.543  14.176   7.982  0.2073 -0.2432  0.1069
  341loPI    C1 5441   2.616  17.756  10.211  0.1506 -0.2257 -0.0874
  341loPI    C2 5442   2.678  17.580  10.565 -0.0309 -0.1734 -0.0284
  341loPI    C3 5443   2.441  17.901  10.540  0.1958 -0.0128 -0.1557
  341loPI   PO4 5444   2.511  17.609  10.061  0.3081  0.1284  0.1660
  341loPI   GL1 5445   2.405  17.646   9.573 -0.0302 -0.3303 -0.0121
  341loPI   GL2 5446   2.583  17.895   9.399  0.3881 -0.3022 -0.1317
  341loPI   C1A 5447   2.456  17.445   9.156  0.1339  0.2168 -0.0890
  341loPI   C2A 5448   2.365  17.179   8.733 -0.2574 -0.1125 -0.0359
  341loPI   C3A 5449   2.208  17.331   8.274 -0.3920  0.1728 -0.0315
  341loPI   C4A 5450   2.080  17.489   7.838 -0.2620  0.1183  0.0118
  341loPI   C5A 5451   2.177  17.832   7.630 -0.2814 -0.0207  0.0412
  341loPI   C6A 5452   2.258  18.232   7.830 -0.3477  0.1551  0.1124
  341loPI   C1B 5453   2.562  18.020   8.959  0.0369  0.0891  0.2779
  341loPI   C2B 5454   2.521  18.097   8.509 -0.1905 -0.2577 -0.1588
  341loPI   C3B 5455   2.621  17.832   7.983  0.0924  0.1210 -0.1776
  341loPI   C4B 5456   2.760  17.486   7.837  0.0378  0.3050 -0.0939
  342loPI    C1 5457  15.382   1.005  10.468  0.0040 -0.1947 -0.0769
  342loPI    C2 5458  15.185   1.258  10.707  0.0201 -0.0515 -0.2138
  342loPI    C3 5459  15.203   0.869  10.799 -0.0361 -0.0095 -0.0215
  342loPI   PO4 5460  15.392   1.065  10.257  0.3672  0.0942  0.0305
  342loPI   GL1 5461  15.417   1.179   9.902  0.1765 -0.0940 -0.3875
  342loPI   GL2 5462  15.170   1.343   9.841  0.0914  0.1804  0.0333
  342loPI   C1A 5463  15.658   1.315   9.471  0.0128  0.2623 -0.0679
  342loPI   C2A 5464  15.668   1.212   9.000  0.0400  0.0702 -0.1459
  342loPI   C3A 5465  15.683   1.093   8.528 -0.0473  0.2137  0.1840
  342loPI   C4A 5466  15.962   1.183   8.261 -0.3093 -0.0414  0.0321
  342loPI   C5A 5467  15.825   1.411   7.921  0.0970 -0.1977  0.1821
  342loPI   C6A 5468  15.823   1.755   7.730  0.1848  0.0676  0.0818
  342loPI   C1B 5469  15.023   1.408   9.457  0.0840 -0.0052  0.0787
  342loPI   C2B 5470  14.924   1.563   9.143  0.1611  0.1928 -0.2526
  342loPI   C3B 5471  14.770   1.559   8.787  0.1184 -0.0185  0.3519
  342loPI   C4B 5472  14.582   1.875   8.581  0.1109 -0.1021  0.0264
  343loPI    C1 5473   7.209   8.353  10.782  0.1105  0.1039 -0.0754
  343loPI    C2 5474   7.525   8.566  10.902  0.0536  0.1770 -0.0543
  343loPI    C3 5475   7.568   8.179  10.810  0.1556  0.1951 -0.0850
  343loPI   PO4 5476   7.035   8.499  10.643  0.0391  0.0388 -0.2252
  343loPI   GL1 5477   6.995   8.454  10.173 -0.0009 -0.0911  0.0845
  343loPI   GL2 5478   7.095   8.835  10.188 -0.1706  0.1479 -0.0643
  343loPI   C1A 5479   6.823   7.975  10.026  0.0057 -0.1338 -0.1809
  343loPI   C2A 5480   6.659   7.919   9.680 -0.1926  0.3883 -0.1261
  343loPI   C3A 5481   6.606   7.741   9.241  0.0238  0.0571 -0.1643
  343loPI   C4A 5482   6.817   7.845   8.822  0.1702 -0.0508  0.0984
  343loPI   C5A 5483   7.087   8.042   8.463  0.0479  0.2629  0.0437
  343loPI   C6A 5484   7.130   8.325   8.223  0.2807 -0.2647  0.1754
  343loPI   C1B 5485   7.309   8.602   9.741 -0.0235  0.1158  0.0693
  343loPI   C2B 5486   7.530   8.464   9.358  0.1303  0.0402 -0.1220
  343loPI   C3B 5487   7.526   8.396   8.851 -0.0564 -0.0123 -0.4526
  343loPI   C4B 5488   7.590   8.345   8.362  0.0995 -0.3433 -0.1835
  344loPI    C1 5489  18.016  16.293  10.211  0.0630 -0.0472  0.0335
  344loPI    C2 5490  17.993  15.941  10.402  0.3844  0.0524  0.2644
  344loPI    C3 5491  17.923  16.282  10.600  0.0289  0.1212  0.0308
  344loPI   PO4 5492  17.836  16.267   9.954 -0.3421 -0.1432  0.2658
  344loPI   GL1 5493  17.753  16.045   9.592  0.1690  0.0688 -0.1463
  344loPI   GL2 5494  17.695  16.387   9.454 -0.0083 -0.0613 -0.2215
  344loPI   C1A 5495  18.092  15.808   9.301  0.0126  0.0346 -0.4709
  344loPI   C2A 5496  18.018  15.861   8.886 -0.0034 -0.3112 -0.0515
  344loPI   C3A 5497  18.138  15.793   8.476  0.1086 -0.2422 -0.1147
  344loPI   C4A 5498  18.261  15.852   8.153  0.1586 -0.0047  0.0247
  344loPI   C5A 5499  18.401  15.480   7.841  0.0134  0.0060  0.0303
  344loPI   C6A 5500  18.748  15.299   7.520  0.1631 -0.1169 -0.1687
  344loPI   C1B 5501  17.660  16.174   9.013 -0.2311  0.0725  0.2525
  344loPI   C2B 5502  17.608  16.378   8.626  0.3992  0.0668  0.1625
  344loPI   C3B 5503  17.469  16.543   8.141  0.1115  0.1578 -0.2175
  344loPI   C4B 5504  17.513  16.882   7.864  0.2054  0.0303  0.2386
  345loPI    C1 5505   9.690   6.084  10.511  0.1125 -0.1540 -0.1408
  345loPI    C2 5506   9.602   5.730  10.676 -0.0777  0.0534  0.2152
  345loPI    C3 5507   9.676   6.047  10.909 -0.2642  0.3343 -0.0992
  345loPI   PO4 5508   9.863   5.983  10.280  0.0773  0.2947  0.1463
  345loPI   GL1 5509   9.905   5.884   9.867  0.2214  0.3376 -0.1186
  345loPI   GL2 5510   9.750   5.537   9.984  0.2567  0.0683  0.1197
  345loPI   C1A 5511  10.016   6.034   9.487 -0.3410 -0.0994  0.0238
  345loPI   C2A 5512   9.811   6.030   9.062  0.3127  0.1696 -0.0267
  345loPI   C3A 5513   9.920   5.808   8.662  0.0469  0.0309  0.0500
  345loPI   C4A 5514  10.058   5.849   8.240 -0.2676  0.0847 -0.3932
  345loPI   C5A 5515   9.874   5.719   7.890 -0.4467 -0.0627 -0.2379
  345loPI   C6A 5516   9.607   5.959   7.578 -0.0538  0.3452 -0.1826
  345loPI   C1B 5517   9.773   5.532   9.538  0.1284  0.0366 -0.2423
  345loPI   C2B 5518  10.040   5.643   9.239  0.0345  0.2308 -0.0177
  345loPI   C3B 5519  10.316   5.822   9.016  0.2271 -0.0995 -0.1617
  345loPI   C4B 5520  10.456   5.947   8.565  0.0932  0.2415 -0.1329
  346loPI    C1 5521   4.952  12.482  10.270  0.1181 -0.0602 -0.1149
  346loPI    C2 5522   4.752  12.270  10.544  0.2808 -0.3095 -0.1855
  346loPI    C3 5523   5.131  12.378  10.613  0.1811  0.0129 -0.1253
  346loPI   PO4 5524   4.893  12.418  10.036  0.0856  0.1613 -0.2153
  346loPI   GL1 5525   5.016  12.682   9.654  0.1422 -0.0766  0.1763
  346loPI   GL2 5526   5.383  12.555   9.639  0.3598 -0.0073  0.0094
  346loPI   C1A 5527   5.177  12.707   9.153  0.1046  0.0441 -0.3210
  346loPI   C2A 5528   5.039  12.794   8.775  0.0132 -0.1255 -0.1275
  346loPI   C3A 5529   5.117  12.593   8.436 -0.1539  0.0866 -0.0391
  346loPI   C4A 5530   5.065  12.649   7.995 -0.0031 -0.1764 -0.0864
  346loPI   C5A 5531   5.336  12.690   7.541 -0.3202 -0.1449 -0.1376
  346loPI   C6A 5532   5.782  12.708   7.381 -0.0791 -0.0820 -0.0855
  346loPI   C1B 5533   5.358  12.289   9.243 -0.1551 -0.0905  0.0945
  346loPI   C2B 5534   5.372  12.152   8.709 -0.2360  0.0345  0.3742
  346loPI   C3B 5535   5.466  12.321   8.279 -0.0591 -0.1201  0.1570
  346loPI   C4B 5536   5.468  12.115   7.907 -0.1798 -0.2285  0.1914
  347loPI    C1 5537   9.228  10.176  10.359  0.0316  0.4843 -0.0750
  347loPI    C2 5538   8.862  10.017  10.387  0.2200  0.0155 -0.1910
  347loPI    C3 5539   9.185   9.786  10.436  0.5045  0.4257 -0.0812
  347loPI   PO4 5540   9.229  10.305  10.066 -0.1446  0.0306  0.1709
  347loPI   GL1 5541   9.235  10.336   9.607  0.3087  0.0855  0.1011
  347loPI   GL2 5542   9.497  10.530   9.456  0.1744  0.4441  0.1383
  347loPI   C1A 5543   9.159  10.117   9.309 -0.0298 -0.0855  0.0138
  347loPI   C2A 5544   9.196  10.041   8.829 -0.0437  0.3820 -0.0641
  347loPI   C3A 5545   9.177  10.126   8.394 -0.1810 -0.0702 -0.0594
  347loPI   C4A 5546   9.190  10.251   7.906  0.1616  0.0642 -0.2193
  347loPI   C5A 5547   9.148  10.533   7.580 -0.2005  0.1951 -0.0629
  347loPI   C6A 5548   9.373  10.734   7.377 -0.1299  0.0464  0.0405
  347loPI   C1B 5549   9.541  10.324   9.049  0.1014  0.1883 -0.1215
  347loPI   C2B 5550   9.656  10.415   8.556 -0.1480  0.2289 -0.0715
  347loPI   C3B 5551   9.544  10.479   8.178  0.2012 -0.2520  0.0942
  347loPI   C4B 5552   9.686  10.557   7.726 -0.0480 -0.1901  0.1524
  348loPI    C1 5553   0.174  13.592  10.250 -0.2541 -0.0098  0.1297
  348loPI    C2 5554  -0.132  13.446  10.462 -0.3921  0.1618  0.0511
  348loPI    C3 5555  -0.134  13.829  10.347 -0.2010  0.1339 -0.0478
  348loPI   PO4 5556   0.255  13.342  10.076  0.0704 -0.1655 -0.1708
  348loPI   GL1 5557   0.090  13.187   9.776 -0.1533 -0.1700  0.0932
  348loPI   GL2 5558   0.350  13.038   9.704  0.1220 -0.1541 -0.1703
  348loPI   C1A 5559   0.044  13.316   9.332 -0.3032 -0.0115 -0.2574
  348loPI   C2A 5560  -0.007  13.288   8.927  0.1071 -0.2609 -0.0233
  348loPI   C3A 5561   0.134  13.339   8.536  0.1045 -0.0653  0.2019
  348loPI   C4A 5562   0.502  13.509   8.235  0.0182 -0.0822  0.0265
  348loPI   C5A 5563   0.832  13.384   8.042  0.0177 -0.0553 -0.0378
  348loPI   C6A 5564   0.940  13.223   7.655  0.0382  0.0676 -0.2706
  348loPI   C1B 5565   0.495  13.077   9.229  0.2387  0.1325 -0.0582
  348loPI   C2B 5566   0.539  13.141   8.861  0.0168  0.0403 -0.1300
  348loPI   C3B 5567   0.540  13.101   8.522  0.0332  0.1578  0.0709
  348loPI   C4B 5568   0.386  13.053   8.116  0.0664  0.0679  0.0484
  349loPI    C1 5569  13.077   8.996  10.182 -0.0027  0.0206 -0.0157
  349loPI    C2 5570  13.088   9.385  10.089 -0.0490  0.0664  0.1663
  349loPI    C3 5571  12.772   9.234  10.281 -0.2132 -0.1443 -0.2555
  349loPI   PO4 5572  13.260   8.874  10.024 -0.1578  0.4537 -0.0438
  349loPI   GL1 5573  13.575   8.695   9.696  0.1261 -0.0258  0.0639
  349loPI   GL2 5574  13.769   8.543   9.722  0.1285 -0.1651  0.2691
  349loPI   C1A 5575  13.434   8.943   9.354  0.1073 -0.0606  0.0052
  349loPI   C2A 5576  13.582   9.060   8.990 -0.3567 -0.4812  0.0703
  349loPI   C3A 5577  13.575   9.138   8.580 -0.1064 -0.1582  0.0112
  349loPI   C4A 5578  13.591   9.175   8.172  0.1171 -0.2324 -0.1742
  349loPI   C5A 5579  13.928   9.337   7.856  0.6439 -0.1389  0.1435
  349loPI   C6A 5580  14.253   9.118   7.801 -0.0736 -0.0517  0.1111
  349loPI   C1B 5581  13.933   8.332   9.443  0.0603 -0.0950  0.3936
  349loPI   C2B 5582  14.138   8.305   8.959 -0.3757 -0.0989  0.0671
  349loPI   C3B 5583  14.153   8.417   8.551  0.0155 -0.0317 -0.0622
  349loPI   C4B 5584  14.062   8.386   8.096  0.2124 -0.2747 -0.0908
  350loPI    C1 5585   3.477   0.671  10.142  0.3318 -0.0157  0.2435
  350loPI    C2 5586   3.316   0.594  10.500  0.0152 -0.0157  0.1043
  350loPI    C3 5587   3.135   0.848  10.250  0.1455 -0.1423 -0.1221
  350loPI   PO4 5588   3.434   0.422  10.023 -0.1388  0.1734 -0.1350
  350loPI   GL1 5589   3.732   0.296   9.627  0.0951  0.3656 -0.0250
  350loPI   GL2 5590   3.901   0.536   9.775  0.0634 -0.0748 -0.2728
  350loPI   C1A 5591   3.614   0.367   9.184  0.1260  0.0283 -0.0493
  350loPI   C2A 5592   3.594   0.304   8.680 -0.3939 -0.0461  0.0134
  350loPI   C3A 5593   3.624   0.312   8.232  0.2323  0.1978  0.1465
  350loPI   C4A 5594   3.890   0.355   7.854 -0.0142 -0.0826 -0.2317
  350loPI   C5A 5595   4.053   0.125   7.424 -0.2466 -0.0909 -0.1417
  350loPI   C6A 5596   4.130   0.229   7.006 -0.1070 -0.0543  0.3878
  350loPI   C1B 5597   3.953   0.735   9.427  0.0355 -0.0555  0.2705
  350loPI   C2B 5598   3.997   0.862   9.056 -0.1677  0.0552 -0.2589
  350loPI   C3B 5599   4.222   1.154   8.837 -0.1199  0.1234 -0.0724
  350loPI   C4B 5600   4.158   1.417   8.522  0.2271 -0.1587  0.0356
  351loPI    C1 5601  12.007   0.734  10.778  0.1785 -0.2730  0.1303
  351loPI    C2 5602  12.307   0.893  10.991 -0.1741  0.5498  0.0527
  351loPI    C3 5603  11.935   0.892  11.139 -0.2581  0.1974 -0.1494
  351loPI   PO4 5604  12.124   0.852  10.471  0.2159  0.3096 -0.0797
  351loPI   GL1 5605  12.306   0.740  10.121  0.3779 -0.0109 -0.3227
  351loPI   GL2 5606  12.166   0.409  10.146  0.3445 -0.0261 -0.0727
  351loPI   C1A 5607  12.172   0.613   9.634  0.2069 -0.1979  0.1679
  351loPI   C2A 5608  12.181   0.655   9.142 -0.0781  0.0190  0.1833
  351loPI   C3A 5609  12.131   0.611   8.729 -0.1822  0.1218  0.1546
  351loPI   C4A 5610  12.225   0.458   8.320 -0.1850 -0.2296  0.3532
  351loPI   C5A 5611  12.032   0.227   8.034 -0.1668 -0.0744  0.1083
  351loPI   C6A 5612  11.786  -0.197   8.107  0.2348 -0.4147  0.0345
  351loPI   C1B 5613  12.140   0.128   9.744 -0.0303 -0.2637 -0.0063
  351loPI   C2B 5614  11.957   0.238   9.343  0.1876  0.0798 -0.2968
  351loPI   C3B 5615  11.908   0.125   8.877 -0.2336  0.2559 -0.2752
  351loPI   C4B 5616  11.640  -0.012   8.555  0.0458  0.0016 -0.2269
  352loPI    C1 5617   2.871   1.356  10.632  0.1708 -0.0527 -0.0454
  352loPI    C2 5618   3.147   1.362  10.921 -0.0272  0.0936  0.1442
  352loPI    C3 5619   2.966   1.701  10.810 -0.0084  0.0258 -0.0993
  352loPI   PO4 5620   3.025   1.323  10.339 -0.2496 -0.2570 -0.0437
  352loPI   GL1 5621   2.751   1.393  10.022  0.2202 -0.2212 -0.1775
  352loPI   GL2 5622   2.945   1.133   9.894  0.1051 -0.1816 -0.3197
  352loPI   C1A 5623   2.643   1.344   9.554 -0.1169 -0.1658 -0.0900
  352loPI   C2A 5624   2.688   1.434   9.050  0.1047 -0.0630  0.0064
  352loPI   C3A 5625   2.803   1.588   8.656 -0.0102  0.0542  0.3753
  352loPI   C4A 5626   2.718   1.649   8.260 -0.0267 -0.0725  0.0911
  352loPI   C5A 5627   2.609   1.508   7.890  0.2361 -0.2149  0.0051
  352loPI   C6A 5628   2.330   1.234   7.667 -0.3391 -0.1276  0.1554
  352loPI   C1B 5629   3.194   1.226   9.537 -0.3776 -0.1855 -0.4431
  352loPI   C2B 5630   3.162   1.262   9.188  0.1576  0.1745  0.1281
  352loPI   C3B 5631   3.232   1.379   8.730 -0.2032  0.1154 -0.1219
  352loPI   C4B 5632   3.246   1.762   8.261 -0.1406  0.0061 -0.1926
  353loPI    C1 5633  12.324  11.280   9.984 -0.0257 -0.0148 -0.0752
  353loPI    C2 5634  12.328  11.004  10.273  0.0591  0.0599 -0.0044
  353loPI    C3 5635  12.056  10.983   9.980 -0.1406  0.0824  0.1765
  353loPI   PO4 5636  12.461  11.314   9.829 -0.1157  0.1454 -0.0885
  353loPI   GL1 5637  12.507  11.260   9.474  0.2960 -0.0240  0.0912
  353loPI   GL2 5638  12.792  11.361   9.419 -0.1035  0.0801  0.2041
  353loPI   C1A 5639  12.455  11.274   8.996  0.1193 -0.4308  0.0172
  353loPI   C2A 5640  12.488  11.239   8.533 -0.0982  0.0823  0.3797
  353loPI   C3A 5641  12.551  11.069   8.151 -0.2824  0.2757  0.1366
  353loPI   C4A 5642  12.363  11.053   7.732  0.0321  0.0043  0.3205
  353loPI   C5A 5643  11.908  10.853   7.654  0.0797 -0.0243  0.0229
  353loPI   C6A 5644  11.750  10.624   7.437  0.0209 -0.1178  0.2145
  353loPI   C1B 5645  12.979  11.467   9.077  0.1433 -0.0217 -0.3892
  353loPI   C2B 5646  12.906  11.420   8.706  0.0588 -0.1112  0.0261
  353loPI   C3B 5647  12.885  11.398   8.275 -0.0087 -0.1754  0.3626
  353loPI   C4B 5648  12.922  11.289   7.866 -0.1064 -0.0703  0.2180
  354loPI    C1 5649   1.868  13.952  10.245 -0.1316  0.3308  0.2976
  354loPI    C2 5650   1.682  13.795  10.563  0.1259 -0.0746  0.2547
  354loPI    C3 5651   2.080  13.840  10.566  0.1207  0.0008  0.0228
  354loPI   PO4 5652   1.682  14.194  10.214  0.0838 -0.0867  0.1600
  354loPI   GL1 5653   1.672  14.229   9.774  0.0000 -0.0712 -0.0172
  354loPI   GL2 5654   1.811  14.037   9.728  0.2196  0.0400  0.1151
  354loPI   C1A 5655   1.599  14.518   9.409 -0.1082 -0.1330 -0.0814
  354loPI   C2A 5656   1.503  14.506   8.953 -0.0960 -0.1208 -0.0505
  354loPI   C3A 5657   1.490  14.684   8.571 -0.2254  0.1148  0.1645
  354loPI   C4A 5658   1.885  14.556   8.231 -0.1147 -0.3684  0.1168
  354loPI   C5A 5659   2.041  14.298   7.854 -0.1370 -0.4414  0.1051
  354loPI   C6A 5660   1.848  13.947   7.630  0.0619 -0.3725  0.2350
  354loPI   C1B 5661   1.523  13.715   9.462  0.0726  0.0995  0.3054
  354loPI   C2B 5662   1.660  13.608   9.060  0.2588 -0.1119  0.3237
  354loPI   C3B 5663   1.740  13.681   8.618  0.3269 -0.1203  0.1634
  354loPI   C4B 5664   1.895  13.930   8.277  0.1537 -0.4132 -0.0717
  355loPI    C1 5665   7.379  11.183  10.187  0.1154 -0.1446 -0.1339
  355loPI    C2 5666   7.673  11.281   9.934  0.1784 -0.0560 -0.0272
  355loPI    C3 5667   7.642  11.468  10.287  0.1568 -0.2551  0.0777
  355loPI   PO4 5668   7.241  11.080  10.060 -0.2642  0.0773  0.0633
  355loPI   GL1 5669   7.317  10.868   9.816 -0.0616 -0.0891 -0.0164
  355loPI   GL2 5670   7.151  10.581   9.839 -0.1558 -0.0997 -0.1543
  355loPI   C1A 5671   7.384  11.021   9.401 -0.0348  0.2566 -0.2070
  355loPI   C2A 5672   7.313  10.990   8.982 -0.1877  0.0058  0.1805
  355loPI   C3A 5673   7.144  11.039   8.467 -0.0727  0.3587 -0.2853
  355loPI   C4A 5674   7.274  11.044   8.085 -0.3733  0.0775 -0.0626
  355loPI   C5A 5675   7.020  10.874   7.721 -0.1110  0.0237  0.0453
  355loPI   C6A 5676   6.935  10.866   7.287  0.1875 -0.0604  0.0991
  355loPI   C1B 5677   7.021  10.627   9.456  0.2290  0.1599  0.2831
  355loPI   C2B 5678   6.972  10.601   9.074 -0.0711  0.1708  0.0400
  355loPI   C3B 5679   6.932  10.683   8.689  0.0350 -0.1056  0.0844
  355loPI   C4B 5680   6.802  10.543   8.224  0.0533 -0.2135  0.1218
  356loPI    C1 5681  11.730   4.279  10.515  0.0987  0.0421  0.1479
  356loPI    C2 5682  11.735   4.566  10.236  0.0359 -0.0869  0.0126
  356loPI    C3 5683  11.408   4.340  10.285  0.1453 -0.2491  0.0010
  356loPI   PO4 5684  11.941   4.225  10.499 -0.0800 -0.0113  0.0587
  356loPI   GL1 5685  12.121   4.258  10.083 -0.1277  0.2560 -0.1068
  356loPI   GL2 5686  12.083   4.490   9.834 -0.2132  0.0050 -0.2409
  356loPI   C1A 5687  11.997   4.076   9.568  0.1120 -0.1794 -0.2504
  356loPI   C2A 5688  11.929   4.072   9.198 -0.1666  0.0930  0.1871
  356loPI   C3A 5689  11.882   4.021   8.725  0.0027 -0.0824 -0.3007
  356loPI   C4A 5690  11.731   4.132   8.349  0.0405  0.1484 -0.0857
  356loPI   C5A 5691  11.945   4.581   8.234  0.3136  0.5417 -0.3054
  356loPI   C6A 5692  12.066   4.972   8.204 -0.3497 -0.0394  0.1421
  356loPI   C1B 5693  12.474   4.201   9.678 -0.1107  0.0390  0.4913
  356loPI   C2B 5694  12.577   3.951   9.267 -0.2913  0.2290  0.0282
  356loPI   C3B 5695  12.797   3.995   8.841  0.5269  0.0330 -0.0590
  356loPI   C4B 5696  13.133   4.097   8.718  0.4126  0.1581  0.2431
  357loPI    C1 5697   5.082  13.393  10.054 -0.1126 -0.1982 -0.0388
  357loPI    C2 5698   5.196  13.247  10.408 -0.2509  0.2234  0.1877
  357loPI    C3 5699   5.395  13.552  10.244  0.0795 -0.2416 -0.3136
  357loPI   PO4 5700   4.891  13.420  10.038 -0.0031  0.0327 -0.2733
  357loPI   GL1 5701   4.775  13.369   9.664 -0.1777  0.0732 -0.1809
  357loPI   GL2 5702   4.810  13.097   9.569  0.1077  0.2792  0.1255
  357loPI   C1A 5703   4.768  13.518   9.272  0.3675  0.0995  0.0000
  357loPI   C2A 5704   4.544  13.568   8.815  0.1838  0.0102  0.0013
  357loPI   C3A 5705   4.470  13.557   8.433  0.1171  0.0767 -0.2520
  357loPI   C4A 5706   4.300  13.579   7.978  0.0519 -0.1704  0.4708
  357loPI   C5A 5707   4.183  13.496   7.488 -0.0245 -0.1148 -0.1890
  357loPI   C6A 5708   3.907  13.583   7.184  0.1967 -0.0894 -0.1397
  357loPI   C1B 5709   4.784  12.987   9.177 -0.1205 -0.3670  0.2012
  357loPI   C2B 5710   4.661  13.071   8.678 -0.2124 -0.1680  0.3151
  357loPI   C3B 5711   4.695  13.022   8.253 -0.1950 -0.0546  0.2161
  357loPI   C4B 5712   4.853  13.339   7.983  0.3051  0.0163 -0.0605
  358loPI    C1 5713   1.065  12.764  10.526  0.0985 -0.0574  0.0811
  358loPI    C2 5714   1.249  12.458  10.707  0.0040  0.0925  0.4403
  358loPI    C3 5715   0.851  12.490  10.723 -0.0335 -0.0488 -0.0490
  358loPI   PO4 5716   1.159  12.777  10.220 -0.0351  0.0793  0.2094
  358loPI   GL1 5717   1.387  12.582   9.854 -0.2604 -0.0096 -0.0538
  358loPI   GL2 5718   1.089  12.538   9.783  0.1229 -0.0362 -0.1459
  358loPI   C1A 5719   1.377  12.254   9.515  0.0006  0.0924 -0.0903
  358loPI   C2A 5720   1.065  12.222   9.262 -0.0092 -0.1042  0.3454
  358loPI   C3A 5721   1.026  12.259   8.933 -0.1600  0.0487  0.1285
  358loPI   C4A 5722   0.938  12.248   8.602  0.1508  0.0027 -0.0982
  358loPI   C5A 5723   0.870  11.906   8.318 -0.2901 -0.0113  0.1420
  358loPI   C6A 5724   0.690  11.830   7.908  0.0778 -0.0519  0.1288
  358loPI   C1B 5725   1.074  12.769   9.413 -0.0537  0.2863  0.3129
  358loPI   C2B 5726   1.282  12.734   8.976  0.0942 -0.0531  0.0541
  358loPI   C3B 5727   1.340  12.685   8.589 -0.1379  0.1194  0.0452
  358loPI   C4B 5728   1.302  12.722   8.171 -0.0881  0.2133  0.0797
  359loPI    C1 5729   5.112  15.969  10.122  0.0637 -0.0683 -0.1141
  359loPI    C2 5730   4.712  15.979  10.112  0.0695  0.1312 -0.1979
  359loPI    C3 5731   4.905  16.017  10.460  0.0175  0.1128 -0.1671
  359loPI   PO4 5732   5.290  16.190   9.909 -0.2380  0.1114  0.3047
  359loPI   GL1 5733   5.192  16.252   9.423 -0.2077  0.1510  0.1057
  359loPI   GL2 5734   5.498  16.320   9.199 -0.3221 -0.2885 -0.2891
  359loPI   C1A 5735   4.972  16.132   9.088  0.1357 -0.0257 -0.0435
  359loPI   C2A 5736   4.936  16.309   8.598 -0.3686 -0.1403  0.2497
  359loPI   C3A 5737   4.948  16.370   8.109  0.1753 -0.2502 -0.1409
  359loPI   C4A 5738   4.725  16.420   7.743 -0.1313  0.0024 -0.1047
  359loPI   C5A 5739   4.390  16.249   7.501  0.0352 -0.2167 -0.0007
  359loPI   C6A 5740   4.066  16.467   7.294 -0.1617  0.0799 -0.0211
  359loPI   C1B 5741   5.286  16.492   8.912 -0.0865  0.0639 -0.1299
  359loPI   C2B 5742   5.264  16.639   8.448  0.3362  0.0413 -0.0552
  359loPI   C3B 5743   5.353  16.701   8.042 -0.0121  0.1001  0.2157
  359loPI   C4B 5744   5.469  16.415   7.817  0.1359  0.2091 -0.0712
  360loPI    C1 5745  10.554  17.457  10.053 -0.0479  0.0144  0.0657
  360loPI    C2 5746  10.475  17.203  10.352  0.4053 -0.0925  0.1014
  360loPI    C3 5747  10.536  17.591  10.429  0.1537 -0.0511  0.0998
  360loPI   PO4 5748  10.318  17.396   9.882  0.2246 -0.0351 -0.1777
  360loPI   GL1 5749  10.331  17.369   9.465  0.2550  0.1326 -0.0912
  360loPI   GL2 5750  10.337  17.107   9.457 -0.2233 -0.3809  0.1016
  360loPI   C1A 5751  10.351  17.603   9.151  0.0357  0.1199  0.1576
  360loPI   C2A 5752  10.391  17.814   8.864  0.3547 -0.1386 -0.0050
  360loPI   C3A 5753  10.426  17.931   8.424  0.1698  0.2933  0.0849
  360loPI   C4A 5754  10.245  17.896   8.010 -0.2882 -0.0193  0.0169
  360loPI   C5A 5755  10.049  17.697   7.711 -0.2390  0.2696  0.0786
  360loPI   C6A 5756   9.801  17.294   7.566  0.1561 -0.2321 -0.1910
  360loPI   C1B 5757  10.380  17.152   9.015  0.0938  0.0131  0.4373
  360loPI   C2B 5758  10.414  17.231   8.553  0.0799 -0.0390 -0.0860
  360loPI   C3B 5759  10.448  17.420   8.232 -0.1717  0.0978 -0.1197
  360loPI   C4B 5760  10.507  17.469   7.740 -0.1977 -0.0111  0.0833
  361loPI    C1 5761   6.518  11.012  10.571  0.0121  0.1173 -0.0103
  361loPI    C2 5762   6.672  11.373  10.652  0.1944  0.0038  0.1578
  361loPI    C3 5763   6.438  11.189  10.920 -0.0380  0.0689  0.0029
  361loPI   PO4 5764   6.403  11.016  10.318 -0.0945  0.2697  0.1858
  361loPI   GL1 5765   6.378  11.152   9.881  0.1640  0.0751 -0.0151
  361loPI   GL2 5766   6.290  11.446   9.803  0.0874 -0.3501 -0.2960
  361loPI   C1A 5767   6.353  11.143   9.427  0.0834  0.1962  0.2818
  361loPI   C2A 5768   6.227  11.248   9.002  0.1330 -0.2049  0.1696
  361loPI   C3A 5769   6.159  11.150   8.599  0.1692 -0.0135  0.0100
  361loPI   C4A 5770   6.081  11.044   8.112  0.1932  0.1064  0.1394
  361loPI   C5A 5771   6.138  11.091   7.612  0.2901 -0.0752  0.0246
  361loPI   C6A 5772   6.299  10.746   7.324 -0.0713 -0.2317 -0.0910
  361loPI   C1B 5773   6.524  11.641   9.444  0.2239  0.0716 -0.1277
  361loPI   C2B 5774   6.565  11.786   8.985  0.0084 -0.1074  0.0614
  361loPI   C3B 5775   6.693  11.890   8.551 -0.0480  0.0497 -0.0171
  361loPI   C4B 5776   6.856  12.090   8.117 -0.0610 -0.0703  0.3170
  362loPI    C1 5777   8.077   4.427  10.295  0.1067 -0.0333  0.0630
  362loPI    C2 5778   7.728   4.302  10.146  0.0690  0.1835 -0.0357
  362loPI    C3 5779   7.738   4.493  10.497  0.1325 -0.1353  0.1395
  362loPI   PO4 5780   8.218   4.684  10.043  0.0820  0.0378 -0.2448
  362loPI   GL1 5781   8.401   4.637   9.648  0.0369  0.0597 -0.0409
  362loPI   GL2 5782   8.300   4.954   9.642  0.0145  0.1615  0.2555
  362loPI   C1A 5783   8.350   4.401   9.306  0.0553 -0.0045  0.3958
  362loPI   C2A 5784   8.311   4.456   8.850  0.0072  0.3471 -0.3725
  362loPI   C3A 5785   8.118   4.531   8.440  0.1399 -0.1335  0.3878
  362loPI   C4A 5786   8.206   4.422   8.021 -0.1715  0.0268 -0.1427
  362loPI   C5A 5787   8.208   4.356   7.656  0.1946  0.2513  0.1182
  362loPI   C6A 5788   8.267   4.559   7.176  0.0713 -0.1948  0.2335
  362loPI   C1B 5789   8.321   4.910   9.230 -0.0961 -0.0799  0.1657
  362loPI   C2B 5790   8.286   4.995   8.742 -0.0158  0.2116 -0.1632
  362loPI   C3B 5791   8.339   5.112   8.311  0.2743  0.2119  0.0311
  362loPI   C4B 5792   8.670   5.418   8.126 -0.0799 -0.2472  0.0108
  363loPI    C1 5793  12.632   1.762  10.828 -0.0224 -0.0320 -0.1679
  363loPI    C2 5794  12.596   1.486  11.114 -0.0706 -0.0211 -0.1633
  363loPI    C3 5795  12.691   1.862  11.211  0.2157 -0.0841 -0.1891
  363loPI   PO4 5796  12.778   1.737  10.651  0.2073 -0.2853  0.1786
  363loPI   GL1 5797  12.772   1.745  10.204  0.0497  0.0044  0.2547
  363loPI   GL2 5798  12.838   1.960   9.981  0.0273 -0.1097  0.1324
  363loPI   C1A 5799  12.825   1.395   9.990  0.1754 -0.0417 -0.1043
  363loPI   C2A 5800  12.882   1.235   9.550 -0.0708 -0.2828 -0.0197
  363loPI   C3A 5801  12.885   1.425   9.254 -0.1105  0.2949  0.1540
  363loPI   C4A 5802  12.888   1.417   8.717 -0.0806  0.2966  0.2641
  363loPI   C5A 5803  12.866   1.369   8.287 -0.0514  0.1654 -0.0952
  363loPI   C6A 5804  12.793   1.085   7.982 -0.0274  0.2311 -0.1803
  363loPI   C1B 5805  12.555   1.719   9.748  0.3248 -0.0987  0.2075
  363loPI   C2B 5806  12.277   1.528   9.545  0.1124  0.0251 -0.1924
  363loPI   C3B 5807  12.372   1.223   9.224 -0.0149 -0.0438  0.1287
  363loPI   C4B 5808  12.622   0.901   9.358  0.3290  0.3147  0.1500
  364loPI    C1 5809  13.587  17.813  10.161  0.0899  0.2236  0.1432
  364loPI    C2 5810  13.248  17.611  10.097  0.2155  0.0784 -0.0795
  364loPI    C3 5811  13.448  17.562  10.440  0.2173 -0.1375 -0.1100
  364loPI   PO4 5812  13.651  17.777   9.919  0.1938 -0.3635  0.0175
  364loPI   GL1 5813  13.492  17.554   9.546  0.1015 -0.0344  0.1846
  364loPI   GL2 5814  13.416  17.263   9.622 -0.2195  0.3569 -0.2642
  364loPI   C1A 5815  13.607  17.740   9.061  0.2685  0.1695  0.2228
  364loPI   C2A 5816  13.488  17.614   8.704  0.0536 -0.0924 -0.4558
  364loPI   C3A 5817  13.526  17.438   8.255 -0.0492 -0.1071  0.0121
  364loPI   C4A 5818  13.894  17.328   8.109 -0.2364 -0.2577  0.2083
  364loPI   C5A 5819  14.172  17.123   7.997 -0.2211  0.0204 -0.1786
  364loPI   C6A 5820  14.612  17.079   7.940  0.1680  0.0137 -0.0159
  364loPI   C1B 5821  13.573  17.218   9.145  0.1361 -0.3557  0.0514
  364loPI   C2B 5822  13.623  17.157   8.669  0.1842  0.0411 -0.1140
  364loPI   C3B 5823  14.005  17.018   8.508  0.0586 -0.1872 -0.3055
  364loPI   C4B 5824  14.472  17.049   8.464  0.0633  0.0384  0.2068
  365loPI    C1 5825   0.159  15.072  10.222 -0.0091  0.0232 -0.0407
  365loPI    C2 5826   0.390  15.071  10.549  0.1254 -0.1164 -0.1347
  365loPI    C3 5827   0.113  15.356  10.501 -0.0631 -0.2346  0.2173
  365loPI   PO4 5828   0.376  14.957  10.043  0.0948  0.4316  0.1477
  365loPI   GL1 5829   0.790  15.129   9.737 -0.0255 -0.0207  0.2081
  365loPI   GL2 5830   1.004  15.412   9.739  0.1593  0.1269  0.2113
  365loPI   C1A 5831   0.804  15.109   9.389 -0.0550 -0.0215  0.1925
  365loPI   C2A 5832   0.875  15.099   9.028 -0.0296 -0.2727 -0.0523
  365loPI   C3A 5833   1.003  15.361   8.627  0.1303 -0.0126  0.2474
  365loPI   C4A 5834   1.090  15.422   8.224  0.4327 -0.1727  0.1152
  365loPI   C5A 5835   1.460  15.496   8.052 -0.1835  0.0067  0.2857
  365loPI   C6A 5836   1.504  15.775   7.726 -0.0770 -0.0926  0.0352
  365loPI   C1B 5837   1.177  15.493   9.422 -0.0979  0.0600 -0.2778
  365loPI   C2B 5838   1.151  15.516   9.057  0.0208 -0.2388 -0.1282
  365loPI   C3B 5839   1.277  15.717   8.763 -0.0235  0.0591  0.0033
  365loPI   C4B 5840   1.475  15.931   8.420  0.0194  0.0576  0.1301
  366loPI    C1 5841   3.780   5.473  10.528  0.0096  0.3644 -0.2441
  366loPI    C2 5842   3.814   5.598  10.906  0.0209 -0.2714 -0.0228
  366loPI    C3 5843   4.141   5.547  10.682  0.0379 -0.1974 -0.0149
  366loPI   PO4 5844   3.557   5.614  10.421  0.0930 -0.1867  0.0891
  366loPI   GL1 5845   3.500   5.726   9.957 -0.0763 -0.1954  0.1457
  366loPI   GL2 5846   3.624   6.026  10.071  0.0340 -0.1395 -0.2828
  366loPI   C1A 5847   3.493   5.571   9.533  0.0936  0.0927 -0.1714
  366loPI   C2A 5848   3.699   5.566   9.282 -0.0563  0.1784  0.0442
  366loPI   C3A 5849   3.999   5.505   9.013  0.2417 -0.0353 -0.1610
  366loPI   C4A 5850   4.348   5.321   8.817  0.3424 -0.1061 -0.1988
  366loPI   C5A 5851   4.348   5.175   8.409 -0.0319 -0.1070 -0.3165
  366loPI   C6A 5852   4.667   5.250   8.042 -0.1818  0.0050 -0.0882
  366loPI   C1B 5853   3.823   5.942   9.658  0.0644 -0.1613 -0.0131
  366loPI   C2B 5854   3.864   6.104   9.283 -0.1655  0.1390 -0.1417
  366loPI   C3B 5855   3.732   5.936   8.939 -0.4205  0.0089  0.2650
  366loPI   C4B 5856   3.825   6.065   8.424 -0.3098 -0.0777 -0.1761
  367loPI    C1 5857  17.774  13.367  10.013  0.1131  0.1849  0.1445
  367loPI    C2 5858  17.674  13.245  10.380 -0.0119  0.3386  0.1625
  367loPI    C3 5859  17.561  13.032  10.060  0.0644  0.2250  0.2106
  367loPI   PO4 5860  17.699  13.519   9.926  0.1594 -0.1838 -0.2762
  367loPI   GL1 5861  17.574  13.475   9.460 -0.1100  0.1031  0.0048
  367loPI   GL2 5862  17.520  13.139   9.578 -0.3538 -0.2241 -0.1486
  367loPI   C1A 5863  17.969  13.528   9.183 -0.0360 -0.2608  0.1290
  367loPI   C2A 5864  17.988  13.530   8.795 -0.0085  0.0002  0.0873
  367loPI   C3A 5865  18.147  13.574   8.333 -0.1090 -0.1976  0.0306
  367loPI   C4A 5866  18.196  13.877   8.015  0.1212 -0.0820 -0.5449
  367loPI   C5A 5867  18.361  14.190   7.733 -0.1199 -0.1672  0.1261
  367loPI   C6A 5868  18.680  14.381   7.461  0.3204  0.2015  0.2109
  367loPI   C1B 5869  17.590  13.207   9.037 -0.2367 -0.0978 -0.0465
  367loPI   C2B 5870  17.655  13.204   8.510  0.0238 -0.0683 -0.2813
  367loPI   C3B 5871  17.603  13.225   8.159  0.2510 -0.1533  0.0908
  367loPI   C4B 5872  17.750  13.279   7.740 -0.0333  0.0033  0.0478
  368loPI    C1 5873  13.389   0.052  10.581  0.1720 -0.0296 -0.1070
  368loPI    C2 5874  13.515   0.411  10.707 -0.0191  0.0155 -0.0411
  368loPI    C3 5875  13.761   0.096  10.721  0.0631  0.0870  0.1521
  368loPI   PO4 5876  13.232   0.070  10.285  0.3835  0.0118  0.0573
  368loPI   GL1 5877  13.141   0.233   9.852  0.0287  0.2320 -0.1042
  368loPI   GL2 5878  13.426   0.092   9.639  0.1083  0.1005  0.0619
  368loPI   C1A 5879  13.193   0.544   9.723 -0.0733 -0.0612 -0.1379
  368loPI   C2A 5880  13.186   0.865   9.465  0.1504 -0.0047 -0.1533
  368loPI   C3A 5881  13.013   0.951   9.032 -0.0976  0.2472 -0.1579
  368loPI   C4A 5882  12.866   0.950   8.545 -0.1843  0.2185 -0.0664
  368loPI   C5A 5883  12.439   0.879   8.339 -0.3146 -0.1358  0.0508
  368loPI   C6A 5884  12.061   1.105   8.105  0.1326  0.1476 -0.2135
  368loPI   C1B 5885  13.274   0.331   9.262  0.1598  0.2768 -0.1791
  368loPI   C2B 5886  13.197   0.399   8.822 -0.2857 -0.2120  0.1076
  368loPI   C3B 5887  13.223   0.625   8.375 -0.3135  0.0203  0.1372
  368loPI   C4B 5888  13.105   0.640   7.987  0.0267  0.1651  0.1233
  369loPI    C1 5889  12.957  15.110  10.143 -0.1848 -0.4859  0.0019
  369loPI    C2 5890  13.154  14.899  10.420  0.0741 -0.2178  0.0264
  369loPI    C3 5891  12.900  15.187  10.531  0.1623 -0.1242 -0.0123
  369loPI   PO4 5892  13.143  15.159   9.974 -0.0259 -0.2870 -0.0885
  369loPI   GL1 5893  13.266  15.363   9.548 -0.2967  0.0290  0.1948
  369loPI   GL2 5894  13.133  15.185   9.247 -0.0370  0.2430 -0.3910
  369loPI   C1A 5895  13.506  15.452   9.115  0.1191  0.0522  0.3301
  369loPI   C2A 5896  13.600  15.422   8.626 -0.2616  0.2010 -0.2033
  369loPI   C3A 5897  13.560  15.479   8.172 -0.2074 -0.0477 -0.3766
  369loPI   C4A 5898  13.801  15.384   7.806 -0.1890 -0.1184  0.1271
  369loPI   C5A 5899  13.939  15.139   7.529  0.1418 -0.3377 -0.0026
  369loPI   C6A 5900  14.393  14.985   7.365 -0.1730  0.3965 -0.2575
  369loPI   C1B 5901  13.130  15.266   8.833 -0.0083  0.0392 -0.0959
  369loPI   C2B 5902  13.108  15.389   8.402 -0.1494  0.0411 -0.1196
  369loPI   C3B 5903  13.060  15.548   7.936  0.0602  0.3748 -0.2557
  369loPI   C4B 5904  12.732  15.810   7.843  0.2127 -0.4197  0.0295
  370loPI    C1 5905   7.813   0.984  10.140  0.1186 -0.4185  0.5891
  370loPI    C2 5906   7.956   1.247  10.405  0.2348 -0.0946  0.2130
  370loPI    C3 5907   8.140   1.197  10.053 -0.1137 -0.2652  0.0508
  370loPI   PO4 5908   7.584   0.958  10.055 -0.0698 -0.0368  0.2550
  370loPI   GL1 5909   7.432   0.993   9.631 -0.1958 -0.0586 -0.1513
  370loPI   GL2 5910   7.308   1.308   9.581  0.4698  0.1562  0.3090
  370loPI   C1A 5911   7.188   0.996   9.258  0.2425 -0.2534  0.0095
  370loPI   C2A 5912   7.036   1.039   8.896  0.1845 -0.3212 -0.2988
  370loPI   C3A 5913   6.876   0.818   8.475  0.1143  0.2571 -0.2405
  370loPI   C4A 5914   7.060   0.569   8.133 -0.1643 -0.3990 -0.0484
  370loPI   C5A 5915   7.064   0.362   7.645 -0.2709  0.3025 -0.0352
  370loPI   C6A 5916   7.330   0.246   7.357  0.0867 -0.0766 -0.0300
  370loPI   C1B 5917   7.112   1.478   9.227  0.0297 -0.3259  0.2155
  370loPI   C2B 5918   7.064   1.549   8.795  0.0453  0.1111  0.0573
  370loPI   C3B 5919   6.960   1.639   8.349 -0.1371  0.1171 -0.0032
  370loPI   C4B 5920   6.815   1.794   7.918 -0.0173 -0.1335 -0.1079
  371loPI    C1 5921   3.284  13.996  10.153 -0.1617  0.0817 -0.1508
  371loPI    C2 5922   3.163  13.992  10.534 -0.0972  0.0199 -0.1307
  371loPI    C3 5923   3.099  13.673  10.301  0.1532 -0.0695 -0.0796
  371loPI   PO4 5924   3.326  14.333  10.120  0.0151 -0.1924 -0.1047
  371loPI   GL1 5925   3.403  14.222   9.714 -0.2254 -0.0353 -0.0516
  371loPI   GL2 5926   3.160  14.085   9.500  0.3516 -0.2444 -0.1750
  371loPI   C1A 5927   3.542  14.329   9.301  0.0289  0.1116  0.0754
  371loPI   C2A 5928   3.540  14.293   8.789  0.5023 -0.1189 -0.1604
  371loPI   C3A 5929   3.511  14.306   8.390  0.0120  0.1960 -0.1069
  371loPI   C4A 5930   3.736  14.459   7.980 -0.0470 -0.0055  0.1372
  371loPI   C5A 5931   4.130  14.438   7.781 -0.1160  0.1717  0.0046
  371loPI   C6A 5932   4.548  14.754   7.748 -0.1252 -0.3749 -0.0509
  371loPI   C1B 5933   3.086  14.138   9.108 -0.1390 -0.1119 -0.1373
  371loPI   C2B 5934   3.049  14.211   8.691 -0.0703  0.0650  0.0256
  371loPI   C3B 5935   2.865  14.097   8.257 -0.1995  0.1636 -0.1594
  371loPI   C4B 5936   2.637  13.906   8.050  0.2077  0.0290 -0.2945
  372loPI    C1 5937  17.511  16.504  10.443  0.1097  0.0308 -0.0127
  372loPI    C2 5938  17.151  16.383  10.317  0.1097  0.0136  0.0040
  372loPI    C3 5939  17.250  16.349  10.704  0.1314  0.0127 -0.0016
  372loPI   PO4 5940  17.551  16.696  10.169 -0.0050 -0.0594  0.1596
  372loPI   GL1 5941  17.262  16.856   9.814 -0.2340  0.3704 -0.0028
  372loPI   GL2 5942  17.595  16.986   9.733 -0.2333 -0.2090 -0.0365
  372loPI   C1A 5943  17.183  16.651   9.411  0.0796 -0.2859  0.1624
  372loPI   C2A 5944  17.274  16.641   8.905  0.2034 -0.1246 -0.3354
  372loPI   C3A 5945  17.211  16.766   8.551  0.0416  0.0613  0.0074
  372loPI   C4A 5946  17.028  16.803   8.155 -0.2535 -0.0494 -0.1119
  372loPI   C5A 5947  16.968  17.072   7.869  0.3181 -0.4582 -0.0503
  372loPI   C6A 5948  16.753  17.098   7.419  0.0708  0.1495  0.0261
  372loPI   C1B 5949  17.536  16.995   9.222 -0.1939 -0.2163  0.0559
  372loPI   C2B 5950  17.781  16.731   8.939 -0.0297  0.2213  0.0535
  372loPI   C3B 5951  17.896  16.788   8.538 -0.1465 -0.0405  0.0043
  372loPI   C4B 5952  17.983  16.917   8.026 -0.2119 -0.1126  0.0412
  373loPI    C1 5953   4.641  10.031  10.816 -0.2532 -0.0818  0.1032
  373loPI    C2 5954   4.978   9.899  10.987 -0.0854 -0.0133 -0.1683
  373loPI    C3 5955   4.631   9.879  11.186  0.1084  0.0934  0.1891
  373loPI   PO4 5956   4.824  10.217  10.566 -0.1043 -0.0451  0.0378
  373loPI   GL1 5957   5.002  10.035  10.202 -0.0576 -0.0915  0.0211
  373loPI   GL2 5958   5.300   9.961  10.029 -0.1774  0.1927 -0.5297
  373loPI   C1A 5959   4.870   9.997   9.722  0.1739 -0.0252  0.1375
  373loPI   C2A 5960   4.763   9.869   9.327  0.0632 -0.1041 -0.0319
  373loPI   C3A 5961   4.951   9.890   8.841 -0.0725  0.0764  0.1078
  373loPI   C4A 5962   4.880   9.990   8.426 -0.3466  0.0386 -0.0206
  373loPI   C5A 5963   4.558   9.981   8.079  0.1119  0.1445 -0.0493
  373loPI   C6A 5964   4.092   9.872   8.157  0.1097  0.1448  0.1563
  373loPI   C1B 5965   5.375  10.019   9.621  0.1288  0.2025 -0.4536
  373loPI   C2B 5966   5.310   9.837   9.317  0.1980  0.0901  0.0646
  373loPI   C3B 5967   5.410   9.793   8.900  0.1069  0.0143 -0.0178
  373loPI   C4B 5968   5.361   9.630   8.435  0.2068 -0.3483 -0.1813
  374loPI    C1 5969   2.755  15.792  10.719 -0.0466  0.1590  0.0388
  374loPI    C2 5970   2.405  15.708  10.894  0.0594 -0.2793  0.0512
  374loPI    C3 5971   2.681  15.922  11.090 -0.1804  0.0297  0.0584
  374loPI   PO4 5972   2.670  15.699  10.460 -0.2954 -0.3178  0.2403
  374loPI   GL1 5973   2.580  15.762  10.042 -0.1165 -0.2822  0.3710
  374loPI   GL2 5974   2.484  16.131   9.929  0.1325 -0.0658 -0.2774
  374loPI   C1A 5975   2.458  15.765   9.552  0.0610  0.1982 -0.0925
  374loPI   C2A 5976   2.464  15.845   9.164 -0.2814 -0.1700 -0.1028
  374loPI   C3A 5977   2.441  15.732   8.753  0.0923  0.0690 -0.3240
  374loPI   C4A 5978   2.341  15.789   8.359  0.0696 -0.3810 -0.2418
  374loPI   C5A 5979   2.428  15.917   7.856 -0.0969  0.0248  0.0564
  374loPI   C6A 5980   2.365  15.877   7.457 -0.0372  0.0474  0.5272
  374loPI   C1B 5981   2.505  16.291   9.509  0.2150  0.2523 -0.3422
  374loPI   C2B 5982   2.735  16.373   9.175  0.4331 -0.1243 -0.2546
  374loPI   C3B 5983   2.863  16.443   8.854 -0.6694 -0.2796  0.1922
  374loPI   C4B 5984   2.938  16.570   8.489  0.2058 -0.2818  0.0178
  375loPI    C1 5985   8.586  11.432   9.989  0.0287 -0.0990  0.1578
  375loPI    C2 5986   8.665  11.675  10.297  0.0314 -0.2613  0.2867
  375loPI    C3 5987   8.668  11.278  10.349 -0.0565 -0.2880  0.0980
  375loPI   PO4 5988   8.439  11.575   9.836 -0.1102  0.0547 -0.1492
  375loPI   GL1 5989   8.429  11.795   9.515  0.2052 -0.1298  0.1044
  375loPI   GL2 5990   8.532  12.184   9.487 -0.3377 -0.0513 -0.5095
  375loPI   C1A 5991   8.052  11.608   9.203 -0.1586  0.0150 -0.0381
  375loPI   C2A 5992   8.097  11.465   8.871 -0.1087  0.0321 -0.0877
  375loPI   C3A 5993   8.166  11.083   8.590 -0.0746 -0.2154 -0.0993
  375loPI   C4A 5994   8.162  11.097   8.112  0.2759  0.0150  0.0461
  375loPI   C5A 5995   8.492  11.057   7.851  0.1089 -0.2504 -0.0533
  375loPI   C6A 5996   8.869  11.291   7.837 -0.0347  0.0277 -0.4925
  375loPI   C1B 5997   8.696  12.053   9.123 -0.2174 -0.0305 -0.2670
  375loPI   C2B 5998   8.740  12.253   8.788 -0.0713 -0.2580  0.1340
  375loPI   C3B 5999   8.582  12.403   8.327 -0.0335  0.1214  0.1423
  375loPI   C4B 6000   8.724  12.302   7.883 -0.1310  0.2465  0.1815
  376loPI    C1 6001   2.455   1.478  10.397  0.2792  0.0269 -0.0765
  376loPI    C2 6002   2.413   1.516  10.793  0.0477  0.0153 -0.0986
  376loPI    C3 6003   2.350   1.162  10.618  0.0403  0.0464 -0.1591
  376loPI   PO4 6004   2.344   1.676  10.221  0.2457  0.1680 -0.3320
  376loPI   GL1 6005   2.036   1.613  10.008  0.1717  0.1041  0.2354
  376loPI   GL2 6006   2.171   1.512   9.708 -0.2943 -0.0806  0.0545
  376loPI   C1A 6007   1.825   1.897   9.680  0.1311 -0.3210 -0.0518
  376loPI   C2A 6008   1.728   1.986   9.221 -0.1484 -0.0481  0.2173
  376loPI   C3A 6009   1.876   2.007   8.769 -0.1103 -0.1744 -0.1481
  376loPI   C4A 6010   1.923   2.004   8.317 -0.3279 -0.1038  0.1003
  376loPI   C5A 6011   2.283   1.984   8.088 -0.1188  0.0585 -0.0935
  376loPI   C6A 6012   2.616   2.077   8.026 -0.2113  0.1491  0.0950
  376loPI   C1B 6013   1.951   1.519   9.391 -0.1423  0.1582  0.0001
  376loPI   C2B 6014   1.803   1.543   9.007 -0.3082 -0.1355  0.2557
  376loPI   C3B 6015   1.737   1.587   8.561 -0.0022 -0.0936  0.0014
  376loPI   C4B 6016   1.712   1.423   8.191  0.1354 -0.2663 -0.1434
  377loPI    C1 6017  12.246  16.113  10.411 -0.1339  0.1232  0.1429
  377loPI    C2 6018  11.945  16.288  10.609 -0.1065  0.4567 -0.1024
  377loPI    C3 6019  12.318  16.430  10.644 -0.0188  0.2068 -0.0045
  377loPI   PO4 6020  12.125  16.114  10.127 -0.0793 -0.0155  0.3211
  377loPI   GL1 6021  11.941  16.091   9.789 -0.0739 -0.2106  0.0729
  377loPI   GL2 6022  11.755  15.756   9.562 -0.0303  0.2470 -0.0517
  377loPI   C1A 6023  11.961  16.305   9.427 -0.1614  0.2090 -0.2164
  377loPI   C2A 6024  11.972  16.294   8.958  0.0144  0.3571  0.1306
  377loPI   C3A 6025  12.026  16.336   8.561  0.0068  0.1321  0.4074
  377loPI   C4A 6026  11.997  16.279   8.209  0.1155  0.0396  0.1804
  377loPI   C5A 6027  11.801  16.098   7.760 -0.0164 -0.4548 -0.2221
  377loPI   C6A 6028  11.394  15.926   7.806 -0.0744 -0.1168  0.2071
  377loPI   C1B 6029  11.767  15.852   9.238  0.3371  0.0746  0.2931
  377loPI   C2B 6030  11.678  15.901   8.761 -0.2865 -0.3128 -0.1197
  377loPI   C3B 6031  11.628  15.860   8.281  0.3462 -0.4692  0.2663
  377loPI   C4B 6032  11.836  15.620   7.859 -0.0700  0.0131 -0.0348
  378loPI    C1 6033   1.740   5.014  11.010 -0.0066 -0.2998 -0.0626
  378loPI    C2 6034   2.019   4.756  11.136  0.0422 -0.0526  0.3540
  378loPI    C3 6035   1.675   4.793  11.337 -0.0521  0.0567  0.1750
  378loPI   PO4 6036   1.765   5.052  10.735  0.2549  0.1565  0.0509
  378loPI   GL1 6037   1.774   4.807  10.348 -0.3422 -0.0821  0.0120
  378loPI   GL2 6038   2.063   4.983  10.311 -0.4756 -0.0879 -0.1965
  378loPI   C1A 6039   1.542   4.759  10.000 -0.0414 -0.0636  0.1141
  378loPI   C2A 6040   1.552   4.856   9.594 -0.1662 -0.0631 -0.2853
  378loPI   C3A 6041   1.544   5.057   9.192  0.2282  0.1923  0.2064
  378loPI   C4A 6042   1.651   5.140   8.764 -0.0529  0.2478 -0.1424
  378loPI   C5A 6043   1.528   5.278   8.512  0.2780  0.0328  0.1463
  378loPI   C6A 6044   1.179   5.488   8.402  0.1141  0.1873  0.1225
  378loPI   C1B 6045   1.933   5.170   9.947 -0.1646 -0.2552 -0.1920
  378loPI   C2B 6046   1.961   5.198   9.585 -0.1770 -0.0975 -0.1488
  378loPI   C3B 6047   2.379   5.108   9.403  0.1406  0.1514  0.1300
  378loPI   C4B 6048   2.569   5.047   9.015 -0.0134 -0.2137  0.0971
  379loPI    C1 6049   2.827   9.905  10.212  0.1101 -0.1194 -0.2581
  379loPI    C2 6050   2.670   9.932  10.579  0.2319 -0.1832 -0.2008
  379loPI    C3 6051   2.493   9.705  10.303  0.2115 -0.2382 -0.1426
  379loPI   PO4 6052   2.902  10.146  10.199  0.0416 -0.4513  0.0415
  379loPI   GL1 6053   3.112  10.215   9.874 -0.1881 -0.1392 -0.0362
  379loPI   GL2 6054   3.075  10.447   9.842 -0.3030 -0.1830 -0.4227
  379loPI   C1A 6055   3.187  10.043   9.430 -0.1403 -0.1411  0.2196
  379loPI   C2A 6056   3.433   9.796   9.037 -0.3238 -0.1046  0.0803
  379loPI   C3A 6057   3.491   9.568   8.700 -0.0902 -0.0936  0.1777
  379loPI   C4A 6058   3.410   9.275   8.281 -0.1005 -0.3792 -0.1891
  379loPI   C5A 6059   3.130   9.102   7.882 -0.0035  0.4955  0.1004
  379loPI   C6A 6060   2.935   8.728   7.753 -0.1463 -0.0499  0.2364
  379loPI   C1B 6061   2.939  10.492   9.432  0.0107  0.0550  0.1570
  379loPI   C2B 6062   3.040  10.386   9.045 -0.2886  0.0693  0.3124
  379loPI   C3B 6063   3.098  10.097   8.728 -0.2044  0.1483  0.1290
  379loPI   C4B 6064   3.148   9.814   8.470 -0.0881  0.3857 -0.0537
  380loPI    C1 6065   9.801   4.476  10.532  0.1722  0.0348  0.0712
  380loPI    C2 6066   9.607   4.199  10.746 -0.0035  0.1220  0.0266
  380loPI    C3 6067   9.680   4.560  10.904  0.1088  0.0949  0.0372
  380loPI   PO4 6068   9.750   4.418  10.271  0.2401 -0.0306  0.4870
  380loPI   GL1 6069   9.658   4.242   9.795  0.0282 -0.3444 -0.1898
  380loPI   GL2 6070   9.576   3.844   9.816 -0.0482 -0.1107 -0.0334
  380loPI   C1A 6071   9.581   4.109   9.351  0.0420 -0.0093  0.0174
  380loPI   C2A 6072   9.577   4.121   8.932  0.0324 -0.2184 -0.1632
  380loPI   C3A 6073   9.465   4.368   8.626  0.0396 -0.0071 -0.0157
  380loPI   C4A 6074   9.424   4.596   8.196  0.1663 -0.3391 -0.1367
  380loPI   C5A 6075   9.744   4.954   8.013  0.2079  0.0773  0.0743
  380loPI   C6A 6076  10.146   4.773   7.900  0.1465 -0.1017  0.1067
  380loPI   C1B 6077   9.363   3.649   9.367  0.0291  0.2557  0.2913
  380loPI   C2B 6078   9.335   3.667   8.935 -0.1366 -0.0626 -0.0160
  380loPI   C3B 6079   9.364   3.788   8.496 -0.0169 -0.0305 -0.0247
  380loPI   C4B 6080   8.980   3.754   8.332 -0.0911 -0.1177  0.1509
  381loPI    C1 6081   2.011   0.928  10.359 -0.0779  0.0907 -0.0110
  381loPI    C2 6082   1.653   1.105  10.380 -0.2126 -0.1822  0.0263
  381loPI    C3 6083   1.861   1.036  10.714 -0.0087  0.2029 -0.0151
  381loPI   PO4 6084   2.144   1.109  10.156  0.1938  0.0584  0.0343
  381loPI   GL1 6085   1.866   1.131   9.902 -0.0670 -0.1266  0.0283
  381loPI   GL2 6086   1.704   0.794   9.986 -0.2355 -0.0030  0.0108
  381loPI   C1A 6087   1.682   1.131   9.461  0.0852  0.1625  0.2716
  381loPI   C2A 6088   1.779   0.903   9.148 -0.0522  0.0482 -0.0716
  381loPI   C3A 6089   1.884   1.041   8.745 -0.1060  0.1512  0.0144
  381loPI   C4A 6090   2.016   1.097   8.360  0.0814 -0.1359 -0.1985
  381loPI   C5A 6091   1.879   0.948   7.987  0.1276  0.1671  0.2550
  381loPI   C6A 6092   1.803   1.246   7.637  0.1634 -0.1995 -0.1105
  381loPI   C1B 6093   1.949   0.598   9.676  0.0077  0.0854 -0.0773
  381loPI   C2B 6094   2.041   0.424   9.224 -0.0875 -0.0557 -0.0536
  381loPI   C3B 6095   1.996   0.410   8.844  0.2845  0.0706  0.0516
  381loPI   C4B 6096   2.068   0.588   8.545 -0.0911 -0.2725  0.1924
  382loPI    C1 6097   8.367   0.517  10.068 -0.1720  0.4082 -0.0014
  382loPI    C2 6098   8.058   0.592  10.310 -0.2906  0.1101 -0.0575
  382loPI    C3 6099   8.371   0.383  10.445 -0.1959  0.2522 -0.0559
  382loPI   PO4 6100   8.419   0.777   9.917  0.2898 -0.1284  0.0294
  382loPI   GL1 6101   8.271   1.042   9.564  0.0428  0.0591 -0.0374
  382loPI   GL2 6102   8.171   0.771   9.371  0.2443 -0.0442 -0.1764
  382loPI   C1A 6103   8.230   1.207   9.088 -0.0559 -0.2440 -0.3555
  382loPI   C2A 6104   8.141   1.266   8.663  0.0334  0.2397  0.1098
  382loPI   C3A 6105   7.866   1.124   8.353 -0.3957 -0.0571 -0.1542
  382loPI   C4A 6106   7.511   1.006   8.057 -0.0386  0.0477  0.0041
  382loPI   C5A 6107   7.203   1.226   7.799  0.2337 -0.0484  0.3271
  382loPI   C6A 6108   7.106   1.577   7.503 -0.1286  0.2099  0.0280
  382loPI   C1B 6109   7.919   0.757   8.949 -0.1645 -0.5440 -0.1755
  382loPI   C2B 6110   7.872   0.709   8.556  0.1012  0.1914 -0.1860
  382loPI   C3B 6111   7.957   0.779   8.016 -0.1713 -0.1673 -0.1053
  382loPI   C4B 6112   7.931   1.193   7.857  0.0036  0.2584  0.4585
  383loPI    C1 6113   1.609  17.900  10.282 -0.0554  0.1580  0.0725
  383loPI    C2 6114   1.910  17.691  10.443 -0.0456 -0.0309 -0.1840
  383loPI    C3 6115   1.542  17.534  10.430 -0.0877  0.0654 -0.1661
  383loPI   PO4 6116   1.665  17.928  10.053  0.2268  0.1861  0.0260
  383loPI   GL1 6117   1.404  18.003   9.784 -0.3268 -0.0237  0.1574
  383loPI   GL2 6118   1.330  18.380   9.882 -0.1683  0.0291  0.1307
  383loPI   C1A 6119   1.468  17.957   9.265  0.2165  0.1160 -0.2645
  383loPI   C2A 6120   1.577  18.097   8.771 -0.2368  0.3080  0.1154
  383loPI   C3A 6121   1.559  18.015   8.398  0.0374 -0.0738 -0.1672
  383loPI   C4A 6122   1.345  17.743   8.231  0.2450  0.3240  0.1674
  383loPI   C5A 6123   1.082  17.752   7.917  0.0092  0.2340  0.0333
  383loPI   C6A 6124   0.832  17.636   7.534  0.0136 -0.0441  0.1020
  383loPI   C1B 6125   1.297  18.372   9.352  0.0791 -0.1132 -0.0214
  383loPI   C2B 6126   1.352  18.485   8.936  0.0812  0.1431 -0.2901
  383loPI   C3B 6127   1.485  18.500   8.465 -0.2157 -0.0711 -0.1872
  383loPI   C4B 6128   1.726  18.740   8.242 -0.1114 -0.0351 -0.1774
  384loPI    C1 6129  15.843  17.263  10.248 -0.1399 -0.1521 -0.0645
  384loPI    C2 6130  15.641  16.958  10.409 -0.1958 -0.0662  0.0287
  384loPI    C3 6131  15.600  17.327  10.559  0.2389 -0.0909  0.2262
  384loPI   PO4 6132  15.838  17.217   9.932  0.0684 -0.0051 -0.2782
  384loPI   GL1 6133  16.077  17.340   9.582 -0.0511  0.2606 -0.0061
  384loPI   GL2 6134  16.250  17.085   9.365  0.1383  0.1184 -0.0675
  384loPI   C1A 6135  16.015  17.460   9.147  0.1394  0.2170  0.3765
  384loPI   C2A 6136  15.843  17.425   8.713  0.0137 -0.1496  0.3700
  384loPI   C3A 6137  15.838  17.675   8.308  0.0486 -0.1922 -0.1131
  384loPI   C4A 6138  15.870  17.983   8.064  0.1492 -0.4160  0.1434
  384loPI   C5A 6139  15.596  18.194   7.856 -0.0793 -0.2745  0.0311
  384loPI   C6A 6140  15.235  18.165   7.972 -0.2552 -0.2853 -0.1816
  384loPI   C1B 6141  16.599  16.985   9.116 -0.0433  0.1395 -0.1112
  384loPI   C2B 6142  16.739  16.917   8.648 -0.0821  0.0570 -0.0658
  384loPI   C3B 6143  16.599  17.013   8.247 -0.0072 -0.1801  0.1379
  384loPI   C4B 6144  16.410  16.976   7.852  0.1088  0.1178 -0.0079
  385loPI    C1 6145   1.974   8.053  10.550 -0.2248  0.1227  0.0789
  385loPI    C2 6146   2.101   8.229  10.887  0.1040  0.0227  0.0109
  385loPI    C3 6147   2.062   8.443  10.552  0.2478  0.0228 -0.0063
  385loPI   PO4 6148   2.174   7.856  10.484 -0.0787 -0.0463 -0.0984
  385loPI   GL1 6149   1.909   7.856  10.023  0.1327 -0.1189 -0.2621
  385loPI   GL2 6150   1.585   7.986  10.132  0.0966  0.0428 -0.2375
  385loPI   C1A 6151   1.966   7.667   9.613 -0.1790  0.2477 -0.2632
  385loPI   C2A 6152   2.084   7.296   9.340  0.0665 -0.2764 -0.1317
  385loPI   C3A 6153   2.320   7.298   9.015  0.3054 -0.0897 -0.0810
  385loPI   C4A 6154   2.284   7.355   8.592  0.0502 -0.1225  0.1458
  385loPI   C5A 6155   2.357   7.652   8.269 -0.4152 -0.1280 -0.1554
  385loPI   C6A 6156   2.630   7.834   8.055 -0.0471  0.1000 -0.1195
  385loPI   C1B 6157   1.532   7.898   9.691 -0.0310 -0.2240 -0.1131
  385loPI   C2B 6158   1.662   7.708   9.231  0.1629 -0.1004  0.2414
  385loPI   C3B 6159   1.952   7.622   8.914  0.1873  0.0984  0.0189
  385loPI   C4B 6160   2.289   7.822   8.737 -0.0036 -0.1059  0.1289
  386loPI    C1 6161   9.701  16.322  10.116  0.1502 -0.0620 -0.0920
  386loPI    C2 6162   9.658  16.711  10.035 -0.2085 -0.0094  0.3128
  386loPI    C3 6163   9.849  16.596  10.368 -0.1227 -0.1810  0.2052
  386loPI   PO4 6164   9.751  16.138   9.909 -0.1104 -0.2261  0.1079
  386loPI   GL1 6165   9.466  16.062   9.638 -0.1057 -0.2304  0.0922
  386loPI   GL2 6166   9.512  16.449   9.582 -0.0339 -0.2905  0.3138
  386loPI   C1A 6167   9.568  15.855   9.292  0.0278 -0.0211  0.0418
  386loPI   C2A 6168   9.605  15.802   8.809  0.2564 -0.1350 -0.1693
  386loPI   C3A 6169   9.595  15.925   8.453 -0.0444 -0.1726 -0.0659
  386loPI   C4A 6170   9.980  15.932   8.161 -0.0909 -0.2628  0.2801
  386loPI   C5A 6171   9.958  15.956   7.679  0.2495  0.1863 -0.1833
  386loPI   C6A 6172   9.969  16.016   7.282 -0.2776 -0.0312  0.2735
  386loPI   C1B 6173   9.451  16.357   9.168 -0.1502 -0.0461  0.0582
  386loPI   C2B 6174   9.410  16.324   8.688  0.2991  0.2085 -0.3614
  386loPI   C3B 6175   9.392  16.347   8.221 -0.0455 -0.4200 -0.0054
  386loPI   C4B 6176   9.589  16.260   7.759 -0.1297  0.0997  0.1920
  387loPI    C1 6177   8.241   0.162   9.738  0.2265 -0.0778 -0.2321
  387loPI    C2 6178   8.318  -0.228   9.783  0.0011 -0.0713  0.2742
  387loPI    C3 6179   8.318   0.014  10.102 -0.2771  0.2654  0.0263
  387loPI   PO4 6180   8.025   0.142   9.511  0.2575  0.0740  0.1237
  387loPI   GL1 6181   7.854   0.328   9.207  0.5687 -0.0546  0.1149
  387loPI   GL2 6182   7.593   0.558   9.445 -0.1507 -0.1675  0.2400
  387loPI   C1A 6183   7.966   0.263   8.862 -0.1383 -0.0992  0.0646
  387loPI   C2A 6184   8.126   0.269   8.478 -0.2208  0.1422 -0.0648
  387loPI   C3A 6185   8.288   0.449   8.095 -0.1099  0.1283  0.2762
  387loPI   C4A 6186   8.631   0.822   7.982 -0.2488 -0.0196 -0.1406
  387loPI   C5A 6187   8.894   0.947   7.654  0.0989 -0.1268  0.3701
  387loPI   C6A 6188   9.131   1.166   7.406 -0.3962  0.1996 -0.0255
  387loPI   C1B 6189   7.433   0.625   8.998 -0.0180  0.1283 -0.0011
  387loPI   C2B 6190   7.368   0.779   8.499 -0.2582  0.1517 -0.1580
  387loPI   C3B 6191   7.581   0.513   8.200  0.0480  0.0382  0.2585
  387loPI   C4B 6192   7.646   0.443   7.757  0.1719 -0.0600 -0.1294
  388loPI    C1 6193  14.104   6.738  10.644  0.3237 -0.0306  0.2179
  388loPI    C2 6194  14.294   6.930  10.349  0.2312 -0.3265 -0.0395
  388loPI    C3 6195  14.438   6.944  10.721  0.1714  0.3183 -0.0304
  388loPI   PO4 6196  13.842   6.785  10.465  0.2029  0.0489 -0.0615
  388loPI   GL1 6197  13.781   7.102  10.037  0.0942  0.0830  0.1553
  388loPI   GL2 6198  13.703   6.828  10.015  0.3115  0.1339  0.0145
  388loPI   C1A 6199  13.889   7.346   9.759  0.0147 -0.1619  0.1747
  388loPI   C2A 6200  13.859   7.328   9.318 -0.5490  0.1280  0.2225
  388loPI   C3A 6201  13.913   7.231   8.860  0.0696  0.0088 -0.0995
  388loPI   C4A 6202  14.014   6.950   8.457 -0.0970 -0.0430  0.1015
  388loPI   C5A 6203  13.912   6.667   8.151 -0.0146  0.1603  0.1105
  388loPI   C6A 6204  13.865   6.429   7.858  0.0299 -0.1271 -0.1573
  388loPI   C1B 6205  13.591   6.872   9.538  0.0295  0.1169  0.2039
  388loPI   C2B 6206  13.714   6.877   9.180  0.0280  0.1416 -0.2636
  388loPI   C3B 6207  13.583   6.729   8.702 -0.0346 -0.0504  0.0030
  388loPI   C4B 6208  13.523   6.411   8.332 -0.0339  0.0747 -0.1707
  389loPI    C1 6209   2.973  12.810  10.201  0.0233 -0.3229 -0.0609
  389loPI    C2 6210   2.720  12.534  10.342 -0.2381 -0.1067 -0.0971
  389loPI    C3 6211   2.985  12.707  10.587 -0.0527 -0.4058 -0.0805
  389loPI   PO4 6212   3.005  12.785  10.011 -0.0240  0.1085  0.0038
  389loPI   GL1 6213   2.873  12.825   9.694  0.1424 -0.2460 -0.1618
  389loPI   GL2 6214   2.668  12.507   9.805  0.0177 -0.4405  0.0770
  389loPI   C1A 6215   2.941  12.777   9.123  0.1008  0.0915 -0.1663
  389loPI   C2A 6216   2.949  12.808   8.707  0.0073  0.2374  0.1980
  389loPI   C3A 6217   2.934  12.807   8.335  0.0269  0.1852 -0.1267
  389loPI   C4A 6218   2.848  13.169   8.036 -0.1190 -0.2822 -0.2283
  389loPI   C5A 6219   2.571  13.431   7.836 -0.2468  0.0962 -0.0248
  389loPI   C6A 6220   2.209  13.775   7.874 -0.0727 -0.0043  0.0625
  389loPI   C1B 6221   2.612  12.458   9.416  0.0916  0.0110  0.0260
  389loPI   C2B 6222   2.698  12.330   8.898  0.3868  0.0751  0.0918
  389loPI   C3B 6223   2.820  12.295   8.409 -0.0826  0.1505  0.3532
  389loPI   C4B 6224   3.046  12.371   7.987  0.2434  0.0722  0.2081
  390loPI    C1 6225   3.690   7.221  10.574  0.1095  0.0463  0.0623
  390loPI    C2 6226   3.646   6.840  10.688  0.2038 -0.0026 -0.0622
  390loPI    C3 6227   3.837   7.099  10.925  0.1930 -0.0474 -0.0045
  390loPI   PO4 6228   3.362   7.256  10.447 -0.0247  0.0039 -0.2724
  390loPI   GL1 6229   3.224   7.213  10.003 -0.2302 -0.2226 -0.0376
  390loPI   GL2 6230   3.024   6.977  10.035 -0.1122 -0.1508  0.1885
  390loPI   C1A 6231   3.400   7.117   9.689 -0.1260  0.2043  0.1951
  390loPI   C2A 6232   3.536   7.114   9.233  0.1332  0.1370 -0.0555
  390loPI   C3A 6233   3.487   6.889   8.939  0.2547 -0.2480 -0.0834
  390loPI   C4A 6234   3.191   6.749   8.603  0.0314  0.3459 -0.3523
  390loPI   C5A 6235   3.090   6.763   8.220 -0.3743  0.0689 -0.1306
  390loPI   C6A 6236   3.177   6.779   7.716 -0.3756 -0.0985  0.1037
  390loPI   C1B 6237   2.885   7.132   9.638 -0.5567 -0.3286  0.0339
  390loPI   C2B 6238   3.048   7.063   9.308  0.0272 -0.0252  0.0703
  390loPI   C3B 6239   2.959   7.014   8.916  0.2509 -0.0424  0.1129
  390loPI   C4B 6240   2.835   7.084   8.455  0.0606 -0.0585 -0.0273
  391loPI    C1 6241  17.520   2.103  10.653  0.0589  0.1460 -0.2988
  391loPI    C2 6242  17.910   2.025  10.694 -0.0368 -0.1063  0.2151
  391loPI    C3 6243  17.651   1.725  10.639 -0.1765  0.0481  0.0166
  391loPI   PO4 6244  17.500   2.265  10.509 -0.3244 -0.1370  0.1732
  391loPI   GL1 6245  17.653   2.482  10.110 -0.1258  0.1300  0.1576
  391loPI   GL2 6246  17.947   2.508   9.978 -0.0196  0.0117  0.0068
  391loPI   C1A 6247  17.634   2.360   9.625  0.0421 -0.0023 -0.1544
  391loPI   C2A 6248  17.648   2.414   9.188  0.1483 -0.1293  0.2846
  391loPI   C3A 6249  17.714   2.628   8.798  0.0383  0.2028 -0.0492
  391loPI   C4A 6250  17.796   3.071   8.711  0.0328 -0.1174 -0.0694
  391loPI   C5A 6251  17.590   3.439   8.701  0.0061 -0.2494  0.2463
  391loPI   C6A 6252  17.609   3.822   8.506 -0.3073 -0.5486 -0.0497
  391loPI   C1B 6253  18.222   2.596   9.635 -0.0717 -0.2332  0.3268
  391loPI   C2B 6254  18.238   2.862   9.234 -0.0953  0.1289 -0.5080
  391loPI   C3B 6255  18.313   2.995   8.793  0.1206 -0.0444 -0.0418
  391loPI   C4B 6256  18.395   3.056   8.382  0.3839 -0.1570  0.1144
  392loPI    C1 6257   0.112   0.090  10.440 -0.0059 -0.1828 -0.0409
  392loPI    C2 6258   0.042   0.267  10.792 -0.0789  0.0198 -0.1558
  392loPI    C3 6259   0.358   0.025  10.749 -0.1294 -0.0897  0.0779
  392loPI   PO4 6260  -0.197  -0.066  10.407  0.1446 -0.3605  0.1174
  392loPI   GL1 6261  -0.265   0.015   9.935  0.0974 -0.2901  0.2392
  392loPI   GL2 6262  -0.197  -0.261   9.835 -0.0306 -0.0823 -0.2243
  392loPI   C1A 6263  -0.076   0.155   9.585 -0.2017  0.0124  0.0092
  392loPI   C2A 6264   0.065   0.234   9.161 -0.0432  0.1378  0.2489
  392loPI   C3A 6265   0.021   0.285   8.693 -0.0467 -0.3593 -0.2352
  392loPI   C4A 6266   0.195   0.447   8.355  0.0469  0.0299  0.0666
  392loPI   C5A 6267   0.486   0.399   8.018 -0.0178 -0.1473  0.0613
  392loPI   C6A 6268   0.498   0.744   7.809 -0.0405 -0.0029 -0.1743
  392loPI   C1B 6269  -0.223  -0.192   9.306  0.0718  0.0936  0.0005
  392loPI   C2B 6270  -0.177  -0.079   8.925 -0.2179  0.2258  0.1419
  392loPI   C3B 6271  -0.069  -0.152   8.515  0.2116 -0.3562  0.0258
  392loPI   C4B 6272   0.161   0.009   8.110 -0.2977  0.3231  0.3183
  393loPI    C1 6273   2.016   9.715  10.236  0.1268  0.2791 -0.1032
  393loPI    C2 6274   1.991   9.507  10.577  0.0039  0.0611 -0.2431
  393loPI    C3 6275   2.128   9.883  10.582 -0.0012  0.0615  0.0464
  393loPI   PO4 6276   1.994   9.569  10.055  0.3778  0.0765  0.2566
  393loPI   GL1 6277   2.094   9.418   9.677 -0.0187 -0.1096  0.1629
  393loPI   GL2 6278   2.190   9.139   9.844 -0.3478  0.2126  0.0047
  393loPI   C1A 6279   2.214   9.455   9.222  0.0000 -0.2951  0.1426
  393loPI   C2A 6280   2.175   9.614   8.800  0.1185  0.1356 -0.2422
  393loPI   C3A 6281   2.164   9.653   8.379  0.1845  0.0534  0.2246
  393loPI   C4A 6282   2.007   9.904   8.074 -0.1474 -0.0383  0.1481
  393loPI   C5A 6283   2.079  10.391   7.988  0.3289 -0.0935  0.0402
  393loPI   C6A 6284   1.809  10.775   7.762  0.0912 -0.1090 -0.3956
  393loPI   C1B 6285   2.163   8.969   9.444  0.2260  0.0298  0.3437
  393loPI   C2B 6286   2.161   8.897   9.051 -0.2196  0.2073 -0.0753
  393loPI   C3B 6287   2.122   8.656   8.698  0.1812 -0.3581  0.0523
  393loPI   C4B 6288   1.989   8.552   8.310  0.2793  0.1440 -0.2142
  394loPI    C1 6289  17.830   3.530  10.887  0.0024 -0.0029 -0.1717
  394loPI    C2 6290  17.651   3.721  11.189  0.2715  0.1703 -0.1176
  394loPI    C3 6291  17.683   3.322  11.196 -0.0337  0.1438 -0.0893
  394loPI   PO4 6292  17.822   3.784  10.708  0.2131 -0.1137  0.0253
  394loPI   GL1 6293  17.873   3.987  10.378  0.1897 -0.2529  0.2339
  394loPI   GL2 6294  18.149   3.922  10.300 -0.2557 -0.0447  0.1201
  394loPI   C1A 6295  17.606   4.064  10.018  0.0359 -0.1721 -0.0745
  394loPI   C2A 6296  17.654   4.250   9.615 -0.0509  0.0656 -0.1394
  394loPI   C3A 6297  17.601   4.304   9.172  0.1678  0.0392  0.0643
  394loPI   C4A 6298  17.509   4.345   8.733 -0.0542  0.1517  0.0722
  394loPI   C5A 6299  17.443   4.322   8.290 -0.0270 -0.0673 -0.0880
  394loPI   C6A 6300  17.365   4.384   7.841  0.0010 -0.3098  0.0375
  394loPI   C1B 6301  18.053   3.996   9.858  0.0218  0.0342  0.2736
  394loPI   C2B 6302  18.083   4.026   9.373 -0.1198 -0.1823  0.2849
  394loPI   C3B 6303  18.001   4.114   8.948 -0.0785  0.0483 -0.1890
  394loPI   C4B 6304  17.985   4.202   8.510 -0.0648 -0.1180 -0.2399
  395loPI    C1 6305  12.124  17.729  10.409  0.0005 -0.0855 -0.2797
  395loPI    C2 6306  11.762  17.626  10.274 -0.1378  0.1664 -0.1109
  395loPI    C3 6307  12.000  17.350  10.439 -0.1914 -0.0299 -0.3552
  395loPI   PO4 6308  12.173  17.895  10.175  0.0182 -0.0478  0.0772
  395loPI   GL1 6309  12.372  18.158   9.902  0.0640  0.1319 -0.4584
  395loPI   GL2 6310  12.639  17.998   9.647 -0.3625 -0.0671  0.1300
  395loPI   C1A 6311  12.185  18.164   9.481  0.0545 -0.4099 -0.2565
  395loPI   C2A 6312  12.201  18.230   9.017  0.1995  0.0848 -0.1271
  395loPI   C3A 6313  12.496  18.210   8.760  0.0540 -0.1111 -0.0964
  395loPI   C4A 6314  12.612  18.091   8.469  0.1331  0.1757 -0.0732
  395loPI   C5A 6315  12.471  18.013   8.078  0.0999  0.1678 -0.1400
  395loPI   C6A 6316  12.291  18.291   7.641 -0.2044 -0.2063 -0.0199
  395loPI   C1B 6317  12.733  18.170   9.279 -0.2638  0.0728  0.1705
  395loPI   C2B 6318  12.891  18.343   8.967  0.1213  0.2921 -0.0896
  395loPI   C3B 6319  12.992  18.466   8.575  0.0149 -0.0044  0.1202
  395loPI   C4B 6320  13.009  18.605   8.113 -0.3453  0.1487 -0.0013
  396loPI    C1 6321  13.968  14.064  10.033  0.0176 -0.1042  0.1277
  396loPI    C2 6322  13.697  14.339   9.926  0.1089 -0.0344  0.0739
  396loPI    C3 6323  13.768  14.267  10.314  0.0341 -0.0327  0.0880
  396loPI   PO4 6324  13.863  13.860   9.919  0.0542 -0.3493 -0.2233
  396loPI   GL1 6325  13.599  13.970   9.551 -0.0645  0.0279  0.0404
  396loPI   GL2 6326  13.314  14.074   9.448  0.0912 -0.3035 -0.2537
  396loPI   C1A 6327  13.679  13.615   9.285  0.2375 -0.1204 -0.1821
  396loPI   C2A 6328  13.687  13.556   8.952 -0.0846 -0.1456  0.0833
  396loPI   C3A 6329  13.840  13.539   8.554  0.1774  0.1742 -0.1847
  396loPI   C4A 6330  13.890  13.490   8.063  0.1542  0.3199 -0.3223
  396loPI   C5A 6331  13.955  13.703   7.707 -0.0990 -0.1548 -0.0175
  396loPI   C6A 6332  14.164  14.112   7.634 -0.2651  0.3967  0.1515
  396loPI   C1B 6333  13.358  13.940   8.994  0.0416  0.0682 -0.1927
  396loPI   C2B 6334  13.413  13.903   8.629 -0.3538 -0.0542 -0.1435
  396loPI   C3B 6335  13.534  13.885   8.178 -0.0400  0.1327 -0.1367
  396loPI   C4B 6336  13.479  13.798   7.721 -0.1285  0.1408 -0.0115
  397loPI    C1 6337  18.448   7.084  10.569  0.0734  0.1445  0.0362
  397loPI    C2 6338  18.082   7.198  10.682  0.0396  0.0889 -0.0161
  397loPI    C3 6339  18.295   6.951  10.914  0.0393  0.1118  0.0086
  397loPI   PO4 6340  18.423   7.239  10.354  0.0637  0.3580  0.4845
  397loPI   GL1 6341  18.400   7.381   9.940  0.0925  0.0504  0.2879
  397loPI   GL2 6342  18.729   7.551  10.010  0.0495  0.1419  0.4953
  397loPI   C1A 6343  18.298   7.229   9.490 -0.0227 -0.1045 -0.0398
  397loPI   C2A 6344  18.284   7.282   9.090 -0.1532  0.1686 -0.2539
  397loPI   C3A 6345  18.086   7.195   8.757  0.0245  0.0457 -0.1915
  397loPI   C4A 6346  18.173   7.336   8.316  0.1449 -0.0264  0.0563
  397loPI   C5A 6347  18.348   7.322   7.900  0.0770  0.0321  0.2070
  397loPI   C6A 6348  18.502   7.013   7.533 -0.0046  0.0970  0.2740
  397loPI   C1B 6349  18.632   7.707   9.659  0.2624 -0.1870 -0.0499
  397loPI   C2B 6350  18.692   7.666   9.241  0.0474  0.4400  0.1147
  397loPI   C3B 6351  18.705   7.641   8.879 -0.0320  0.5571  0.2256
  397loPI   C4B 6352  18.766   7.782   8.467  0.0145 -0.0844 -0.3229
  398loPI    C1 6353  13.917   0.078  10.265 -0.2694  0.2256 -0.1686
  398loPI    C2 6354  13.975  -0.281  10.098  0.4467  0.2890 -0.0867
  398loPI    C3 6355  13.628  -0.090  10.046  0.1053 -0.3475 -0.2457
  398loPI   PO4 6356  14.156   0.160  10.133 -0.0156 -0.2846  0.0738
  398loPI   GL1 6357  14.222   0.233   9.664  0.1889 -0.2637 -0.3253
  398loPI   GL2 6358  13.860   0.264   9.702 -0.1346 -0.2379  0.1263
  398loPI   C1A 6359  14.492   0.378   9.352 -0.0133 -0.0957 -0.0182
  398loPI   C2A 6360  14.537   0.387   8.961  0.0987 -0.0540 -0.2983
  398loPI   C3A 6361  14.689   0.740   8.653 -0.1162  0.0074  0.0390
  398loPI   C4A 6362  14.895   1.117   8.503  0.3926  0.0569 -0.1424
  398loPI   C5A 6363  14.928   1.466   8.255  0.0289  0.1805 -0.1041
  398loPI   C6A 6364  14.880   1.459   7.807 -0.1872 -0.3298 -0.0088
  398loPI   C1B 6365  13.739   0.302   9.301  0.2236 -0.0275  0.0198
  398loPI   C2B 6366  13.712   0.420   8.795 -0.3459  0.0208  0.2454
  398loPI   C3B 6367  13.859   0.505   8.391  0.2477  0.3097 -0.0077
  398loPI   C4B 6368  14.025   0.383   8.042  0.2659  0.2002  0.0685
  399loPI    C1 6369   4.164   8.741  10.432 -0.1569 -0.0061  0.0090
  399loPI    C2 6370   4.303   8.818  10.799  0.0556  0.0503 -0.0819
  399loPI    C3 6371   3.983   8.583  10.752  0.0815 -0.0301  0.1340
  399loPI   PO4 6372   4.179   8.918  10.319 -0.4974  0.1564 -0.0465
  399loPI   GL1 6373   4.286   8.804   9.934 -0.2067  0.1712  0.1819
  399loPI   GL2 6374   4.605   8.745  10.008  0.0859  0.0359 -0.2027
  399loPI   C1A 6375   4.324   8.548   9.604  0.0498 -0.0897 -0.2243
  399loPI   C2A 6376   4.498   8.303   9.285  0.2497 -0.3077 -0.1337
  399loPI   C3A 6377   4.540   8.045   8.830  0.1911 -0.0476 -0.2547
  399loPI   C4A 6378   4.640   7.769   8.507  0.1016 -0.0343 -0.1526
  399loPI   C5A 6379   4.986   7.608   8.311 -0.5808 -0.2776 -0.0267
  399loPI   C6A 6380   5.384   7.529   8.592 -0.0021  0.1925 -0.0969
  399loPI   C1B 6381   4.855   8.582   9.756 -0.3644 -0.2970  0.0039
  399loPI   C2B 6382   4.923   8.546   9.356 -0.1526  0.3152  0.1623
  399loPI   C3B 6383   4.837   8.488   8.837  0.0111 -0.1499 -0.0064
  399loPI   C4B 6384   4.800   8.371   8.351  0.0607 -0.4284  0.1308
  400loPI    C1 6385  15.670  10.528  10.477  0.0211 -0.3239  0.0503
  400loPI    C2 6386  15.742  10.558  10.869  0.1014 -0.0312  0.0157
  400loPI    C3 6387  15.911  10.264  10.657  0.1957 -0.0880  0.1678
  400loPI   PO4 6388  15.522  10.749  10.286  0.0876  0.0432 -0.3081
  400loPI   GL1 6389  15.585  10.871   9.960  0.0534  0.2425  0.2158
  400loPI   GL2 6390  15.707  10.634   9.869  0.3481  0.3458 -0.0142
  400loPI   C1A 6391  15.334  10.831   9.624  0.1280 -0.0874  0.0767
  400loPI   C2A 6392  15.393  10.729   9.205 -0.3031 -0.2434 -0.0913
  400loPI   C3A 6393  15.469  10.632   8.841  0.1585  0.1644 -0.3167
  400loPI   C4A 6394  15.580  10.449   8.434 -0.1547 -0.0083 -0.2794
  400loPI   C5A 6395  15.729  10.516   8.020 -0.0835  0.1033 -0.0704
  400loPI   C6A 6396  15.776  10.356   7.547 -0.0490  0.0412  0.5283
  400loPI   C1B 6397  15.787  10.473   9.494  0.0045  0.1010  0.1081
  400loPI   C2B 6398  15.896  10.530   9.030 -0.1583  0.0191  0.2870
  400loPI   C3B 6399  16.003  10.652   8.608 -0.0098 -0.0353  0.1094
  400loPI   C4B 6400  16.184  10.368   8.331  0.0214  0.1226 -0.0086
  401loPI    C1 6401  11.771  15.034  10.109  0.0290 -0.0526 -0.0892
  401loPI    C2 6402  11.372  15.050  10.083  0.0256 -0.0986 -0.0691
  401loPI    C3 6403  11.544  14.851  10.383  0.0638  0.0089 -0.0190
  401loPI   PO4 6404  11.863  15.084   9.861 -0.0519 -0.2151 -0.0868
  401loPI   GL1 6405  11.796  15.144   9.437 -0.0157 -0.0718 -0.0561
  401loPI   GL2 6406  11.650  14.820   9.231 -0.0614  0.0056  0.0152
  401loPI   C1A 6407  11.681  15.359   9.030  0.3111  0.3824  0.1504
  401loPI   C2A 6408  11.625  15.402   8.626 -0.0176  0.0524  0.1765
  401loPI   C3A 6409  11.555  15.329   8.210  0.1574 -0.0616 -0.0318
  401loPI   C4A 6410  11.466  15.329   7.743 -0.1013 -0.1010  0.1469
  401loPI   C5A 6411  11.460  15.394   7.249  0.1064 -0.0490  0.0170
  401loPI   C6A 6412  11.764  15.323   6.846  0.1652  0.1044 -0.0030
  401loPI   C1B 6413  11.684  14.893   8.751  0.4797  0.3040 -0.6047
  401loPI   C2B 6414  11.842  14.935   8.336  0.2870  0.0110 -0.1119
  401loPI   C3B 6415  11.838  15.064   7.909 -0.0037 -0.0817  0.1872
  401loPI   C4B 6416  11.991  14.951   7.563 -0.2318  0.2030  0.1743
  402loPI    C1 6417   3.106   5.549  10.648 -0.3561  0.0160 -0.1055
  402loPI    C2 6418   2.779   5.638  10.861 -0.1394 -0.1129  0.2917
  402loPI    C3 6419   3.129   5.581  11.046  0.0720 -0.1594 -0.1109
  402loPI   PO4 6420   2.911   5.450  10.378  0.1253 -0.4960 -0.0740
  402loPI   GL1 6421   3.051   5.497   9.961  0.1346 -0.3460 -0.1503
  402loPI   GL2 6422   3.188   5.345   9.876 -0.1122  0.2611  0.0757
  402loPI   C1A 6423   2.926   5.762   9.637 -0.1474 -0.0057 -0.3306
  402loPI   C2A 6424   2.673   5.921   9.272 -0.2123 -0.2802 -0.0907
  402loPI   C3A 6425   2.611   6.008   8.873 -0.0993  0.0862  0.0302
  402loPI   C4A 6426   2.286   5.808   8.531 -0.1141  0.1325 -0.1624
  402loPI   C5A 6427   2.140   5.850   8.093 -0.0852 -0.0444  0.2802
  402loPI   C6A 6428   2.218   6.093   7.737 -0.2186  0.0240 -0.0413
  402loPI   C1B 6429   3.285   5.116   9.492 -0.3271 -0.0252  0.1513
  402loPI   C2B 6430   3.041   4.889   9.159 -0.0333 -0.0113 -0.0745
  402loPI   C3B 6431   2.898   4.772   8.777  0.0446 -0.1636 -0.0527
  402loPI   C4B 6432   2.934   4.770   8.308  0.0181 -0.2588  0.1902
  403loPI    C1 6433   9.887   9.080  10.376 -0.0919  0.1974  0.1915
  403loPI    C2 6434   9.979   8.823  10.669 -0.2135 -0.0530  0.0138
  403loPI    C3 6435   9.921   9.210  10.753  0.1184 -0.0529  0.2618
  403loPI   PO4 6436  10.025   8.937  10.067 -0.1398 -0.0927 -0.1992
  403loPI   GL1 6437   9.969   8.635   9.735 -0.0512 -0.0824 -0.1292
  403loPI   GL2 6438  10.201   8.431   9.792  0.1300 -0.3388 -0.1391
  403loPI   C1A 6439   9.988   8.346   9.348 -0.1729 -0.0641 -0.1032
  403loPI   C2A 6440   9.911   8.269   8.972  0.1685 -0.2939  0.1907
  403loPI   C3A 6441   9.776   8.090   8.617 -0.1221  0.2869  0.0450
  403loPI   C4A 6442   9.887   8.017   8.182 -0.3063  0.0592 -0.0707
  403loPI   C5A 6443   9.750   7.707   7.807 -0.2078 -0.1823 -0.1681
  403loPI   C6A 6444   9.338   7.627   7.666  0.0346 -0.0074 -0.1285
  403loPI   C1B 6445  10.455   8.176   9.696 -0.4484  0.2600 -0.2541
  403loPI   C2B 6446  10.378   7.944   9.434  0.5244  0.1564  0.1675
  403loPI   C3B 6447  10.226   7.816   9.050  0.1748  0.3947  0.1923
  403loPI   C4B 6448  10.111   7.757   8.660  0.1543  0.0286 -0.1017
  404loPI    C1 6449  16.166  16.778   9.802 -0.2429  0.1342  0.1939
  404loPI    C2 6450  16.109  16.783  10.198 -0.1577 -0.1651  0.2126
  404loPI    C3 6451  16.275  16.463  10.024 -0.1238 -0.0043 -0.0562
  404loPI   PO4 6452  15.977  16.793   9.676 -0.0470 -0.0214 -0.3821
  404loPI   GL1 6453  15.824  16.873   9.367  0.0938 -0.3327  0.0244
  404loPI   GL2 6454  15.677  17.155   9.424  0.0339 -0.1206  0.0537
  404loPI   C1A 6455  15.804  16.982   8.952  0.2184 -0.1711  0.0483
  404loPI   C2A 6456  15.699  16.963   8.553 -0.1366 -0.1535  0.1426
  404loPI   C3A 6457  15.627  17.105   8.167  0.3455 -0.0085 -0.3226
  404loPI   C4A 6458  15.812  17.099   7.809  0.0482  0.3086  0.1214
  404loPI   C5A 6459  16.057  16.944   7.455  0.1054  0.1551 -0.0759
  404loPI   C6A 6460  16.456  16.691   7.198  0.1515 -0.3673 -0.2778
  404loPI   C1B 6461  15.338  17.119   9.211 -0.1312 -0.0574  0.0807
  404loPI   C2B 6462  15.349  17.233   8.796  0.1723 -0.1124 -0.1143
  404loPI   C3B 6463  15.382  17.402   8.463 -0.0102 -0.0400  0.2330
  404loPI   C4B 6464  15.403  17.676   7.985 -0.0950  0.4896 -0.0332
  405loPI    C1 6465  11.593   6.223  10.437 -0.0007  0.0573 -0.0330
  405loPI    C2 6466  11.506   6.048  10.786 -0.0276 -0.1641 -0.1488
  405loPI    C3 6467  11.660   6.417  10.780 -0.0933 -0.1310  0.0934
  405loPI   PO4 6468  11.441   6.026  10.245  0.1220  0.3863 -0.2198
  405loPI   GL1 6469  11.535   6.015   9.751 -0.0148  0.4127  0.0260
  405loPI   GL2 6470  11.280   5.930   9.786 -0.0009  0.4374 -0.1229
  405loPI   C1A 6471  11.810   5.840   9.472  0.2987 -0.2567 -0.3368
  405loPI   C2A 6472  11.999   5.926   9.094 -0.1202  0.1598  0.0889
  405loPI   C3A 6473  12.180   6.083   8.727 -0.1283 -0.4346  0.1288
  405loPI   C4A 6474  12.048   6.206   8.365  0.1396 -0.1011 -0.1594
  405loPI   C5A 6475  11.932   6.300   7.937  0.1844 -0.0227 -0.0995
  405loPI   C6A 6476  12.014   6.322   7.494  0.0397 -0.2604 -0.0260
  405loPI   C1B 6477  11.264   5.910   9.357 -0.0979 -0.0746  0.0628
  405loPI   C2B 6478  11.518   5.791   9.018 -0.2349 -0.0976 -0.1386
  405loPI   C3B 6479  11.750   5.817   8.546 -0.1666  0.1241  0.0074
  405loPI   C4B 6480  12.010   5.389   8.440  0.0036  0.3812 -0.1545
  406POPI    C1 6481   7.853  10.512  10.602  0.0934  0.0066 -0.0833
  406POPI    C2 6482   7.573  10.237  10.523  0.3502 -0.2607 -0.0790
  406POPI    C3 6483   7.779  10.220  10.866  0.5693 -0.2358 -0.2077
  406POPI   PO4 6484   7.957  10.518  10.337 -0.0887 -0.0199  0.0727
  406POPI   GL1 6485   7.677  10.514   9.997 -0.3133 -0.0589 -0.4072
  406POPI   GL2 6486   7.495  10.206  10.002 -0.0886  0.0263 -0.1680
  406POPI   C1A 6487   7.658  10.549   9.590 -0.2894  0.0004  0.1581
  406POPI   D2A 6488   7.421  10.465   9.312 -0.3438  0.1611 -0.1520
  406POPI   C3A 6489   7.633  10.532   8.957 -0.0024 -0.0655  0.2152
  406POPI   C4A 6490   7.828  10.434   8.601 -0.0446 -0.1261  0.1099
  406POPI   C1B 6491   7.202  10.127   9.627 -0.4136 -0.0918  0.1179
  406POPI   C2B 6492   7.142  10.112   9.142 -0.2024 -0.4703  0.1958
  406POPI   C3B 6493   7.290  10.295   8.734  0.1317 -0.0889  0.0096
  406POPI   C4B 6494   7.298  10.582   8.373 -0.1100  0.2132 -0.2002
  407POPI    C1 6495   5.175   4.883  10.470  0.2648  0.2545 -0.2144
  407POPI    C2 6496   5.478   5.005  10.701  0.0433  0.0884  0.1745
  407POPI    C3 6497   5.438   5.149  10.330  0.5579  0.1599  0.1399
  407POPI   PO4 6498   5.215   4.690  10.377  0.1978  0.1635 -0.1401
  407POPI   GL1 6499   5.302   4.616   9.877  0.1487 -0.2338  0.1839
  407POPI   GL2 6500   5.541   4.833   9.794  0.1219 -0.0788  0.2995
  407POPI   C1A 6501   5.535   4.550   9.452  0.0207  0.1265 -0.2934
  407POPI   D2A 6502   5.564   4.586   9.049  0.0888 -0.0402 -0.1802
  407POPI   C3A 6503   5.431   4.819   8.750  0.0108  0.0762 -0.1844
  407POPI   C4A 6504   5.321   5.054   8.442  0.0879 -0.0816 -0.0803
  407POPI   C1B 6505   5.596   5.031   9.388 -0.2317 -0.0099 -0.3066
  407POPI   C2B 6506   5.634   5.152   9.013 -0.2433  0.0414  0.1667
  407POPI   C3B 6507   5.928   4.977   8.841  0.2764 -0.1280 -0.0591
  407POPI   C4B 6508   5.957   4.925   8.468  0.2800  0.4881 -0.2219
  408POPI    C1 6509   5.168  15.605  10.568 -0.0130 -0.0143  0.0609
  408POPI    C2 6510   5.416  15.293  10.534 -0.0252  0.0113 -0.3080
  408POPI    C3 6511   5.562  15.665  10.538 -0.0215  0.0086 -0.0083
  408POPI   PO4 6512   4.947  15.499  10.339  0.0220  0.2383 -0.0411
  408POPI   GL1 6513   4.886  15.509   9.892  0.3126  0.2126  0.1155
  408POPI   GL2 6514   4.639  15.566   9.580 -0.0251  0.1806 -0.0679
  408POPI   C1A 6515   5.007  15.354   9.349  0.1723  0.1351  0.0048
  408POPI   D2A 6516   5.055  15.448   8.934 -0.0273  0.1440 -0.0635
  408POPI   C3A 6517   5.415  15.379   8.651 -0.2144 -0.0172 -0.3657
  408POPI   C4A 6518   5.747  15.138   8.590 -0.5383  0.0624 -0.1008
  408POPI   C1B 6519   4.696  15.709   9.183  0.0457  0.2095  0.2027
  408POPI   C2B 6520   4.765  15.821   8.701  0.3007 -0.0101  0.1319
  408POPI   C3B 6521   4.652  15.942   8.232 -0.4095  0.3553  0.1687
  408POPI   C4B 6522   4.710  15.942   7.772 -0.2413 -0.0149  0.0850
  409POPI    C1 6523  13.317  10.273   9.862  0.1736 -0.0249  0.1817
  409POPI    C2 6524  12.987  10.430   9.699  0.2873 -0.1416 -0.1703
  409POPI    C3 6525  12.957  10.186  10.015  0.0313 -0.2037 -0.2403
  409POPI   PO4 6526  13.452  10.290   9.708 -0.1393 -0.0402 -0.3050
  409POPI   GL1 6527  13.536  10.530   9.295  0.2906  0.0937 -0.0709
  409POPI   GL2 6528  13.747  10.335   9.342  0.1365 -0.1246 -0.3227
  409POPI   C1A 6529  13.781  10.574   8.889  0.0788  0.0679 -0.2583
  409POPI   D2A 6530  13.679  10.644   8.542 -0.1383 -0.2969  0.2239
  409POPI   C3A 6531  13.925  10.499   8.247  0.1021 -0.1880  0.3330
  409POPI   C4A 6532  14.095  10.148   8.003  0.1307 -0.3147  0.1079
  409POPI   C1B 6533  13.956  10.104   9.014  0.1752 -0.0127  0.2712
  409POPI   C2B 6534  14.182  10.119   8.693  0.0243 -0.0803  0.2164
  409POPI   C3B 6535  14.310   9.781   8.473  0.1027 -0.2648  0.3611
  409POPI   C4B 6536  14.174   9.682   8.102 -0.1156 -0.0913  0.1226
  410POPI    C1 6537   1.811   0.357  10.488 -0.1003 -0.2893 -0.0950
  410POPI    C2 6538   1.831   0.092  10.786 -0.0237 -0.1007  0.0701
  410POPI    C3 6539   1.902   0.479  10.858 -0.1824 -0.0269 -0.1588
  410POPI   PO4 6540   2.014   0.246  10.330 -0.0940  0.1420  0.2990
  410POPI   GL1 6541   2.114   0.115   9.930  0.1723  0.1240 -0.0105
  410POPI   GL2 6542   1.857  -0.124   9.900 -0.1301  0.1099 -0.1502
  410POPI   C1A 6543   2.329   0.104   9.574  0.3018  0.1214  0.0588
  410POPI   D2A 6544   2.324  -0.163   9.301  0.3208 -0.1839  0.2360
  410POPI   C3A 6545   2.302   0.025   8.933  0.3825  0.0405  0.0441
  410POPI   C4A 6546   2.419   0.192   8.517  0.1564  0.1259  0.2366
  410POPI   C1B 6547   1.800  -0.053   9.499 -0.0181  0.0292  0.3004
  410POPI   C2B 6548   1.841  -0.050   9.102  0.0700  0.1617 -0.0492
  410POPI   C3B 6549   1.933  -0.049   8.649 -0.0204 -0.0833 -0.3896
  410POPI   C4B 6550   2.055  -0.178   8.317  0.0578 -0.0771 -0.0685
  411POPI    C1 6551   6.074   4.198  10.355  0.1646 -0.0430 -0.0418
  411POPI    C2 6552   6.434   4.254  10.520  0.1218 -0.0266  0.0472
  411POPI    C3 6553   6.110   4.419  10.687  0.0451 -0.2170  0.0893
  411POPI   PO4 6554   6.043   4.221  10.141 -0.2740 -0.3197  0.1693
  411POPI   GL1 6555   6.056   4.509   9.688 -0.0974 -0.0363  0.1530
  411POPI   GL2 6556   6.394   4.329   9.835  0.1261 -0.1140  0.3020
  411POPI   C1A 6557   6.025   4.387   9.269  0.2480  0.0328 -0.3055
  411POPI   D2A 6558   6.062   4.325   8.826  0.2390  0.3381 -0.0617
  411POPI   C3A 6559   5.705   4.396   8.570 -0.1127 -0.0121 -0.1870
  411POPI   C4A 6560   5.432   4.536   8.308 -0.0647 -0.0686 -0.1697
  411POPI   C1B 6561   6.444   4.288   9.499  0.2151  0.2695 -0.0079
  411POPI   C2B 6562   6.453   4.320   9.096 -0.0445  0.1504  0.3441
  411POPI   C3B 6563   6.531   4.247   8.616  0.2471  0.0931  0.0628
  411POPI   C4B 6564   6.682   4.510   8.228  0.0026  0.2758 -0.0217
  412POPI    C1 6565   7.278   4.580  10.657 -0.3334 -0.0819  0.0151
  412POPI    C2 6566   6.916   4.409  10.658 -0.3196 -0.1127 -0.1264
  412POPI    C3 6567   7.112   4.464  11.003 -0.3607 -0.3041 -0.0710
  412POPI   PO4 6568   7.265   4.566  10.319 -0.1593 -0.0278  0.2349
  412POPI   GL1 6569   7.202   4.810   9.878 -0.1122 -0.2514 -0.1011
  412POPI   GL2 6570   6.934   4.666   9.759 -0.4454  0.3137  0.0959
  412POPI   C1A 6571   7.351   4.842   9.510 -0.0159  0.3891  0.0818
  412POPI   D2A 6572   7.259   4.574   9.186  0.0012 -0.1591  0.2052
  412POPI   C3A 6573   7.221   4.763   8.785  0.3561 -0.1816 -0.1407
  412POPI   C4A 6574   7.270   4.865   8.339  0.1333 -0.0752  0.0448
  412POPI   C1B 6575   6.780   4.621   9.328  0.2711  0.2416  0.1058
  412POPI   C2B 6576   6.634   4.752   8.849 -0.4107  0.2125 -0.3178
  412POPI   C3B 6577   6.344   4.686   8.675  0.2041 -0.0115  0.0144
  412POPI   C4B 6578   6.188   4.570   8.253 -0.1633  0.1556 -0.0085
  413POPI    C1 6579  11.412   9.627  10.053 -0.0267 -0.0434 -0.0468
  413POPI    C2 6580  11.670   9.507  10.334 -0.3450 -0.3414  0.1262
  413POPI    C3 6581  11.482   9.858  10.372 -0.0220 -0.1546  0.0333
  413POPI   PO4 6582  11.520   9.534   9.843 -0.0637  0.0558 -0.0767
  413POPI   GL1 6583  11.794   9.533   9.430 -0.3534 -0.0600 -0.0283
  413POPI   GL2 6584  11.576   9.901   9.417  0.2424  0.0865  0.0468
  413POPI   C1A 6585  11.911   9.354   9.109  0.1859 -0.0352  0.4815
  413POPI   D2A 6586  12.082   9.147   8.747  0.1444  0.1645 -0.2521
  413POPI   C3A 6587  12.066   9.053   8.311 -0.0267  0.1672  0.0266
  413POPI   C4A 6588  12.277   8.940   7.923 -0.2164  0.1358 -0.0929
  413POPI   C1B 6589  11.524   9.663   8.992  0.0019  0.1230  0.1668
  413POPI   C2B 6590  11.222   9.446   8.745  0.1025 -0.0090  0.2512
  413POPI   C3B 6591  11.004   9.283   8.379 -0.2370 -0.1171 -0.2353
  413POPI   C4B 6592  10.807   9.059   8.017  0.2818 -0.0870  0.1867
  414POPI    C1 6593  17.488   9.441  10.684  0.0862 -0.0241  0.0696
  414POPI    C2 6594  17.133   9.259  10.658  0.0831  0.0092 -0.1334
  414POPI    C3 6595  17.433   9.085  10.858 -0.0301 -0.0449 -0.0093
  414POPI   PO4 6596  17.519   9.490  10.405  0.1961 -0.1821  0.0785
  414POPI   GL1 6597  17.557   9.417  10.036 -0.0849  0.2577 -0.0381
  414POPI   GL2 6598  17.873   9.417   9.868 -0.1010 -0.0246  0.1068
  414POPI   C1A 6599  17.438   9.221   9.630 -0.1517 -0.0889 -0.1240
  414POPI   D2A 6600  17.411   9.029   9.265  0.1197  0.0262  0.0660
  414POPI   C3A 6601  17.190   9.142   8.937  0.1416  0.0355 -0.0974
  414POPI   C4A 6602  17.120   9.251   8.453  0.2789 -0.0787  0.1721
  414POPI   C1B 6603  17.974   9.634   9.588  0.0084  0.0103  0.2101
  414POPI   C2B 6604  18.130   9.634   9.125 -0.1864 -0.1711 -0.0517
  414POPI   C3B 6605  17.981   9.888   8.809 -0.1527  0.1020 -0.0354
  414POPI   C4B 6606  17.796  10.018   8.332  0.1026 -0.0662 -0.0402
  415POPI    C1 6607   8.244   6.337  10.394  0.0539  0.2611 -0.0145
  415POPI    C2 6608   8.338   6.303  10.781 -0.0073  0.3852  0.0118
  415POPI    C3 6609   7.962   6.238  10.660  0.0021  0.3909 -0.0205
  415POPI   PO4 6610   8.508   6.552  10.342  0.1763  0.0717  0.1602
  415POPI   GL1 6611   8.753   6.725  10.027  0.0760 -0.3009 -0.1659
  415POPI   GL2 6612   8.696   6.557   9.739 -0.1287 -0.0885  0.0090
  415POPI   C1A 6613   8.774   7.064   9.876 -0.2855  0.0464  0.2398
  415POPI   D2A 6614   9.124   7.362   9.754 -0.4177 -0.4442 -0.0560
  415POPI   C3A 6615   9.517   7.290   9.587 -0.0147  0.1428  0.2719
  415POPI   C4A 6616   9.538   7.207   9.174  0.0006  0.0705  0.1318
  415POPI   C1B 6617   8.794   6.532   9.350  0.2023 -0.0346  0.0918
  415POPI   C2B 6618   8.821   6.575   8.992 -0.2303  0.0816 -0.2465
  415POPI   C3B 6619   8.717   6.869   8.668  0.2211 -0.0378  0.0929
  415POPI   C4B 6620   8.541   6.959   8.259 -0.2484 -0.1677 -0.3553
  416POPI    C1 6621   8.719   3.182  10.504 -0.0867  0.0653 -0.2503
  416POPI    C2 6622   8.720   2.782  10.517 -0.3614  0.0683 -0.0485
  416POPI    C3 6623   8.990   2.990  10.727 -0.1072 -0.0110 -0.2908
  416POPI   PO4 6624   8.702   3.276  10.220  0.5387 -0.2690 -0.1124
  416POPI   GL1 6625   9.028   3.414   9.947 -0.2467  0.1361 -0.0056
  416POPI   GL2 6626   9.079   3.183   9.744  0.1341 -0.3565 -0.1153
  416POPI   C1A 6627   8.790   3.633   9.598 -0.1845  0.2624  0.3223
  416POPI   D2A 6628   8.790   3.692   9.119  0.1734  0.1030  0.0511
  416POPI   C3A 6629   8.772   3.563   8.720  0.1676 -0.0390 -0.5490
  416POPI   C4A 6630   8.647   3.389   8.253 -0.0190  0.0665 -0.1957
  416POPI   C1B 6631   9.064   3.275   9.340  0.1497 -0.2716 -0.0600
  416POPI   C2B 6632   9.118   3.249   8.830 -0.0377 -0.1416 -0.0742
  416POPI   C3B 6633   9.145   3.245   8.337 -0.0212  0.1020 -0.0499
  416POPI   C4B 6634   9.045   3.207   7.924 -0.0521 -0.0250  0.1347
  417POPI    C1 6635  17.657   8.555  10.375  0.1059 -0.2684 -0.0463
  417POPI    C2 6636  17.899   8.670  10.672  0.0678  0.0479 -0.1329
  417POPI    C3 6637  17.509   8.616  10.742  0.1446 -0.3948 -0.0092
  417POPI   PO4 6638  17.749   8.603  10.197 -0.0871  0.2099  0.1294
  417POPI   GL1 6639  17.732   8.241   9.939 -0.1241  0.4018 -0.3552
  417POPI   GL2 6640  17.414   7.972   9.961  0.1250  0.2127  0.4415
  417POPI   C1A 6641  18.066   8.229   9.597 -0.1177  0.0326  0.2132
  417POPI   D2A 6642  18.498   8.149   9.499  0.1594  0.1245  0.1402
  417POPI   C3A 6643  18.464   8.047   9.005  0.1252  0.0012  0.1734
  417POPI   C4A 6644  18.359   8.120   8.573  0.1879  0.0175 -0.0612
  417POPI   C1B 6645  17.121   8.132   9.601 -0.0003 -0.1048  0.1232
  417POPI   C2B 6646  17.044   7.979   9.192  0.1493 -0.2026  0.2341
  417POPI   C3B 6647  17.028   7.784   8.833  0.2755 -0.2466  0.0626
  417POPI   C4B 6648  17.300   7.602   8.482  0.0201 -0.0215  0.2768
  418POPI    C1 6649   9.839   7.722  10.300 -0.0311 -0.2879 -0.0696
  418POPI    C2 6650   9.551   7.667  10.571  0.0512 -0.0460  0.0699
  418POPI    C3 6651   9.913   7.509  10.630  0.0736  0.0196  0.1101
  418POPI   PO4 6652   9.711   7.633  10.063  0.0953 -0.1435 -0.1136
  418POPI   GL1 6653   9.972   7.350   9.770 -0.2255 -0.2654  0.2337
  418POPI   GL2 6654  10.144   7.659   9.798  0.1657  0.2299 -0.1111
  418POPI   C1A 6655  10.153   7.403   9.326 -0.1444  0.0783  0.0743
  418POPI   D2A 6656  10.288   7.301   8.830 -0.0982 -0.2790  0.3723
  418POPI   C3A 6657  10.107   7.133   8.476  0.0333  0.1139  0.1122
  418POPI   C4A 6658   9.759   7.009   8.257  0.0371 -0.0339 -0.3422
  418POPI   C1B 6659   9.831   7.826   9.481 -0.1101 -0.1426 -0.1235
  418POPI   C2B 6660   9.713   7.706   8.992  0.2238 -0.2465 -0.2858
  418POPI   C3B 6661   9.794   7.410   8.787 -0.0094 -0.3550  0.1380
  418POPI   C4B 6662   9.522   7.095   8.685 -0.1196 -0.0268  0.3199
  419POPI    C1 6663  12.524   4.763  10.838  0.1849  0.1322 -0.1877
  419POPI    C2 6664  12.701   5.051  11.051  0.0898 -0.0116  0.0908
  419POPI    C3 6665  12.685   4.678  11.194  0.0608 -0.1199 -0.1894
  419POPI   PO4 6666  12.697   4.790  10.615 -0.1219  0.2057 -0.0167
  419POPI   GL1 6667  12.731   5.070  10.195  0.2107  0.1786 -0.2856
  419POPI   GL2 6668  12.905   5.314   9.974  0.2717 -0.0558 -0.1144
  419POPI   C1A 6669  12.427   5.390  10.097 -0.0500  0.2492  0.0578
  419POPI   D2A 6670  12.097   5.577   9.919 -0.0438 -0.2067 -0.5110
  419POPI   C3A 6671  12.194   5.963   9.708 -0.1086  0.0368 -0.0055
  419POPI   C4A 6672  12.260   6.237   9.381 -0.0522 -0.0148 -0.0927
  419POPI   C1B 6673  12.776   5.441   9.564  0.1705 -0.0329 -0.0106
  419POPI   C2B 6674  12.619   5.228   9.216 -0.0169 -0.0120 -0.6563
  419POPI   C3B 6675  12.588   5.019   8.874  0.0231 -0.1491  0.0807
  419POPI   C4B 6676  12.542   4.963   8.473  0.1238  0.1702 -0.5063
  420POPI    C1 6677  16.848   7.198  11.037 -0.1637 -0.0258  0.0583
  420POPI    C2 6678  16.578   7.174  11.331 -0.1704 -0.0275  0.0521
  420POPI    C3 6679  16.827   7.486  11.314 -0.0098 -0.1459  0.1970
  420POPI   PO4 6680  16.680   7.141  10.739  0.3180 -0.0519  0.0051
  420POPI   GL1 6681  16.734   7.111  10.298 -0.0855  0.2183 -0.0364
  420POPI   GL2 6682  17.006   7.249  10.209  0.1477  0.0213 -0.1609
  420POPI   C1A 6683  16.843   7.006   9.812  0.2855 -0.0881  0.1549
  420POPI   D2A 6684  16.697   6.931   9.425 -0.0269 -0.0217  0.2737
  420POPI   C3A 6685  16.805   7.247   9.283  0.1564 -0.0966  0.1287
  420POPI   C4A 6686  17.135   7.417   9.342  0.1217  0.3650 -0.1146
  420POPI   C1B 6687  16.858   7.537   9.853 -0.1092  0.0724  0.0007
  420POPI   C2B 6688  16.707   7.758   9.561 -0.1834  0.0523 -0.3304
  420POPI   C3B 6689  16.611   7.695   9.150 -0.0307 -0.0811 -0.0624
  420POPI   C4B 6690  16.646   7.433   8.821  0.1769 -0.0942  0.2473
  421POPI    C1 6691   9.295   0.787  10.227 -0.2158 -0.0183 -0.1854
  421POPI    C2 6692   9.483   0.459  10.360 -0.0341 -0.0081 -0.4105
  421POPI    C3 6693   9.086   0.494  10.403  0.0368  0.0721  0.2793
  421POPI   PO4 6694   9.391   0.829  10.002  0.1504  0.1471  0.0131
  421POPI   GL1 6695   9.517   0.625   9.630  0.1090 -0.4333 -0.1645
  421POPI   GL2 6696   9.166   0.574   9.524  0.0680  0.1294  0.4929
  421POPI   C1A 6697   9.614   0.618   9.217 -0.2566 -0.1077  0.2774
  421POPI   D2A 6698   9.457   0.541   8.820  0.4732  0.0448  0.0357
  421POPI   C3A 6699   9.590   0.802   8.402 -0.3836  0.0656  0.0335
  421POPI   C4A 6700   9.816   0.732   7.965 -0.1530 -0.0427 -0.0129
  421POPI   C1B 6701   9.042   0.688   9.134  0.0392  0.1170 -0.2878
  421POPI   C2B 6702   8.979   0.698   8.702  0.2216 -0.0012  0.4052
  421POPI   C3B 6703   8.806   0.400   8.356 -0.2565 -0.1439 -0.2029
  421POPI   C4B 6704   8.930   0.189   7.954  0.1533 -0.0826 -0.0322
  422POPI    C1 6705   5.382  11.100  10.574 -0.0716  0.0519 -0.0353
  422POPI    C2 6706   5.167  11.434  10.526 -0.1547 -0.0385 -0.3083
  422POPI    C3 6707   4.983  11.085  10.590 -0.0677 -0.0336 -0.0159
  422POPI   PO4 6708   5.498  11.028  10.408  0.0496 -0.0393  0.1865
  422POPI   GL1 6709   5.611  10.928   9.952  0.1519  0.2582 -0.1534
  422POPI   GL2 6710   5.540  10.707   9.997  0.0375  0.6057 -0.0335
  422POPI   C1A 6711   5.481  10.817   9.510 -0.2502  0.3014  0.1468
  422POPI   D2A 6712   5.431  10.899   9.027 -0.0069 -0.2137 -0.1261
  422POPI   C3A 6713   5.434  10.624   8.708 -0.0291 -0.1069 -0.0511
  422POPI   C4A 6714   5.310  10.152   8.575 -0.1207  0.1875 -0.0345
  422POPI   C1B 6715   5.130  10.619   9.843  0.1384  0.1021 -0.1358
  422POPI   C2B 6716   5.027  10.409   9.518  0.0383  0.0747 -0.1122
  422POPI   C3B 6717   5.179  10.272   9.153 -0.0516 -0.1520 -0.3154
  422POPI   C4B 6718   4.953  10.363   8.794  0.1668  0.1943 -0.2349
  423POPI    C1 6719   3.850  11.273  10.551  0.0365 -0.0166  0.0133
  423POPI    C2 6720   3.891  11.669  10.513  0.3432 -0.0595 -0.1354
  423POPI    C3 6721   4.156  11.461  10.727  0.3319 -0.2183 -0.2731
  423POPI   PO4 6722   3.833  11.203  10.326 -0.3881  0.2716 -0.0727
  423POPI   GL1 6723   4.006  11.239   9.866 -0.3962 -0.1929  0.1184
  423POPI   GL2 6724   3.759  11.221   9.791  0.2438  0.1635 -0.0871
  423POPI   C1A 6725   4.161  11.499   9.445  0.0264 -0.0996 -0.2225
  423POPI   D2A 6726   4.346  11.535   9.026 -0.0539  0.0151 -0.1803
  423POPI   C3A 6727   4.201  11.285   8.672 -0.0937  0.1584 -0.3833
  423POPI   C4A 6728   4.383  10.955   8.340  0.1117  0.2268  0.1811
  423POPI   C1B 6729   3.757  11.012   9.426 -0.1474  0.2562  0.1169
  423POPI   C2B 6730   3.834  10.871   9.006  0.0972  0.0648 -0.0624
  423POPI   C3B 6731   3.934  10.792   8.562 -0.2232  0.0244 -0.1312
  423POPI   C4B 6732   3.933  10.727   8.101  0.2087  0.2319 -0.1530
  424POPI    C1 6733   5.559   7.995  10.476 -0.2126 -0.3228 -0.3632
  424POPI    C2 6734   5.736   7.694  10.281 -0.0186 -0.1671 -0.4300
  424POPI    C3 6735   5.931   7.885  10.574 -0.1734 -0.1621 -0.3292
  424POPI   PO4 6736   5.299   7.920  10.346  0.1898 -0.3081 -0.1621
  424POPI   GL1 6737   5.259   7.918   9.976  0.1185 -0.0448 -0.1082
  424POPI   GL2 6738   5.275   8.208   9.948  0.2156 -0.0862 -0.1984
  424POPI   C1A 6739   5.645   7.846   9.716  0.0726 -0.0734 -0.0217
  424POPI   D2A 6740   5.490   7.763   9.290 -0.1138  0.1240  0.0655
  424POPI   C3A 6741   5.506   7.899   8.910  0.2523  0.2877  0.2133
  424POPI   C4A 6742   5.707   8.041   8.534 -0.1687 -0.2314  0.1339
  424POPI   C1B 6743   5.201   8.148   9.475 -0.0134 -0.2571  0.0819
  424POPI   C2B 6744   5.078   8.048   9.029  0.1728  0.0636 -0.1531
  424POPI   C3B 6745   4.967   7.726   8.859 -0.1684  0.2078 -0.1342
  424POPI   C4B 6746   4.999   7.239   8.770  0.1312  0.1844 -0.1455
  425POPI    C1 6747  15.116   9.160  10.285  0.0319 -0.0669  0.0136
  425POPI    C2 6748  15.503   9.065  10.315  0.0615  0.0174 -0.0915
  425POPI    C3 6749  15.307   9.204  10.634  0.1583  0.1231 -0.0772
  425POPI   PO4 6750  15.096   9.237  10.057 -0.2334 -0.1514 -0.0568
  425POPI   GL1 6751  15.152   9.441   9.705 -0.2568 -0.1815  0.0763
  425POPI   GL2 6752  15.384   9.476   9.506  0.0970 -0.2867 -0.2815
  425POPI   C1A 6753  14.864   9.186   9.406  0.1198  0.0211  0.1687
  425POPI   D2A 6754  14.679   9.350   9.067  0.0590 -0.0390 -0.1879
  425POPI   C3A 6755  14.810   9.392   8.693  0.0725  0.0694  0.2116
  425POPI   C4A 6756  15.053   9.286   8.334  0.0055  0.0333  0.2677
  425POPI   C1B 6757  15.611   9.381   9.121 -0.2000  0.2318  0.1573
  425POPI   C2B 6758  16.007   9.194   8.976  0.1648 -0.0680  0.3384
  425POPI   C3B 6759  16.243   9.189   8.535  0.1575 -0.0462  0.0530
  425POPI   C4B 6760  16.247   9.121   8.164  0.1225 -0.0306 -0.0564
  426POPI    C1 6761  17.835   0.930  10.554  0.0427  0.2530 -0.0714
  426POPI    C2 6762  18.216   0.991  10.656  0.0284  0.1199  0.0656
  426POPI    C3 6763  17.969   1.302  10.609  0.1210  0.1998  0.1034
  426POPI   PO4 6764  17.801   0.834  10.389 -0.1653 -0.4480  0.0682
  426POPI   GL1 6765  17.447   0.817  10.082  0.0108 -0.0277  0.0569
  426POPI   GL2 6766  17.161   0.859   9.929 -0.1895  0.0090  0.2051
  426POPI   C1A 6767  17.586   0.807   9.704  0.1108 -0.0424  0.0453
  426POPI   D2A 6768  17.959   0.886   9.540 -0.1515 -0.0902 -0.0485
  426POPI   C3A 6769  18.052   0.956   9.117  0.1622  0.0841 -0.1247
  426POPI   C4A 6770  17.982   1.080   8.689  0.2707  0.1706 -0.1314
  426POPI   C1B 6771  17.161   0.844   9.497  0.2134 -0.0237 -0.2516
  426POPI   C2B 6772  17.114   0.651   9.058 -0.2322 -0.2312 -0.0285
  426POPI   C3B 6773  17.179   0.883   8.597 -0.2169  0.0445  0.0752
  426POPI   C4B 6774  17.017   1.159   8.270 -0.4247  0.1071  0.0441
  427POPI    C1 6775   0.192   8.762  10.624  0.3238 -0.0863  0.2603
  427POPI    C2 6776  -0.148   8.705  10.421  0.4412 -0.3350  0.1285
  427POPI    C3 6777  -0.094   8.524  10.773  0.1765  0.2124  0.4653
  427POPI   PO4 6778   0.407   8.712  10.426  0.1975 -0.0332 -0.1746
  427POPI   GL1 6779   0.294   8.807  10.086  0.3181 -0.0342 -0.2050
  427POPI   GL2 6780   0.185   9.015   9.909 -0.1495  0.1817  0.0665
  427POPI   C1A 6781   0.248   8.607   9.718 -0.0634 -0.0417 -0.0980
  427POPI   D2A 6782   0.131   8.536   9.181 -0.1241  0.1890 -0.1126
  427POPI   C3A 6783   0.331   8.487   8.802 -0.1017 -0.1169  0.1325
  427POPI   C4A 6784   0.382   8.269   8.443 -0.0719 -0.0242 -0.1541
  427POPI   C1B 6785   0.342   9.030   9.405 -0.0880 -0.1883  0.0379
  427POPI   C2B 6786   0.473   8.961   8.984  0.0078  0.0634  0.0463
  427POPI   C3B 6787   0.474   9.012   8.603 -0.0908  0.3304 -0.0568
  427POPI   C4B 6788   0.356   8.764   8.293 -0.1138 -0.2346  0.1442
  428POPI    C1 6789   0.653   5.350  10.885 -0.0560  0.2243 -0.0147
  428POPI    C2 6790   0.891   5.465  11.185  0.1335  0.1304 -0.1268
  428POPI    C3 6791   0.723   5.102  11.190 -0.1476  0.2591  0.0349
  428POPI   PO4 6792   0.750   5.419  10.705 -0.2221  0.0179 -0.2079
  428POPI   GL1 6793   0.611   5.312  10.272 -0.1143 -0.2296 -0.2238
  428POPI   GL2 6794   0.325   5.485  10.331  0.0602  0.1416  0.1773
  428POPI   C1A 6795   0.529   5.739   9.906  0.0892 -0.1123  0.1450
  428POPI   D2A 6796   0.248   6.071   9.707 -0.3518  0.2409 -0.0918
  428POPI   C3A 6797   0.263   6.123   9.180 -0.1059 -0.1745  0.2057
  428POPI   C4A 6798   0.090   6.290   8.834 -0.0359 -0.3427 -0.0383
  428POPI   C1B 6799   0.270   5.277   9.902 -0.3267  0.1478 -0.1090
  428POPI   C2B 6800   0.363   5.163   9.490 -0.0560  0.0966 -0.2395
  428POPI   C3B 6801   0.389   5.256   9.080  0.0821  0.1207 -0.1922
  428POPI   C4B 6802   0.573   5.325   8.712  0.0152 -0.3998 -0.0704
  429POPI    C1 6803   1.273  16.560  10.461  0.1372  0.3340  0.5087
  429POPI    C2 6804   1.025  16.773  10.230  0.2622 -0.0515  0.0014
  429POPI    C3 6805   1.060  16.860  10.619 -0.1973  0.4043 -0.0485
  429POPI   PO4 6806   1.485  16.557  10.391  0.2931 -0.1385  0.1402
  429POPI   GL1 6807   1.482  16.723   9.968  0.0506  0.0520 -0.0600
  429POPI   GL2 6808   1.787  16.446  10.027  0.2838  0.1066  0.0034
  429POPI   C1A 6809   1.906  16.992   9.830  0.1671  0.1230 -0.0796
  429POPI   D2A 6810   1.999  17.312   9.512  0.2418  0.1366 -0.1182
  429POPI   C3A 6811   1.996  17.182   9.184 -0.0128  0.1708 -0.3282
  429POPI   C4A 6812   1.874  17.211   8.758  0.1624  0.1857 -0.1799
  429POPI   C1B 6813   1.765  16.570   9.528 -0.3833  0.0204 -0.4363
  429POPI   C2B 6814   1.837  16.723   9.083  0.2506  0.3199 -0.0752
  429POPI   C3B 6815   1.999  16.707   8.685  0.3760  0.0025  0.0086
  429POPI   C4B 6816   1.846  16.957   8.311  0.1850  0.0263  0.1821
  430POPI    C1 6817   2.118  11.213  10.723 -0.1507  0.2412 -0.0441
  430POPI    C2 6818   1.776  11.117  10.906 -0.0810  0.0441 -0.0156
  430POPI    C3 6819   2.127  11.008  11.066 -0.0158 -0.0263 -0.2037
  430POPI   PO4 6820   2.132  11.253  10.475 -0.1667 -0.3087 -0.0997
  430POPI   GL1 6821   2.046  11.299  10.037 -0.1358  0.0039  0.0115
  430POPI   GL2 6822   1.814  11.449   9.869 -0.0646 -0.0370  0.0234
  430POPI   C1A 6823   2.303  11.489   9.722  0.0796 -0.0277 -0.1918
  430POPI   D2A 6824   2.373  11.728   9.389  0.2377  0.1664  0.0235
  430POPI   C3A 6825   2.337  11.591   9.059 -0.1732  0.6439  0.0463
  430POPI   C4A 6826   2.364  11.797   8.671  0.1789  0.0603 -0.4880
  430POPI   C1B 6827   1.711  11.446   9.472  0.0305  0.0618 -0.0959
  430POPI   C2B 6828   1.861  11.385   9.020  0.0847 -0.1479 -0.1828
  430POPI   C3B 6829   1.906  11.533   8.645 -0.2927 -0.1838 -0.2520
  430POPI   C4B 6830   2.311  11.504   8.240 -0.1035  0.1685  0.0870
  431POPI    C1 6831   2.692   4.699  10.463 -0.1397  0.3772  0.1687
  431POPI    C2 6832   2.595   4.737  10.850  0.1974  0.0641  0.2906
  431POPI    C3 6833   2.898   4.499  10.742  0.0284  0.0505 -0.1798
  431POPI   PO4 6834   2.510   4.632  10.242 -0.4132 -0.1140  0.0060
  431POPI   GL1 6835   2.471   4.178  10.074 -0.1147 -0.1584 -0.1914
  431POPI   GL2 6836   2.659   4.439   9.768 -0.0248 -0.2232  0.0114
  431POPI   C1A 6837   2.338   4.152   9.592 -0.0589  0.1065  0.0879
  431POPI   D2A 6838   2.358   4.069   9.211 -0.1524 -0.2305 -0.0126
  431POPI   C3A 6839   2.156   4.182   8.767 -0.0766  0.1419 -0.0092
  431POPI   C4A 6840   1.927   4.296   8.314  0.2744  0.0006  0.2957
  431POPI   C1B 6841   2.635   4.548   9.322 -0.1431  0.2342  0.1393
  431POPI   C2B 6842   2.393   4.542   8.999 -0.2008 -0.1045  0.0366
  431POPI   C3B 6843   2.469   4.607   8.547  0.1699  0.0184  0.0528
  431POPI   C4B 6844   2.504   4.845   8.191 -0.3738  0.1364 -0.0179
  432POPI    C1 6845   9.473   5.237  10.438 -0.1437 -0.0241 -0.0276
  432POPI    C2 6846   9.431   5.289  10.833  0.1037  0.0831 -0.0135
  432POPI    C3 6847   9.683   5.011  10.693  0.2816  0.2833 -0.0951
  432POPI   PO4 6848   9.231   5.235  10.378  0.3699 -0.0749  0.0754
  432POPI   GL1 6849   9.054   5.081  10.002  0.0074 -0.0223  0.1833
  432POPI   GL2 6850   8.776   5.077   9.748 -0.1021  0.1676  0.1191
  432POPI   C1A 6851   9.298   5.079   9.547  0.2069 -0.1476 -0.0571
  432POPI   D2A 6852   9.676   5.109   9.316 -0.0138 -0.2008 -0.1481
  432POPI   C3A 6853   9.689   4.833   8.825  0.0879 -0.4951  0.3339
  432POPI   C4A 6854   9.894   4.831   8.419  0.1673 -0.2058 -0.0028
  432POPI   C1B 6855   8.855   5.082   9.339  0.0893 -0.2085 -0.0819
  432POPI   C2B 6856   8.759   4.955   8.990  0.4138 -0.0725  0.0766
  432POPI   C3B 6857   8.626   4.750   8.553  0.0055 -0.0786 -0.0434
  432POPI   C4B 6858   8.620   4.555   8.273  0.1355  0.0021  0.0507
  433POPI    C1 6859  15.455   3.926  10.863  0.2195  0.0395  0.0960
  433POPI    C2 6860  15.216   4.148  11.096  0.0184 -0.2688  0.1900
  433POPI    C3 6861  15.614   4.187  11.121 -0.0125  0.0153  0.2666
  433POPI   PO4 6862  15.407   3.914  10.589 -0.1891  0.2106 -0.2783
  433POPI   GL1 6863  15.555   4.058  10.233 -0.2649 -0.2310  0.0639
  433POPI   GL2 6864  15.303   4.190  10.195  0.0233 -0.1604  0.2296
  433POPI   C1A 6865  15.725   4.001   9.839 -0.0443 -0.0508 -0.1808
  433POPI   D2A 6866  15.662   4.227   9.324  0.0116 -0.1384 -0.1730
  433POPI   C3A 6867  15.839   4.243   8.913 -0.1771  0.0249 -0.1283
  433POPI   C4A 6868  16.057   4.303   8.612 -0.3423 -0.0657  0.0550
  433POPI   C1B 6869  15.375   4.352   9.738 -0.2406  0.0198  0.0477
  433POPI   C2B 6870  15.256   4.479   9.431 -0.0807  0.3036 -0.2392
  433POPI   C3B 6871  15.418   4.530   9.011 -0.1056 -0.0855  0.2102
  433POPI   C4B 6872  15.547   4.471   8.594 -0.0646 -0.0355 -0.3692
  434POPI    C1 6873  13.609   1.278  10.552  0.1939  0.1554 -0.1402
  434POPI    C2 6874  13.522   1.426  10.914 -0.1003 -0.2532 -0.0364
  434POPI    C3 6875  13.890   1.288  10.837 -0.1337 -0.4998  0.2300
  434POPI   PO4 6876  13.543   1.498  10.411 -0.0620  0.1714  0.2140
  434POPI   GL1 6877  13.269   1.468  10.187 -0.0402 -0.1701 -0.0426
  434POPI   GL2 6878  13.360   1.794   9.992  0.0871 -0.2252 -0.0146
  434POPI   C1A 6879  13.109   1.026  10.101  0.1437  0.0970 -0.1393
  434POPI   D2A 6880  12.737   0.855   9.830  0.0778  0.0548 -0.1224
  434POPI   C3A 6881  12.422   1.099   9.755  0.2368  0.3222  0.0638
  434POPI   C4A 6882  12.319   1.400  10.115  0.1715 -0.7161 -0.1490
  434POPI   C1B 6883  13.061   1.870   9.504 -0.3832 -0.1599  0.3073
  434POPI   C2B 6884  12.894   1.962   9.156 -0.1879  0.2346  0.0947
  434POPI   C3B 6885  12.892   2.137   8.676 -0.3980 -0.0168  0.0237
  434POPI   C4B 6886  13.036   2.307   8.389  0.1682 -0.2336  0.1226
  435POPI    C1 6887   0.607  11.410  10.406  0.2251  0.2789 -0.1720
  435POPI    C2 6888   0.443  11.665  10.666  0.0845  0.0769 -0.0596
  435POPI    C3 6889   0.814  11.530  10.727  0.0290 -0.0184  0.0716
  435POPI   PO4 6890   0.485  11.522  10.146  0.1379 -0.2304 -0.0497
  435POPI   GL1 6891   0.373  11.819   9.771 -0.4389  0.2951 -0.0759
  435POPI   GL2 6892   0.337  11.465   9.675 -0.0940  0.2736  0.2003
  435POPI   C1A 6893   0.254  11.765   9.266  0.1210  0.1108  0.2005
  435POPI   D2A 6894   0.053  11.795   8.855 -0.0202 -0.1035 -0.1741
  435POPI   C3A 6895  -0.127  11.711   8.448 -0.0644  0.2415  0.0535
  435POPI   C4A 6896  -0.336  11.705   8.087 -0.0780 -0.0825  0.0917
  435POPI   C1B 6897   0.397  11.317   9.223 -0.0194 -0.0589  0.1417
  435POPI   C2B 6898   0.388  11.426   8.812 -0.1464  0.3356 -0.0797
  435POPI   C3B 6899   0.231  11.228   8.480  0.1778 -0.0699 -0.0649
  435POPI   C4B 6900  -0.141  11.098   8.343 -0.1520  0.0500  0.1808
  436POPI    C1 6901   8.409  17.762   9.966  0.1141 -0.0528 -0.0796
  436POPI    C2 6902   8.686  18.036  10.054  0.0460  0.0670 -0.2334
  436POPI    C3 6903   8.368  17.990  10.292 -0.0429  0.2599 -0.3124
  436POPI   PO4 6904   8.364  17.730   9.635  0.0032  0.0317 -0.2578
  436POPI   GL1 6905   8.429  17.920   9.251 -0.3044  0.0003 -0.0501
  436POPI   GL2 6906   8.325  17.629   9.101  0.1232 -0.0554  0.2672
  436POPI   C1A 6907   8.632  17.941   8.873 -0.1930 -0.1294  0.0851
  436POPI   D2A 6908   8.682  17.981   8.449 -0.2109  0.4107 -0.0680
  436POPI   C3A 6909   8.649  17.780   8.090  0.0981  0.0714 -0.0808
  436POPI   C4A 6910   8.567  17.511   7.668 -0.1792  0.2467 -0.0526
  436POPI   C1B 6911   8.489  17.515   8.725 -0.0652 -0.0499  0.0343
  436POPI   C2B 6912   8.521  17.253   8.343 -0.1821  0.1680  0.0358
  436POPI   C3B 6913   8.671  17.110   7.936 -0.0678 -0.3738 -0.0659
  436POPI   C4B 6914   8.864  16.997   7.532 -0.0055 -0.0566  0.3588
  437POPI    C1 6915  14.342  10.420  10.149  0.2411 -0.1309 -0.1628
  437POPI    C2 6916  14.250  10.654  10.461 -0.2223 -0.0581 -0.3465
  437POPI    C3 6917  14.244  10.256  10.501 -0.0995 -0.0475 -0.2153
  437POPI   PO4 6918  14.536  10.473  10.076  0.0735 -0.1857  0.4459
  437POPI   GL1 6919  14.728  10.393   9.740 -0.2002  0.3081 -0.1436
  437POPI   GL2 6920  14.827  10.705   9.692  0.1079  0.0805  0.2746
  437POPI   C1A 6921  14.945  10.238   9.282  0.3913  0.1305  0.1631
  437POPI   D2A 6922  14.994  10.230   8.954 -0.0739 -0.3300 -0.0751
  437POPI   C3A 6923  15.136  10.154   8.660 -0.3007  0.1218 -0.1992
  437POPI   C4A 6924  15.121  10.210   8.257 -0.1978  0.0154  0.3200
  437POPI   C1B 6925  14.820  10.702   9.215 -0.1555 -0.0939 -0.0607
  437POPI   C2B 6926  14.995  10.732   8.794  0.0574 -0.0997 -0.2154
  437POPI   C3B 6927  14.991  10.659   8.345 -0.2215 -0.1638 -0.0441
  437POPI   C4B 6928  15.287  10.710   8.014  0.0527 -0.1225 -0.1602
  438POPI    C1 6929  12.896  12.215   9.602 -0.1634 -0.1239  0.1155
  438POPI    C2 6930  12.979  11.824   9.596 -0.0756 -0.1031 -0.1139
  438POPI    C3 6931  13.112  12.052   9.896 -0.1885 -0.2613  0.0586
  438POPI   PO4 6932  12.704  12.252   9.553  0.0691 -0.1242  0.2024
  438POPI   GL1 6933  12.550  12.334   9.147 -0.1606  0.2514  0.2393
  438POPI   GL2 6934  12.831  12.121   9.087 -0.0790 -0.0776  0.0968
  438POPI   C1A 6935  12.546  12.298   8.676  0.3668 -0.0832  0.1902
  438POPI   D2A 6936  12.388  12.347   8.285 -0.0338  0.1889  0.2012
  438POPI   C3A 6937  12.638  12.160   8.008 -0.0304  0.0514  0.2103
  438POPI   C4A 6938  12.785  12.048   7.580 -0.1659 -0.1184  0.2962
  438POPI   C1B 6939  12.902  11.995   8.689 -0.0631  0.0529  0.1189
  438POPI   C2B 6940  12.951  11.938   8.316 -0.1169  0.0288  0.2422
  438POPI   C3B 6941  13.158  11.850   7.859 -0.1496  0.1379  0.1689
  438POPI   C4B 6942  13.106  11.561   7.447  0.2600  0.2876 -0.4156
  439POPI    C1 6943   4.385  16.627  10.267 -0.0672 -0.0054 -0.0727
  439POPI    C2 6944   4.329  16.305  10.037 -0.0278 -0.2328  0.2309
  439POPI    C3 6945   4.446  16.262  10.417 -0.0202  0.1414  0.2744
  439POPI   PO4 6946   4.426  16.819  10.057  0.0959  0.2066  0.0812
  439POPI   GL1 6947   4.480  16.633   9.678  0.2358  0.2446 -0.0647
  439POPI   GL2 6948   4.193  16.568   9.524  0.1499  0.1410  0.2164
  439POPI   C1A 6949   4.682  16.533   9.339  0.4989 -0.2608  0.2321
  439POPI   D2A 6950   4.624  16.607   8.930 -0.0126 -0.1697  0.1982
  439POPI   C3A 6951   4.514  16.413   8.424  0.2024  0.0780  0.2393
  439POPI   C4A 6952   4.346  16.305   8.008 -0.1052 -0.1439 -0.1560
  439POPI   C1B 6953   4.164  16.604   9.111 -0.2128 -0.2033  0.0735
  439POPI   C2B 6954   4.165  16.598   8.698  0.0749 -0.1574  0.4147
  439POPI   C3B 6955   4.178  16.755   8.276  0.3138 -0.2195  0.2171
  439POPI   C4B 6956   4.068  17.039   8.105  0.3057  0.4634  0.0525
  440POPI    C1 6957  16.280   5.656  10.594 -0.0815  0.0865 -0.1108
  440POPI    C2 6958  16.500   5.865  10.333  0.3351 -0.1115  0.0726
  440POPI    C3 6959  16.643   5.787  10.699 -0.0061 -0.3227  0.1653
  440POPI   PO4 6960  16.054   5.774  10.485  0.2174 -0.0155 -0.3264
  440POPI   GL1 6961  15.993   5.926  10.066 -0.0832 -0.2125  0.1597
  440POPI   GL2 6962  15.903   6.170  10.174  0.3350 -0.0886  0.3797
  440POPI   C1A 6963  15.957   5.955   9.528 -0.0062  0.1057  0.1884
  440POPI   D2A 6964  15.999   6.009   9.067 -0.0498 -0.2239 -0.1818
  440POPI   C3A 6965  16.152   5.776   8.712  0.2074 -0.2847 -0.3534
  440POPI   C4A 6966  16.349   5.641   8.345 -0.0496 -0.0556 -0.1729
  440POPI   C1B 6967  15.889   6.433   9.739  0.2738  0.3459  0.0637
  440POPI   C2B 6968  15.830   6.385   9.312  0.3605  0.1401  0.1988
  440POPI   C3B 6969  15.875   6.461   8.927 -0.1057  0.0549  0.2982
  440POPI   C4B 6970  16.308   6.501   8.652  0.1480  0.2715  0.0217
  441POPI    C1 6971   0.372   3.616  10.862 -0.0407 -0.1395  0.0164
  441POPI    C2 6972   0.542   3.288  11.016  0.1936  0.1403  0.3709
  441POPI    C3 6973   0.154   3.363  11.082 -0.0033 -0.3313 -0.1635
  441POPI   PO4 6974   0.375   3.567  10.608  0.0700  0.0054  0.2608
  441POPI   GL1 6975   0.638   3.629  10.205  0.1957 -0.0643  0.0208
  441POPI   GL2 6976   0.500   3.398  10.161  0.1684 -0.1840  0.2111
  441POPI   C1A 6977   0.954   3.744   9.859  0.1883  0.0597 -0.1117
  441POPI   D2A 6978   0.921   3.826   9.402 -0.2701  0.2975  0.3327
  441POPI   C3A 6979   0.998   4.085   9.131  0.1557 -0.0343 -0.0352
  441POPI   C4A 6980   0.991   4.164   8.781  0.1434  0.0483 -0.0268
  441POPI   C1B 6981   0.550   3.338   9.810  0.4904 -0.1099  0.0583
  441POPI   C2B 6982   0.567   3.455   9.384 -0.2960  0.0830 -0.1373
  441POPI   C3B 6983   0.631   3.630   8.970  0.0064 -0.2216 -0.1092
  441POPI   C4B 6984   0.490   3.773   8.570  0.1439 -0.0519 -0.0268
  442POPI    C1 6985  13.289   2.372  10.731  0.1718 -0.2711  0.1501
  442POPI    C2 6986  13.018   2.116  10.875  0.0844 -0.2119  0.0920
  442POPI    C3 6987  13.200   2.373  11.121 -0.0165 -0.1554  0.1082
  442POPI   PO4 6988  13.180   2.517  10.545  0.2369 -0.0037 -0.0479
  442POPI   GL1 6989  12.991   2.786  10.281  0.3151 -0.3233 -0.4320
  442POPI   GL2 6990  12.941   2.583  10.044  0.0495 -0.2307 -0.2007
  442POPI   C1A 6991  13.066   3.169  10.023  0.0313 -0.2537 -0.1746
  442POPI   D2A 6992  13.374   3.343   9.756 -0.1657 -0.0661 -0.0273
  442POPI   C3A 6993  13.486   3.792   9.850  0.0084 -0.0197  0.0765
  442POPI   C4A 6994  13.489   4.139   9.586  0.1009 -0.1014 -0.0497
  442POPI   C1B 6995  12.702   2.836   9.800  0.0529 -0.0583  0.0215
  442POPI   C2B 6996  12.584   2.742   9.330  0.1208 -0.2074 -0.1738
  442POPI   C3B 6997  12.613   2.403   9.050 -0.0035 -0.0604  0.0199
  442POPI   C4B 6998  12.361   2.116   8.774  0.0514 -0.2790  0.1629
  443POPI    C1 6999  15.781   8.237  10.874  0.3679 -0.1097  0.2095
  443POPI    C2 7000  15.741   7.845  10.810  0.3375 -0.0695 -0.0261
  443POPI    C3 7001  15.600   8.007  11.147  0.0855 -0.2134 -0.0589
  443POPI   PO4 7002  15.892   8.310  10.558 -0.1115 -0.0571  0.2210
  443POPI   GL1 7003  16.164   8.375  10.302  0.0188  0.2791  0.0923
  443POPI   GL2 7004  16.497   8.420  10.290  0.0167 -0.1171 -0.1166
  443POPI   C1A 7005  15.849   8.072   9.972  0.0736 -0.2519  0.3713
  443POPI   D2A 7006  15.733   7.894   9.549 -0.3121 -0.2671 -0.2314
  443POPI   C3A 7007  15.586   7.986   9.219  0.0136 -0.2882  0.1364
  443POPI   C4A 7008  15.551   8.108   8.883 -0.3416  0.2500  0.2063
  443POPI   C1B 7009  16.375   8.027  10.061  0.2766  0.2354  0.0414
  443POPI   C2B 7010  16.255   7.763   9.733  0.2891  0.0866  0.1782
  443POPI   C3B 7011  16.116   7.797   9.303  0.0838  0.1947 -0.1966
  443POPI   C4B 7012  16.185   7.751   8.936 -0.1208  0.0547 -0.1980
  444POPI    C1 7013  13.941  16.458  10.487  0.1542 -0.0069  0.1447
  444POPI    C2 7014  13.629  16.213  10.533  0.1258 -0.0051 -0.0297
  444POPI    C3 7015  13.977  16.070  10.399  0.1651  0.0151  0.0501
  444POPI   PO4 7016  13.860  16.592  10.230 -0.1418 -0.2901  0.0879
  444POPI   GL1 7017  14.129  16.780   9.854  0.1284 -0.2621 -0.0101
  444POPI   GL2 7018  14.195  16.608   9.588  0.1781  0.1629  0.0651
  444POPI   C1A 7019  13.936  16.989   9.494  0.0864 -0.1127 -0.0656
  444POPI   D2A 7020  13.974  16.933   8.987  0.5319 -0.0450  0.2526
  444POPI   C3A 7021  13.704  16.617   8.712  0.0003 -0.0261 -0.1633
  444POPI   C4A 7022  13.492  16.287   8.757  0.0234  0.1285 -0.0574
  444POPI   C1B 7023  14.399  16.670   9.208  0.2745  0.0552  0.1182
  444POPI   C2B 7024  14.282  16.623   8.753  0.1107  0.2825 -0.0454
  444POPI   C3B 7025  14.175  16.647   8.268 -0.2829  0.0544 -0.0434
  444POPI   C4B 7026  14.150  16.576   7.856 -0.3425 -0.1690 -0.0741
  445POPI    C1 7027   3.131   2.141  10.677  0.0049  0.1787  0.0612
  445POPI    C2 7028   3.310   2.495  10.730  0.2213  0.0891 -0.0553
  445POPI    C3 7029   3.186   2.284  11.046 -0.1360  0.3802  0.0057
  445POPI   PO4 7030   3.269   2.078  10.396  0.1042 -0.2387 -0.0850
  445POPI   GL1 7031   3.007   2.192   9.903 -0.2551 -0.0157 -0.1939
  445POPI   GL2 7032   3.317   2.205   9.896  0.0100 -0.2416 -0.2656
  445POPI   C1A 7033   2.776   2.325   9.519 -0.0231 -0.3064 -0.0260
  445POPI   D2A 7034   2.671   2.351   9.183  0.0673 -0.0827 -0.2580
  445POPI   C3A 7035   2.624   2.090   8.788 -0.0300 -0.0461 -0.1692
  445POPI   C4A 7036   2.418   1.995   8.564 -0.1348  0.0252  0.2187
  445POPI   C1B 7037   3.266   2.249   9.460  0.4305  0.0756 -0.2707
  445POPI   C2B 7038   3.242   2.416   9.055  0.0712  0.1014 -0.0429
  445POPI   C3B 7039   2.993   2.451   8.772 -0.1277 -0.0751 -0.2276
  445POPI   C4B 7040   2.936   2.247   8.374 -0.1088 -0.1267  0.1841
  446POPI    C1 7041   5.175   1.112  10.421 -0.0673  0.2435  0.1116
  446POPI    C2 7042   5.485   1.355  10.493 -0.0920  0.2055  0.3528
  446POPI    C3 7043   5.391   1.067  10.755  0.0257 -0.1603  0.0035
  446POPI   PO4 7044   5.089   1.167  10.165  0.0181 -0.3486  0.0448
  446POPI   GL1 7045   4.943   0.867   9.903 -0.1566 -0.2072  0.0056
  446POPI   GL2 7046   5.238   0.746   9.897  0.0797 -0.0237 -0.1423
  446POPI   C1A 7047   4.713   0.747   9.501  0.1253 -0.1057 -0.1338
  446POPI   D2A 7048   4.526   0.818   9.126 -0.0828  0.1558 -0.0572
  446POPI   C3A 7049   4.401   0.731   8.698 -0.0629 -0.0574  0.2208
  446POPI   C4A 7050   4.299   0.933   8.367 -0.0155 -0.1168  0.4049
  446POPI   C1B 7051   5.202   0.685   9.496 -0.2276  0.0940  0.1915
  446POPI   C2B 7052   4.996   0.684   9.113  0.1592  0.4383  0.0690
  446POPI   C3B 7053   4.871   0.683   8.726 -0.0543  0.0884 -0.1469
  446POPI   C4B 7054   4.789   0.810   8.285 -0.0808  0.2868  0.0099
  447POPI    C1 7055   4.993   2.079  10.174  0.1630  0.1289 -0.0845
  447POPI    C2 7056   5.164   2.413  10.313  0.1017  0.1308 -0.0131
  447POPI    C3 7057   5.033   2.134  10.568  0.0373  0.1097 -0.0688
  447POPI   PO4 7058   5.184   1.980   9.999 -0.1406 -0.0107 -0.3718
  447POPI   GL1 7059   5.134   2.031   9.583  0.1713  0.0266 -0.0773
  447POPI   GL2 7060   5.058   1.757   9.541 -0.0136  0.0469  0.1894
  447POPI   C1A 7061   5.019   2.189   9.223  0.1089  0.5331 -0.3707
  447POPI   D2A 7062   4.817   2.170   8.762  0.1205 -0.0622 -0.2186
  447POPI   C3A 7063   4.444   2.126   8.563 -0.2950  0.1702 -0.1164
  447POPI   C4A 7064   4.105   1.944   8.447  0.0901 -0.1797  0.1360
  447POPI   C1B 7065   4.973   1.730   9.102  0.0827  0.0381  0.2138
  447POPI   C2B 7066   5.101   1.644   8.711  0.0850 -0.1646  0.2703
  447POPI   C3B 7067   5.348   1.576   8.365 -0.1672  0.0302  0.1695
  447POPI   C4B 7068   5.352   1.612   7.942  0.0024  0.0082  0.2195
  448POPI    C1 7069  10.613  10.920   9.757 -0.3018  0.1380 -0.1294
  448POPI    C2 7070  10.721  10.683  10.060 -0.0828  0.0204 -0.2969
  448POPI    C3 7071  10.372  10.878  10.073 -0.1369 -0.0904 -0.0319
  448POPI   PO4 7072  10.828  11.089   9.654 -0.0843  0.0653 -0.0130
  448POPI   GL1 7073  11.036  11.215   9.432 -0.1462  0.1064  0.0305
  448POPI   GL2 7074  11.260  10.972   9.409 -0.2141  0.2082 -0.0470
  448POPI   C1A 7075  11.009  11.126   8.998 -0.0246 -0.2672  0.3734
  448POPI   D2A 7076  11.003  11.024   8.552 -0.0410  0.0609 -0.4744
  448POPI   C3A 7077  10.957  11.017   8.068 -0.2948  0.2280 -0.1023
  448POPI   C4A 7078  10.993  10.742   7.637  0.0103 -0.1484 -0.0469
  448POPI   C1B 7079  11.300  10.756   9.093  0.5520 -0.2645 -0.1341
  448POPI   C2B 7080  11.243  10.559   8.737  0.0931 -0.0270 -0.0836
  448POPI   C3B 7081  11.181  10.586   8.310  0.0677  0.0393 -0.2909
  448POPI   C4B 7082  11.359  10.548   7.923  0.1616  0.1566 -0.2933
  449POPI    C1 7083  12.673  17.890  10.382 -0.1640  0.0129  0.2854
  449POPI    C2 7084  12.907  17.586  10.493 -0.1178 -0.0436  0.0398
  449POPI    C3 7085  12.751  17.828  10.769 -0.0394 -0.2040  0.2278
  449POPI   PO4 7086  12.747  17.799  10.067  0.1603  0.0239  0.1048
  449POPI   GL1 7087  12.737  17.454   9.712  0.2443  0.0749 -0.0218
  449POPI   GL2 7088  12.984  17.585   9.658 -0.1696  0.3601  0.0227
  449POPI   C1A 7089  12.697  17.574   9.257 -0.0595 -0.2591  0.0780
  449POPI   D2A 7090  12.596  17.682   8.859 -0.1754 -0.1461 -0.2515
  449POPI   C3A 7091  12.770  17.646   8.523 -0.1945  0.0065  0.0930
  449POPI   C4A 7092  12.852  17.659   8.165  0.1459  0.1966 -0.3036
  449POPI   C1B 7093  13.156  17.855   9.306 -0.2192  0.1939  0.2154
  449POPI   C2B 7094  13.046  17.872   8.870 -0.0123  0.0406  0.1808
  449POPI   C3B 7095  13.152  17.979   8.538 -0.2291 -0.0491 -0.0827
  449POPI   C4B 7096  12.957  18.127   8.099  0.0009  0.0826 -0.0034
  450POPI    C1 7097  11.696   7.378  10.275 -0.0254  0.0612 -0.0490
  450POPI    C2 7098  11.399   7.572  10.458  0.1793  0.3642 -0.0313
  450POPI    C3 7099  11.662   7.362  10.673 -0.0368  0.0696 -0.0496
  450POPI   PO4 7100  11.544   7.184  10.001  0.0509 -0.1731 -0.2381
  450POPI   GL1 7101  11.435   7.400   9.525  0.0560  0.0426 -0.2170
  450POPI   GL2 7102  11.264   7.272   9.586 -0.2111 -0.3519 -0.2555
  450POPI   C1A 7103  11.536   7.329   9.080 -0.2671  0.1445  0.1237
  450POPI   D2A 7104  11.624   7.274   8.662 -0.3099 -0.1023 -0.0505
  450POPI   C3A 7105  11.813   6.871   8.395 -0.3877  0.1669  0.0129
  450POPI   C4A 7106  11.880   6.758   8.063  0.2614 -0.2685  0.3065
  450POPI   C1B 7107  11.113   7.501   9.219  0.2451  0.0950  0.1805
  450POPI   C2B 7108  11.230   7.590   8.830 -0.2395  0.0287  0.3634
  450POPI   C3B 7109  11.125   7.532   8.407 -0.0616  0.1028  0.1122
  450POPI   C4B 7110  11.179   7.519   7.973 -0.1703  0.0716 -0.0595
  451POPI    C1 7111   5.839  18.070   9.784 -0.2546 -0.0310 -0.1327
  451POPI    C2 7112   5.442  18.094   9.828 -0.2426  0.6715 -0.2794
  451POPI    C3 7113   5.682  18.178  10.136 -0.1979  0.1961 -0.1755
  451POPI   PO4 7114   5.871  17.891   9.603 -0.2516 -0.3825  0.0443
  451POPI   GL1 7115   5.799  17.897   9.258  0.1457  0.0255  0.0734
  451POPI   GL2 7116   5.650  17.592   9.117 -0.0808 -0.1597  0.0630
  451POPI   C1A 7117   5.842  17.935   8.773  0.0840  0.0484 -0.0375
  451POPI   D2A 7118   5.899  17.893   8.411  0.1455  0.2615  0.2164
  451POPI   C3A 7119   5.943  18.209   8.242 -0.0681 -0.1772 -0.0892
  451POPI   C4A 7120   5.854  18.380   7.834 -0.1071  0.1887 -0.1421
  451POPI   C1B 7121   5.374  17.675   8.739 -0.1031 -0.1724 -0.0646
  451POPI   C2B 7122   5.411  17.697   8.347 -0.1867  0.1173 -0.0753
  451POPI   C3B 7123   5.480  17.932   8.076 -0.1277  0.0610 -0.2394
  451POPI   C4B 7124   5.359  18.031   7.755 -0.0638  0.0334  0.1061
  452POPI    C1 7125   3.666   8.957  10.541 -0.0879 -0.0981 -0.1058
  452POPI    C2 7126   3.956   9.141  10.746 -0.1681 -0.0873 -0.0014
  452POPI    C3 7127   3.688   8.913  10.938 -0.1381 -0.2202 -0.1160
  452POPI   PO4 7128   3.699   9.047  10.299  0.1175  0.1361  0.0015
  452POPI   GL1 7129   3.379   9.082   9.950  0.1346  0.1069 -0.1598
  452POPI   GL2 7130   3.078   9.160   9.743  0.0603  0.0076 -0.0594
  452POPI   C1A 7131   3.488   8.901   9.542  0.3934  0.2227 -0.1192
  452POPI   D2A 7132   3.332   8.697   9.305 -0.1155 -0.0864  0.0496
  452POPI   C3A 7133   3.562   8.544   8.908  0.1093 -0.1236 -0.1702
  452POPI   C4A 7134   3.892   8.585   8.715  0.1649  0.0775  0.1263
  452POPI   C1B 7135   3.037   9.058   9.292 -0.0547  0.0809 -0.0941
  452POPI   C2B 7136   3.139   8.890   8.890  0.1305  0.2473  0.0714
  452POPI   C3B 7137   3.245   8.862   8.501 -0.1281 -0.1672 -0.2085
  452POPI   C4B 7138   3.024   8.597   8.234  0.0410 -0.0848  0.0817
  453POPI    C1 7139   9.010   6.166  10.301  0.0219  0.3250 -0.1239
  453POPI    C2 7140   9.257   6.249  10.604  0.1699 -0.4947  0.0044
  453POPI    C3 7141   8.863   6.233  10.667  0.1094  0.2792 -0.0799
  453POPI   PO4 7142   8.925   6.281  10.099 -0.1872 -0.1456 -0.0127
  453POPI   GL1 7143   9.099   6.101   9.716 -0.2014 -0.3559 -0.0797
  453POPI   GL2 7144   9.465   5.985   9.653  0.0097 -0.4528  0.2427
  453POPI   C1A 7145   9.124   5.985   9.273  0.1754  0.1948 -0.1212
  453POPI   D2A 7146   9.219   6.206   8.876  0.1400 -0.0928 -0.0866
  453POPI   C3A 7147   9.431   6.148   8.561  0.0220  0.0509  0.2341
  453POPI   C4A 7148   9.506   5.892   8.281  0.3698 -0.0184 -0.1415
  453POPI   C1B 7149   9.460   6.366   9.312  0.2356  0.3127  0.0047
  453POPI   C2B 7150   9.449   6.689   8.980  0.0441 -0.1764  0.2672
  453POPI   C3B 7151   9.230   6.675   8.589 -0.0558  0.0032 -0.0343
  453POPI   C4B 7152   8.955   6.456   8.357  0.0952 -0.1287 -0.0054
  454POPI    C1 7153   9.115   7.081  10.605  0.1009  0.1319  0.0443
  454POPI    C2 7154   9.332   7.227  10.907 -0.0786  0.3558  0.0681
  454POPI    C3 7155   9.492   7.197  10.542  0.1500  0.0529  0.1887
  454POPI   PO4 7156   8.877   7.192  10.537 -0.1249 -0.1988  0.1662
  454POPI   GL1 7157   8.675   7.460  10.153 -0.0069  0.2069  0.0384
  454POPI   GL2 7158   8.417   7.317   9.934 -0.2647 -0.0733 -0.0268
  454POPI   C1A 7159   8.731   7.804   9.819  0.3375  0.2858  0.0607
  454POPI   D2A 7160   8.874   7.819   9.408 -0.0922  0.3422 -0.1450
  454POPI   C3A 7161   8.786   7.779   8.945 -0.0647  0.0620 -0.2564
  454POPI   C4A 7162   8.925   7.701   8.579 -0.3567 -0.1981 -0.0614
  454POPI   C1B 7163   8.428   6.865   9.582  0.1893  0.0244 -0.0647
  454POPI   C2B 7164   8.482   6.907   9.145  0.0904  0.2507  0.0130
  454POPI   C3B 7165   8.268   7.031   8.760 -0.1883 -0.0109  0.2428
  454POPI   C4B 7166   8.133   7.224   8.372  0.3157 -0.2690 -0.0488
  455POPI    C1 7167  12.102  15.486  10.369  0.2928 -0.0599 -0.1256
  455POPI    C2 7168  12.387  15.280  10.558  0.1740 -0.2297 -0.1296
  455POPI    C3 7169  12.037  15.105  10.473  0.0468 -0.0059 -0.0727
  455POPI   PO4 7170  12.220  15.636  10.263 -0.1734 -0.0557 -0.0677
  455POPI   GL1 7171  12.265  15.734   9.841 -0.0439 -0.1512 -0.1065
  455POPI   GL2 7172  12.152  15.463   9.705  0.1445 -0.1287  0.0026
  455POPI   C1A 7173  12.334  15.970   9.449 -0.2501 -0.2648  0.2696
  455POPI   D2A 7174  12.219  15.899   9.074  0.0860  0.3531  0.4819
  455POPI   C3A 7175  12.152  15.847   8.570 -0.0846  0.3629 -0.1914
  455POPI   C4A 7176  12.214  15.876   8.071 -0.0689 -0.0347 -0.0347
  455POPI   C1B 7177  12.168  15.471   9.305 -0.1085  0.0753  0.2078
  455POPI   C2B 7178  12.224  15.430   8.958 -0.2410  0.1952  0.1285
  455POPI   C3B 7179  12.169  15.210   8.650  0.0190  0.0171 -0.0825
  455POPI   C4B 7180  12.034  15.438   8.333 -0.1344  0.0567  0.1011
  456POPI    C1 7181   6.218   6.843  10.752  0.2614  0.1204  0.0936
  456POPI    C2 7182   6.455   7.160  10.807  0.4216 -0.0233  0.2432
  456POPI    C3 7183   6.420   6.884  11.094  0.1460 -0.0526  0.1841
  456POPI   PO4 7184   6.201   6.738  10.479  0.1490 -0.0817  0.1318
  456POPI   GL1 7185   6.516   6.884  10.220 -0.1260 -0.0283  0.0903
  456POPI   GL2 7186   6.775   6.712  10.147 -0.1858 -0.0583 -0.2340
  456POPI   C1A 7187   6.301   6.940   9.861 -0.0860  0.3358  0.0301
  456POPI   D2A 7188   6.453   6.988   9.408 -0.1292 -0.0188 -0.0120
  456POPI   C3A 7189   6.263   7.251   9.038  0.1171  0.0618  0.0045
  456POPI   C4A 7190   6.526   7.452   8.728 -0.2022  0.0973  0.1394
  456POPI   C1B 7191   6.868   6.936   9.780  0.0699  0.2229  0.2541
  456POPI   C2B 7192   7.035   6.985   9.270 -0.2536  0.1049 -0.2173
  456POPI   C3B 7193   6.793   7.020   8.915 -0.4812 -0.1333  0.0950
  456POPI   C4B 7194   6.489   7.005   8.513 -0.2414  0.2179 -0.1721
  457POPI    C1 7195   8.697  16.333  10.076  0.0120  0.2212 -0.0106
  457POPI    C2 7196   8.944  16.343  10.390 -0.0306  0.0577  0.0293
  457POPI    C3 7197   8.643  16.605  10.364 -0.1142 -0.0204  0.1979
  457POPI   PO4 7198   8.846  16.168   9.807 -0.1987  0.2456  0.1338
  457POPI   GL1 7199   9.023  16.266   9.461  0.1276 -0.0896  0.0368
  457POPI   GL2 7200   9.007  16.491   9.278 -0.2241  0.1531  0.1453
  457POPI   C1A 7201   9.133  15.983   9.077  0.2010  0.0620  0.0240
  457POPI   D2A 7202   9.070  15.851   8.672 -0.2059 -0.0854 -0.2596
  457POPI   C3A 7203   9.119  15.869   8.297 -0.0660  0.0258  0.4056
  457POPI   C4A 7204   9.481  15.753   7.911 -0.0338  0.1301  0.0927
  457POPI   C1B 7205   8.993  16.739   8.960  0.2239  0.0697  0.0712
  457POPI   C2B 7206   9.167  16.794   8.620  0.1868 -0.1621  0.3170
  457POPI   C3B 7207   9.043  16.835   8.262 -0.1027 -0.2003  0.0670
  457POPI   C4B 7208   9.208  16.762   7.884 -0.0825  0.0334  0.1391
  458POPI    C1 7209  17.239   6.018  11.044 -0.0064 -0.2104 -0.1068
  458POPI    C2 7210  17.050   6.033  11.396 -0.0196  0.1545 -0.1258
  458POPI    C3 7211  17.450   6.049  11.383 -0.0137  0.0233 -0.1225
  458POPI   PO4 7212  17.121   5.867  10.863 -0.3543  0.0227  0.0946
  458POPI   GL1 7213  17.263   5.805  10.516 -0.1710 -0.2076 -0.0661
  458POPI   GL2 7214  17.133   5.918  10.184  0.0084 -0.1497 -0.2090
  458POPI   C1A 7215  17.362   5.365  10.276 -0.2743  0.3622  0.0026
  458POPI   D2A 7216  17.603   5.260  10.169 -0.0826  0.0948  0.1478
  458POPI   C3A 7217  17.942   5.457   9.887  0.0535 -0.1120  0.1945
  458POPI   C4A 7218  18.302   5.329   9.604 -0.1301  0.2111  0.3719
  458POPI   C1B 7219  17.349   5.749   9.909 -0.0506  0.2219  0.1631
  458POPI   C2B 7220  17.374   5.829   9.482  0.1914 -0.3380 -0.2611
  458POPI   C3B 7221  17.449   5.758   9.102  0.0378  0.3395  0.0790
  458POPI   C4B 7222  17.767   5.979   8.951 -0.1948 -0.2085  0.0255
  459POPI    C1 7223  15.600  15.956  10.054  0.2461  0.0449 -0.1169
  459POPI    C2 7224  15.305  15.953  10.324  0.1683  0.1968 -0.1987
  459POPI    C3 7225  15.649  15.764  10.401  0.1639  0.2776  0.0261
  459POPI   PO4 7226  15.531  15.923   9.816 -0.1826 -0.3480 -0.0513
  459POPI   GL1 7227  15.648  15.796   9.481  0.0853 -0.1343  0.0856
  459POPI   GL2 7228  15.771  15.460   9.588  0.3264  0.2703 -0.0576
  459POPI   C1A 7229  15.704  15.933   9.012 -0.3247 -0.2910  0.0719
  459POPI   D2A 7230  15.686  15.964   8.471  0.0843 -0.1995  0.1741
  459POPI   C3A 7231  15.428  16.052   8.215  0.0222  0.1451  0.4322
  459POPI   C4A 7232  14.994  16.060   8.054 -0.0637 -0.0360  0.2365
  459POPI   C1B 7233  15.964  15.590   9.189 -0.1734 -0.0294 -0.2586
  459POPI   C2B 7234  15.996  15.628   8.719  0.2243 -0.1771 -0.2481
  459POPI   C3B 7235  16.023  15.625   8.292 -0.0143  0.1218 -0.1375
  459POPI   C4B 7236  16.068  15.345   7.940  0.1170 -0.0997 -0.3228
  460POPI    C1 7237   4.844   2.865  10.587 -0.0937  0.0973 -0.0161
  460POPI    C2 7238   4.912   2.548  10.821 -0.1268  0.1892  0.1189
  460POPI    C3 7239   4.539   2.686  10.774 -0.1291  0.1303 -0.0422
  460POPI   PO4 7240   4.958   2.884  10.392  0.0717  0.3774 -0.0962
  460POPI   GL1 7241   4.913   2.972   9.933  0.1398 -0.1016 -0.3204
  460POPI   GL2 7242   4.954   2.679   9.916 -0.1289  0.1446 -0.1381
  460POPI   C1A 7243   5.073   3.047   9.471 -0.1830  0.0935  0.0563
  460POPI   D2A 7244   5.197   3.152   9.097 -0.0543 -0.0912 -0.1264
  460POPI   C3A 7245   5.018   3.064   8.744 -0.2220 -0.2750  0.0380
  460POPI   C4A 7246   4.955   2.851   8.392 -0.2034 -0.3937 -0.1183
  460POPI   C1B 7247   4.790   2.670   9.517  0.1797 -0.0494 -0.1858
  460POPI   C2B 7248   4.785   2.644   9.094 -0.0300  0.1315  0.0299
  460POPI   C3B 7249   4.667   2.628   8.673 -0.1838  0.0427 -0.1551
  460POPI   C4B 7250   4.840   2.426   8.331 -0.0274 -0.0948  0.0825
  461POPI    C1 7251  15.943   5.318  10.814 -0.0827 -0.0193  0.0837
  461POPI    C2 7252  16.229   5.466  11.052  0.0242 -0.1142  0.0158
  461POPI    C3 7253  15.847   5.575  11.105  0.0574 -0.0746  0.1798
  461POPI   PO4 7254  16.076   5.115  10.739  0.0105 -0.2142  0.1554
  461POPI   GL1 7255  16.322   5.138  10.454  0.2998 -0.1109 -0.0049
  461POPI   GL2 7256  16.448   4.917  10.229 -0.2651 -0.0415 -0.0709
  461POPI   C1A 7257  16.708   5.304  10.466 -0.2591  0.1214 -0.0238
  461POPI   D2A 7258  16.901   5.221  10.102 -0.1142  0.0632  0.0513
  461POPI   C3A 7259  17.300   5.224   9.812 -0.2879  0.0941 -0.1801
  461POPI   C4A 7260  17.475   5.245   9.398 -0.0094 -0.1349  0.0927
  461POPI   C1B 7261  16.554   5.080   9.763  0.1330 -0.2239 -0.0626
  461POPI   C2B 7262  16.665   5.153   9.265 -0.0064 -0.3480 -0.2744
  461POPI   C3B 7263  16.807   5.095   8.834 -0.4141  0.1027  0.1687
  461POPI   C4B 7264  17.027   5.132   8.484  0.0151 -0.1887  0.2863
  462POPI    C1 7265   5.413   6.819  10.584  0.0416  0.0668  0.0312
  462POPI    C2 7266   5.667   6.558  10.419 -0.0789 -0.0520  0.0324
  462POPI    C3 7267   5.746   6.714  10.779 -0.0076 -0.0890  0.0328
  462POPI   PO4 7268   5.288   6.959  10.377  0.5515  0.0361 -0.4270
  462POPI   GL1 7269   5.475   7.235  10.143 -0.0508  0.3083  0.0804
  462POPI   GL2 7270   5.325   7.364   9.878 -0.1030 -0.1253 -0.1933
  462POPI   C1A 7271   5.784   7.319   9.799 -0.1614 -0.2013 -0.3380
  462POPI   D2A 7272   5.954   7.372   9.463  0.2545 -0.1003  0.0736
  462POPI   C3A 7273   6.335   7.459   9.561 -0.2437 -0.0977 -0.1561
  462POPI   C4A 7274   6.719   7.454   9.811 -0.2942 -0.0217  0.0358
  462POPI   C1B 7275   5.379   7.247   9.533 -0.0382 -0.2146 -0.3138
  462POPI   C2B 7276   5.358   7.304   9.102  0.4032 -0.0425  0.1704
  462POPI   C3B 7277   5.648   7.263   8.938  0.1102 -0.1055 -0.2533
  462POPI   C4B 7278   5.889   7.476   8.637 -0.4150  0.0523 -0.4190
  463POPI    C1 7279   4.272   5.130  10.449 -0.1444 -0.2832  0.1519
  463POPI    C2 7280   4.419   4.821  10.241  0.1296 -0.1625  0.1611
  463POPI    C3 7281   4.668   5.088  10.405 -0.0998 -0.0165  0.2775
  463POPI   PO4 7282   4.139   5.233  10.246 -0.0438 -0.1396  0.2475
  463POPI   GL1 7283   4.005   5.473   9.847  0.1347  0.0644  0.0151
  463POPI   GL2 7284   3.729   5.299  10.023  0.3717  0.3239 -0.2550
  463POPI   C1A 7285   4.188   5.354   9.467 -0.2878 -0.0564  0.0604
  463POPI   D2A 7286   4.537   5.220   9.372 -0.0036  0.0560  0.2502
  463POPI   C3A 7287   4.602   4.965   9.168  0.0041 -0.2954  0.0768
  463POPI   C4A 7288   4.546   4.873   8.661 -0.1325 -0.1447 -0.2359
  463POPI   C1B 7289   3.766   5.109   9.550 -0.1931 -0.1739 -0.0635
  463POPI   C2B 7290   3.625   5.127   9.068 -0.1346 -0.0425 -0.2589
  463POPI   C3B 7291   3.615   5.372   8.702  0.1055  0.1354 -0.1620
  463POPI   C4B 7292   3.481   5.711   8.557 -0.0707 -0.1021  0.3433
  464POPI    C1 7293   4.205  14.279  10.238 -0.0283  0.0927 -0.1267
  464POPI    C2 7294   4.483  14.400  10.499 -0.1749 -0.3052  0.2243
  464POPI    C3 7295   4.142  14.605  10.461  0.0963  0.1003 -0.1016
  464POPI   PO4 7296   4.259  14.219   9.994  0.0098 -0.5313  0.1818
  464POPI   GL1 7297   4.257  14.081   9.561  0.2511  0.1939 -0.1665
  464POPI   GL2 7298   4.357  13.724   9.525  0.0814 -0.1852 -0.0171
  464POPI   C1A 7299   4.032  14.173   9.239 -0.0597  0.0750 -0.0043
  464POPI   D2A 7300   3.992  14.143   8.954  0.0326  0.3571 -0.0485
  464POPI   C3A 7301   3.911  13.992   8.549  0.2042 -0.0116 -0.1084
  464POPI   C4A 7302   3.871  14.029   8.104  0.0813 -0.0924  0.2307
  464POPI   C1B 7303   4.186  13.710   9.144 -0.2295  0.0392  0.3376
  464POPI   C2B 7304   4.007  13.590   8.767  0.0089  0.1013 -0.3140
  464POPI   C3B 7305   3.923  13.527   8.322  0.2158  0.2124 -0.1713
  464POPI   C4B 7306   3.805  13.428   7.889 -0.0708  0.1438 -0.0563
  465POPI    C1 7307   7.252   4.037  10.507 -0.1306  0.0733 -0.2444
  465POPI    C2 7308   7.319   3.755  10.783 -0.0690  0.1039 -0.2278
  465POPI    C3 7309   7.457   4.126  10.839 -0.3676  0.2030 -0.1307
  465POPI   PO4 7310   7.342   3.999  10.234  0.0123  0.0079 -0.1598
  465POPI   GL1 7311   7.124   4.217   9.937  0.1250  0.1996  0.0978
  465POPI   GL2 7312   6.853   4.132   9.722  0.3648  0.0540 -0.3360
  465POPI   C1A 7313   7.463   4.224   9.647  0.0931  0.0275 -0.0800
  465POPI   D2A 7314   7.822   4.088   9.421 -0.2838 -0.1199  0.1629
  465POPI   C3A 7315   7.956   4.065   8.996  0.1517  0.0984  0.0177
  465POPI   C4A 7316   7.992   3.996   8.559 -0.0129  0.3083 -0.0451
  465POPI   C1B 7317   7.024   4.121   9.392 -0.2870 -0.1112  0.0184
  465POPI   C2B 7318   6.981   4.273   8.966  0.0853 -0.1087 -0.0167
  465POPI   C3B 7319   7.040   4.353   8.519  0.0124  0.2411  0.1571
  465POPI   C4B 7320   7.195   4.412   8.115 -0.0394 -0.2955 -0.1526
  466POPI    C1 7321   8.615   7.552  10.814  0.0214 -0.2537  0.0208
  466POPI    C2 7322   8.601   7.481  11.208  0.0289 -0.1524  0.0398
  466POPI    C3 7323   8.892   7.320  10.985  0.1466 -0.0407  0.1115
  466POPI   PO4 7324   8.429   7.607  10.621 -0.0240 -0.2015 -0.4436
  466POPI   GL1 7325   8.304   7.801  10.133 -0.2584 -0.0687  0.0390
  466POPI   GL2 7326   8.365   8.089  10.460 -0.0908  0.1116 -0.0126
  466POPI   C1A 7327   8.080   8.043   9.928 -0.1494 -0.0463  0.0213
  466POPI   D2A 7328   7.879   8.254   9.668  0.0698  0.0588 -0.0488
  466POPI   C3A 7329   7.870   8.043   9.261 -0.0006 -0.0633 -0.2250
  466POPI   C4A 7330   8.302   7.927   9.019 -0.2209  0.0396  0.0520
  466POPI   C1B 7331   8.564   8.241  10.001  0.1848 -0.0210  0.1238
  466POPI   C2B 7332   8.342   8.178   9.502 -0.1007 -0.1462 -0.2807
  466POPI   C3B 7333   8.229   7.769   9.482 -0.0240 -0.0312  0.1973
  466POPI   C4B 7334   8.583   7.354   9.464  0.1018  0.0230 -0.1396
  467POPI    C1 7335   2.380  14.258  10.476 -0.0081 -0.2466 -0.0764
  467POPI    C2 7336   2.750  14.288  10.626 -0.0351  0.0881 -0.0699
  467POPI    C3 7337   2.529  13.963  10.702  0.1653 -0.0036  0.1326
  467POPI   PO4 7338   2.372  14.192  10.276 -0.0251  0.1133 -0.1714
  467POPI   GL1 7339   2.253  14.228   9.860 -0.0825  0.2179 -0.2255
  467POPI   GL2 7340   2.224  13.910   9.902 -0.0987  0.1281 -0.1864
  467POPI   C1A 7341   2.249  14.531   9.565  0.0410  0.2171 -0.0431
  467POPI   D2A 7342   2.289  14.763   9.289 -0.1761 -0.1346  0.1222
  467POPI   C3A 7343   2.331  14.650   8.859  0.0586 -0.0553 -0.3987
  467POPI   C4A 7344   2.367  14.747   8.430  0.1323 -0.0175 -0.0626
  467POPI   C1B 7345   2.177  13.845   9.439  0.1446 -0.2522 -0.0116
  467POPI   C2B 7346   1.888  14.041   9.290  0.2009  0.2315  0.0578
  467POPI   C3B 7347   2.005  14.401   9.131  0.0532 -0.3356 -0.2017
  467POPI   C4B 7348   1.908  14.484   8.716 -0.2012  0.1902 -0.0659
  468POPI    C1 7349   1.427   8.947  10.352 -0.1684  0.0622  0.2637
  468POPI    C2 7350   1.543   9.330  10.342 -0.1144  0.0396 -0.1405
  468POPI    C3 7351   1.692   9.083  10.619  0.0723  0.2408 -0.0585
  468POPI   PO4 7352   1.351   8.823  10.077 -0.4627  0.0660 -0.0808
  468POPI   GL1 7353   1.625   8.794   9.757  0.1297  0.4828 -0.3233
  468POPI   GL2 7354   1.459   8.489   9.702  0.3007 -0.0774 -0.1398
  468POPI   C1A 7355   1.777   8.622   9.350  0.1454 -0.1061  0.2726
  468POPI   D2A 7356   1.706   8.693   8.965  0.1387 -0.0198 -0.5633
  468POPI   C3A 7357   1.625   8.509   8.610 -0.0092  0.1228 -0.2115
  468POPI   C4A 7358   1.883   8.172   8.571 -0.0269 -0.2170  0.0928
  468POPI   C1B 7359   1.310   8.514   9.206 -0.1132 -0.1991 -0.0170
  468POPI   C2B 7360   1.173   8.325   8.781  0.0222  0.0960  0.1261
  468POPI   C3B 7361   1.206   8.488   8.274  0.0054  0.1538 -0.0455
  468POPI   C4B 7362   1.420   8.758   7.900  0.0018 -0.0677 -0.0538
  469POPI    C1 7363   6.102  18.329  10.290  0.0639 -0.0998 -0.0706
  469POPI    C2 7364   5.926  18.686  10.332  0.1803 -0.0329 -0.1440
  469POPI    C3 7365   5.954  18.438  10.645  0.1465  0.0443 -0.0795
  469POPI   PO4 7366   6.183  18.416  10.014  0.2619 -0.0713 -0.0696
  469POPI   GL1 7367   6.167  18.581   9.579 -0.4369 -0.0892 -0.1613
  469POPI   GL2 7368   6.070  18.370   9.409  0.0908  0.2666 -0.2277
  469POPI   C1A 7369   6.317  18.839   9.178 -0.2477  0.1460 -0.0603
  469POPI   D2A 7370   6.376  18.821   8.802  0.4157 -0.0985 -0.1146
  469POPI   C3A 7371   6.648  18.762   8.404  0.0066 -0.1018  0.2117
  469POPI   C4A 7372   6.689  18.726   7.936  0.1718  0.1929 -0.1272
  469POPI   C1B 7373   6.149  18.350   8.982 -0.0470  0.0897  0.0298
  469POPI   C2B 7374   6.166  18.380   8.650 -0.2648 -0.2711 -0.0362
  469POPI   C3B 7375   6.323  18.516   8.189 -0.1641 -0.0524  0.2160
  469POPI   C4B 7376   6.410  18.377   7.787 -0.2820  0.0816 -0.5135
  470POPI    C1 7377   4.988  18.302   9.977 -0.1838  0.0648 -0.0770
  470POPI    C2 7378   5.088  18.024  10.247 -0.1514 -0.0750 -0.2319
  470POPI    C3 7379   4.810  18.297  10.336 -0.1532 -0.1306 -0.0633
  470POPI   PO4 7380   4.975  18.122   9.752 -0.0902  0.1172  0.2276
  470POPI   GL1 7381   4.979  18.208   9.256  0.0649 -0.1141  0.2524
  470POPI   GL2 7382   5.235  17.910   9.243  0.4513  0.1344 -0.1822
  470POPI   C1A 7383   4.998  18.340   8.855  0.0634 -0.0760  0.0324
  470POPI   D2A 7384   5.029  18.532   8.427 -0.2629 -0.2731  0.0392
  470POPI   C3A 7385   5.065  18.288   8.024 -0.0804 -0.2557  0.2244
  470POPI   C4A 7386   4.863  18.164   7.769  0.0761 -0.1639 -0.1636
  470POPI   C1B 7387   4.871  17.872   8.931 -0.0682  0.0690  0.0121
  470POPI   C2B 7388   4.997  17.931   8.512 -0.1701  0.2864 -0.1460
  470POPI   C3B 7389   4.929  17.804   8.123 -0.1270  0.1123  0.1417
  470POPI   C4B 7390   5.026  17.632   7.701  0.3041  0.0730  0.1562
  471POPI    C1 7391   6.952   1.623  10.058  0.0232  0.2229  0.1033
  471POPI    C2 7392   7.100   1.254  10.021  0.1096  0.2632  0.0428
  471POPI    C3 7393   6.880   1.350  10.341 -0.0251  0.1217 -0.0057
  471POPI   PO4 7394   7.194   1.740   9.819  0.2746 -0.1633 -0.2689
  471POPI   GL1 7395   7.242   1.936   9.446  0.2661 -0.2722  0.5129
  471POPI   GL2 7396   7.484   1.808   9.438 -0.1341  0.2101 -0.0930
  471POPI   C1A 7397   7.436   2.252   9.247  0.1664  0.0649 -0.1718
  471POPI   D2A 7398   7.312   2.408   8.723  0.3255 -0.0453  0.1374
  471POPI   C3A 7399   7.211   2.081   8.210 -0.0132 -0.3261  0.1997
  471POPI   C4A 7400   7.411   1.977   7.782 -0.0303 -0.1233 -0.1650
  471POPI   C1B 7401   7.502   1.752   8.964 -0.0579 -0.1990 -0.0953
  471POPI   C2B 7402   7.426   1.852   8.561  0.1347  0.0883 -0.2540
  471POPI   C3B 7403   7.508   1.562   8.253  0.0339 -0.3104 -0.2267
  471POPI   C4B 7404   7.570   1.529   7.769  0.3325 -0.0060 -0.0427
  472POPI    C1 7405  13.026   6.086  11.004 -0.0195  0.2549  0.0990
  472POPI    C2 7406  12.850   5.810  11.234  0.0739  0.0130 -0.1143
  472POPI    C3 7407  13.231   5.912  11.299  0.0525  0.0614 -0.0631
  472POPI   PO4 7408  12.832   6.027  10.653  0.1170 -0.0278  0.1613
  472POPI   GL1 7409  13.133   6.057  10.222  0.5264  0.0514 -0.1178
  472POPI   GL2 7410  13.094   6.318  10.277  0.0838 -0.1864  0.0988
  472POPI   C1A 7411  13.098   5.762   9.861  0.3252 -0.0658 -0.2323
  472POPI   D2A 7412  13.180   5.864   9.435  0.2826  0.2965  0.0074
  472POPI   C3A 7413  12.966   5.616   9.103 -0.0042  0.0778 -0.1310
  472POPI   C4A 7414  12.788   5.423   8.714  0.1033 -0.1195 -0.1678
  472POPI   C1B 7415  12.964   6.235   9.819  0.1734 -0.3989  0.1597
  472POPI   C2B 7416  12.873   6.284   9.385 -0.4292  0.1109 -0.0239
  472POPI   C3B 7417  12.717   6.162   8.969 -0.1689  0.1022 -0.0387
  472POPI   C4B 7418  12.868   5.938   8.618  0.0901 -0.1096  0.1022
  473DPPI    C1 7419   5.658   0.596  10.146 -0.0062 -0.1375  0.1561
  473DPPI    C2 7420   5.637   0.993  10.189  0.0846 -0.1301  0.1339
  473DPPI    C3 7421   5.671   0.759  10.511  0.1445 -0.1126  0.1403
  473DPPI   PO4 7422   5.807   0.618   9.941  0.3209  0.3557  0.3373
  473DPPI   GL1 7423   5.999   0.625   9.448  0.2043  0.0331 -0.0575
  473DPPI   GL2 7424   5.676   0.512   9.491 -0.0314 -0.2266 -0.1459
  473DPPI   C1A 7425   5.961   0.777   8.985 -0.2104 -0.1183 -0.1364
  473DPPI   C2A 7426   5.864   0.766   8.556 -0.1386  0.2033  0.3576
  473DPPI   C3A 7427   5.993   0.801   8.148  0.3260 -0.3134  0.0195
  473DPPI   C4A 7428   6.115   0.933   7.820 -0.2503 -0.1232  0.0311
  473DPPI   C1B 7429   5.768   0.275   9.139 -0.2515 -0.1374  0.0122
  473DPPI   C2B 7430   5.864   0.293   8.669  0.0511 -0.0801 -0.1940
  473DPPI   C3B 7431   5.922   0.341   8.212 -0.1512  0.0486  0.0114
  473DPPI   C4B 7432   6.193   0.419   7.884  0.0615  0.1351  0.0544
  474DPPI    C1 7433   1.480  11.706  10.471 -0.0309  0.1200  0.1815
  474DPPI    C2 7434   1.602  11.328  10.420 -0.1104  0.0687  0.3638
  474DPPI    C3 7435   1.806  11.574  10.661  0.2587  0.3072 -0.1713
  474DPPI   PO4 7436   1.371  11.784  10.200 -0.1369 -0.0979 -0.2547
  474DPPI   GL1 7437   1.635  12.064   9.952  0.2280  0.1375 -0.1456
  474DPPI   GL2 7438   1.861  12.256  10.035  0.0511  0.0603 -0.0486
  474DPPI   C1A 7439   1.897  11.944   9.576  0.0727 -0.0277 -0.1070
  474DPPI   C2A 7440   1.953  11.874   9.090  0.3209  0.0061 -0.0406
  474DPPI   C3A 7441   1.805  11.991   8.610 -0.0652  0.1417  0.1162
  474DPPI   C4A 7442   1.840  11.794   8.174  0.3315  0.1175  0.0007
  474DPPI   C1B 7443   1.859  12.426   9.577  0.1103 -0.1450 -0.1688
  474DPPI   C2B 7444   1.699  12.378   9.198 -0.1761  0.0830  0.0848
  474DPPI   C3B 7445   1.490  12.263   8.848 -0.4258 -0.0861 -0.0701
  474DPPI   C4B 7446   1.366  12.149   8.388  0.0459 -0.3205 -0.0506
  475DPPI    C1 7447   7.059   9.354  10.615  0.1972  0.1863 -0.0464
  475DPPI    C2 7448   6.737   9.552  10.484  0.1522  0.1443  0.0006
  475DPPI    C3 7449   6.886   9.629  10.847 -0.1269 -0.2123  0.1984
  475DPPI   PO4 7450   7.215   9.388  10.378 -0.2060  0.0154  0.0920
  475DPPI   GL1 7451   7.056   9.519  10.100 -0.4048 -0.0449 -0.0550
  475DPPI   GL2 7452   6.910   9.226  10.024  0.0754  0.0613 -0.1710
  475DPPI   C1A 7453   7.023   9.713   9.744 -0.1388 -0.0037  0.0560
  475DPPI   C2A 7454   6.880   9.679   9.398 -0.1109  0.0842 -0.0482
  475DPPI   C3A 7455   6.909   9.780   8.918  0.2471 -0.0610 -0.2209
  475DPPI   C4A 7456   6.872   9.702   8.489 -0.0243 -0.0045  0.2790
  475DPPI   C1B 7457   6.597   9.238   9.735 -0.0508  0.1260  0.1829
  475DPPI   C2B 7458   6.540   9.255   9.247 -0.0774 -0.0922  0.4207
  475DPPI   C3B 7459   6.668   9.294   8.834 -0.0719 -0.1172  0.0278
  475DPPI   C4B 7460   6.634   9.176   8.439 -0.2248  0.0046 -0.2299
  476DPPI    C1 7461  14.836   5.084  10.528  0.0804  0.1268 -0.0347
  476DPPI    C2 7462  15.051   4.760  10.434 -0.1849 -0.0857  0.0745
  476DPPI    C3 7463  15.043   4.892  10.812 -0.0528  0.0686  0.0244
  476DPPI   PO4 7464  14.761   5.152  10.202 -0.1345 -0.0314  0.1125
  476DPPI   GL1 7465  15.088   5.255   9.809  0.0988  0.1867 -0.1806
  476DPPI   GL2 7466  15.223   5.508   9.883  0.0498  0.2122  0.3600
  476DPPI   C1A 7467  15.025   4.971   9.465  0.0995 -0.0112 -0.4982
  476DPPI   C2A 7468  15.035   4.841   9.007 -0.1286  0.1658 -0.1961
  476DPPI   C3A 7469  15.343   4.978   8.559  0.2122  0.0865  0.0754
  476DPPI   C4A 7470  15.528   4.915   8.214  0.2294 -0.0096 -0.1633
  476DPPI   C1B 7471  15.299   5.434   9.389 -0.0291 -0.0634  0.0107
  476DPPI   C2B 7472  15.345   5.315   8.989 -0.2408 -0.2035  0.2920
  476DPPI   C3B 7473  15.253   5.615   8.663 -0.1852 -0.2372  0.2042
  476DPPI   C4B 7474  15.131   5.394   8.236  0.1759  0.0212 -0.0249
  477DPPI    C1 7475   8.076   8.502  10.982  0.0051  0.2408  0.1482
  477DPPI    C2 7476   8.451   8.469  10.847 -0.0396  0.0670  0.0627
  477DPPI    C3 7477   8.382   8.519  11.238  0.0729  0.1231  0.0759
  477DPPI   PO4 7478   7.934   8.481  10.614 -0.0152 -0.3129 -0.2533
  477DPPI   GL1 7479   7.958   8.454  10.169  0.0623  0.2017 -0.1061
  477DPPI   GL2 7480   7.831   8.040  10.323 -0.3603  0.0195 -0.0160
  477DPPI   C1A 7481   7.739   8.741   9.836  0.1932  0.1864 -0.0147
  477DPPI   C2A 7482   7.762   8.920   9.373  0.0339 -0.3125 -0.1909
  477DPPI   C3A 7483   7.613   8.871   8.972 -0.0747 -0.0668  0.1919
  477DPPI   C4A 7484   7.818   8.730   8.577  0.4409  0.1920  0.3251
  477DPPI   C1B 7485   7.542   8.111   9.967  0.1962 -0.1309  0.1381
  477DPPI   C2B 7486   7.364   8.028   9.624 -0.0068  0.1493  0.0890
  477DPPI   C3B 7487   7.050   7.997   9.343  0.0528  0.0401 -0.2029
  477DPPI   C4B 7488   7.212   8.033   8.995  0.3130  0.0743 -0.2178
  478DPPI    C1 7489   7.045  12.235   9.989  0.5073 -0.3968  0.1196
  478DPPI    C2 7490   7.147  11.945  10.245  0.3447 -0.1541  0.4668
  478DPPI    C3 7491   6.764  12.057  10.212  0.3774 -0.1199  0.1819
  478DPPI   PO4 7492   7.183  12.143   9.802  0.0393  0.0074  0.0675
  478DPPI   GL1 7493   7.253  11.835   9.519  0.0204 -0.0435  0.2971
  478DPPI   GL2 7494   7.456  11.504   9.551 -0.3015 -0.2369  0.0790
  478DPPI   C1A 7495   7.109  11.859   9.003  0.2506 -0.0070 -0.0866
  478DPPI   C2A 7496   7.183  11.617   8.706  0.3634 -0.3015  0.0790
  478DPPI   C3A 7497   7.068  11.614   8.377  0.4824 -0.0852 -0.0727
  478DPPI   C4A 7498   6.909  11.336   8.049 -0.0172  0.0180  0.0606
  478DPPI   C1B 7499   7.447  11.443   9.131  0.1716  0.3796  0.0744
  478DPPI   C2B 7500   7.624  11.444   8.862  0.0008 -0.0306 -0.1114
  478DPPI   C3B 7501   7.602  11.379   8.376  0.1263  0.0600  0.3628
  478DPPI   C4B 7502   7.583  11.401   7.889 -0.1767 -0.1593  0.1506
  479DPPI    C1 7503   7.678   9.637  10.505 -0.0163 -0.0264  0.1877
  479DPPI    C2 7504   7.426   9.830  10.749 -0.2408 -0.0448 -0.0258
  479DPPI    C3 7505   7.508   9.444  10.811  0.0294  0.0553  0.2650
  479DPPI   PO4 7506   7.592   9.722  10.274 -0.1893 -0.0231  0.0669
  479DPPI   GL1 7507   7.551   9.639   9.894  0.0900 -0.1188 -0.1602
  479DPPI   GL2 7508   7.769   9.494   9.739  0.0811  0.2320  0.0835
  479DPPI   C1A 7509   7.350   9.606   9.442  0.2873 -0.1862  0.1305
  479DPPI   C2A 7510   7.337   9.588   9.005  0.0065 -0.0402 -0.5865
  479DPPI   C3A 7511   7.321   9.748   8.627  0.1001 -0.1053 -0.0603
  479DPPI   C4A 7512   7.338   9.567   8.247  0.0628  0.2634  0.2563
  479DPPI   C1B 7513   7.804   9.434   9.352 -0.3380 -0.0831 -0.1368
  479DPPI   C2B 7514   7.782   9.313   9.009  0.3167 -0.1786 -0.5307
  479DPPI   C3B 7515   7.672   9.428   8.613 -0.0698 -0.0799  0.1183
  479DPPI   C4B 7516   7.833   9.323   8.276  0.2420 -0.2523  0.2838
  480DPPI    C1 7517   3.951  10.275  10.525 -0.1198 -0.3565  0.2521
  480DPPI    C2 7518   4.338  10.281  10.423 -0.1927 -0.1550 -0.0223
  480DPPI    C3 7519   4.232  10.305  10.808  0.0602  0.0773  0.0357
  480DPPI   PO4 7520   3.844  10.388  10.352 -0.3518  0.1112 -0.0193
  480DPPI   GL1 7521   3.784  10.696  10.131 -0.2192 -0.0379 -0.1718
  480DPPI   GL2 7522   3.579  10.546  10.002  0.2812 -0.0450 -0.2308
  480DPPI   C1A 7523   4.060  10.646   9.753  0.1940 -0.2249 -0.2384
  480DPPI   C2A 7524   4.011  10.513   9.362 -0.2243  0.0431  0.0730
  480DPPI   C3A 7525   4.016  10.336   8.874  0.0301 -0.0417 -0.2247
  480DPPI   C4A 7526   3.894  10.348   8.445 -0.1537 -0.0793  0.1131
  480DPPI   C1B 7527   3.544  10.401   9.551  0.0463 -0.0074  0.2145
  480DPPI   C2B 7528   3.647  10.214   9.198  0.1034 -0.1652  0.2730
  480DPPI   C3B 7529   3.596  10.100   8.697 -0.3274  0.0130  0.2467
  480DPPI   C4B 7530   3.582   9.944   8.205  0.0152  0.1202 -0.1742
  481DPPI    C1 7531  18.430  16.734  10.203  0.1777  0.0938  0.0904
  481DPPI    C2 7532  18.137  16.728  10.475  0.1042 -0.0307  0.0099
  481DPPI    C3 7533  18.504  16.604  10.574 -0.0017 -0.3915 -0.0357
  481DPPI   PO4 7534  18.403  16.957  10.081  0.1759 -0.0044  0.1075
  481DPPI   GL1 7535  18.218  17.048   9.661 -0.0346  0.2738  0.0893
  481DPPI   GL2 7536  17.982  16.820   9.489 -0.0556  0.0347 -0.0425
  481DPPI   C1A 7537  18.493  17.259   9.338  0.1475 -0.2833 -0.1396
  481DPPI   C2A 7538  18.501  17.359   9.003  0.2290  0.0084  0.1741
  481DPPI   C3A 7539  18.758  17.430   8.595 -0.0013 -0.0409 -0.0200
  481DPPI   C4A 7540  18.588  17.214   8.305  0.3817  0.0399  0.1385
  481DPPI   C1B 7541  18.233  16.938   9.102  0.2224 -0.1632  0.1158
  481DPPI   C2B 7542  18.212  17.215   8.636 -0.3123 -0.0261  0.0497
  481DPPI   C3B 7543  18.106  17.407   8.164  0.0437  0.3770  0.0690
  481DPPI   C4B 7544  17.686  17.630   8.204  0.4890  0.4346  0.1515
  482DPPI    C1 7545   2.440  18.359  10.291  0.0502  0.2294 -0.0421
  482DPPI    C2 7546   2.328  18.443  10.666  0.0551  0.1178 -0.0151
  482DPPI    C3 7547   2.078  18.250  10.421  0.1524 -0.0509  0.0164
  482DPPI   PO4 7548   2.559  18.567  10.183 -0.2345  0.0027 -0.0096
  482DPPI   GL1 7549   2.700  18.861   9.809 -0.2587  0.0922  0.0852
  482DPPI   GL2 7550   2.898  19.066   9.881 -0.0207 -0.2224  0.0442
  482DPPI   C1A 7551   2.565  18.950   9.407 -0.1897 -0.1440 -0.1330
  482DPPI   C2A 7552   2.504  18.935   9.019  0.0048  0.0927 -0.1009
  482DPPI   C3A 7553   2.574  19.115   8.669  0.2604 -0.1388 -0.1292
  482DPPI   C4A 7554   2.780  19.065   8.268 -0.0934  0.2855 -0.2506
  482DPPI   C1B 7555   2.867  19.329   9.487  0.0663 -0.0220  0.2501
  482DPPI   C2B 7556   2.837  19.440   9.019  0.2468 -0.0642  0.2784
  482DPPI   C3B 7557   2.987  19.474   8.563  0.2718 -0.1335 -0.2865
  482DPPI   C4B 7558   3.041  19.715   8.226  0.1874  0.2341 -0.0853
  483DPPI    C1 7559  11.326   1.036  10.562 -0.2732  0.0990 -0.0031
  483DPPI    C2 7560  11.292   1.294  10.866 -0.0275  0.0531  0.0655
  483DPPI    C3 7561  11.013   1.014  10.809 -0.0624  0.0467  0.2636
  483DPPI   PO4 7562  11.441   1.179  10.365  0.0424 -0.0640  0.0319
  483DPPI   GL1 7563  11.285   1.264   9.966  0.0791 -0.0872  0.0634
  483DPPI   GL2 7564  11.487   1.447   9.914  0.2257 -0.3286 -0.0298
  483DPPI   C1A 7565  11.053   1.559   9.740  0.1858  0.0227  0.0796
  483DPPI   C2A 7566  10.968   1.862   9.371  0.2025 -0.3077  0.1165
  483DPPI   C3A 7567  11.133   1.828   8.886 -0.1845 -0.6294 -0.3153
  483DPPI   C4A 7568  11.488   1.821   8.605 -0.1402  0.2194 -0.0302
  483DPPI   C1B 7569  11.419   1.408   9.437  0.1104  0.1997 -0.1218
  483DPPI   C2B 7570  11.522   1.554   9.061 -0.2496  0.0553  0.1984
  483DPPI   C3B 7571  11.567   1.354   8.721  0.0609  0.1252  0.0481
  483DPPI   C4B 7572  11.626   1.327   8.312 -0.1650  0.4133 -0.1801
  484DPPI    C1 7573   8.852  10.540  10.367 -0.2020  0.0526 -0.1417
  484DPPI    C2 7574   8.815  10.870  10.589 -0.0569 -0.0527  0.0418
  484DPPI    C3 7575   8.604  10.543  10.681 -0.0498 -0.0740 -0.0181
  484DPPI   PO4 7576   8.864  10.661  10.061  0.1624  0.1205 -0.0265
  484DPPI   GL1 7577   8.656  10.556   9.747 -0.1929  0.0688  0.2890
  484DPPI   GL2 7578   8.675  10.236   9.881 -0.2227 -0.0225 -0.1269
  484DPPI   C1A 7579   8.731  10.421   9.306  0.2703  0.1476 -0.2472
  484DPPI   C2A 7580   8.747  10.366   8.822  0.1240 -0.3867  0.1444
  484DPPI   C3A 7581   8.689  10.334   8.375  0.0834 -0.0502  0.0054
  484DPPI   C4A 7582   8.614  10.018   8.129  0.0987  0.2954  0.0768
  484DPPI   C1B 7583   8.380  10.145   9.521  0.0262 -0.0778 -0.0627
  484DPPI   C2B 7584   8.276  10.156   9.089 -0.0106  0.1699 -0.0082
  484DPPI   C3B 7585   8.335  10.043   8.778  0.0131 -0.1728  0.1409
  484DPPI   C4B 7586   8.163  10.143   8.313  0.0003  0.3379  0.1136
  485DPPI    C1 7587  16.981  10.203  10.656  0.0404  0.0898 -0.2713
  485DPPI    C2 7588  16.595  10.205  10.760  0.0890 -0.1262 -0.0791
  485DPPI    C3 7589  16.847  10.470  10.921  0.0791 -0.1798  0.0256
  485DPPI   PO4 7590  16.987  10.259  10.387  0.0511 -0.0737 -0.0923
  485DPPI   GL1 7591  17.097  10.069  10.030 -0.0618  0.3227 -0.5147
  485DPPI   GL2 7592  17.252   9.824  10.025  0.3280  0.2104 -0.1996
  485DPPI   C1A 7593  17.019  10.041   9.543 -0.0170  0.0388 -0.1468
  485DPPI   C2A 7594  16.693  10.035   9.214 -0.1062  0.3907 -0.0459
  485DPPI   C3A 7595  16.780  10.080   8.803 -0.1634 -0.0967  0.0352
  485DPPI   C4A 7596  16.951   9.921   8.415 -0.0566 -0.0069  0.0109
  485DPPI   C1B 7597  17.479   9.737   9.684  0.0504  0.1417  0.1655
  485DPPI   C2B 7598  17.615   9.520   9.196  0.3223  0.0619 -0.3129
  485DPPI   C3B 7599  17.501   9.530   8.874 -0.2768  0.0714  0.4058
  485DPPI   C4B 7600  17.508   9.604   8.478  0.3905  0.2136 -0.1015
  486DPPI    C1 7601  11.628  17.034  10.341 -0.2579 -0.0394 -0.1518
  486DPPI    C2 7602  11.567  16.647  10.422 -0.0823 -0.0482 -0.0578
  486DPPI    C3 7603  11.370  16.928  10.628 -0.1227 -0.0851 -0.0459
  486DPPI   PO4 7604  11.665  17.122  10.156 -0.2398  0.2248  0.2491
  486DPPI   GL1 7605  11.353  17.233   9.827  0.1249  0.0479  0.1448
  486DPPI   GL2 7606  11.486  17.533   9.890 -0.1328 -0.2995 -0.1136
  486DPPI   C1A 7607  11.706  17.198   9.457 -0.1990  0.0175 -0.0138
  486DPPI   C2A 7608  11.890  17.197   8.998 -0.1321 -0.2025 -0.4269
  486DPPI   C3A 7609  11.935  17.259   8.569  0.2325 -0.2477 -0.1110
  486DPPI   C4A 7610  12.019  17.220   8.178  0.1620  0.1318  0.2516
  486DPPI   C1B 7611  11.403  17.639   9.467 -0.0509 -0.4451 -0.1031
  486DPPI   C2B 7612  11.386  17.693   9.044 -0.2190 -0.1718 -0.0641
  486DPPI   C3B 7613  11.573  17.689   8.721 -0.0274  0.3285 -0.0637
  486DPPI   C4B 7614  11.783  17.688   8.350  0.0701  0.4790 -0.0587
  487DPPI    C1 7615  15.945   2.051  10.461  0.1861  0.0901  0.2444
  487DPPI    C2 7616  16.138   1.701  10.485  0.0316 -0.0248 -0.1136
  487DPPI    C3 7617  15.827   1.775  10.726 -0.0566 -0.2142 -0.1670
  487DPPI   PO4 7618  15.938   2.011  10.167 -0.1308 -0.1545 -0.0669
  487DPPI   GL1 7619  15.843   2.029   9.828  0.1926 -0.3293  0.1707
  487DPPI   GL2 7620  15.910   1.713   9.660 -0.0237 -0.0672  0.1914
  487DPPI   C1A 7621  15.857   2.149   9.421 -0.0112  0.2874  0.2657
  487DPPI   C2A 7622  15.825   2.174   8.990  0.0210 -0.1634  0.0661
  487DPPI   C3A 7623  15.656   2.240   8.643  0.1004  0.4038 -0.2475
  487DPPI   C4A 7624  15.312   2.348   8.322 -0.3597  0.0410  0.0646
  487DPPI   C1B 7625  15.942   1.639   9.263  0.0996 -0.1277 -0.0240
  487DPPI   C2B 7626  15.822   1.661   8.856 -0.1208  0.1719  0.1904
  487DPPI   C3B 7627  15.681   1.751   8.537 -0.2773  0.1312  0.0336
  487DPPI   C4B 7628  15.765   1.934   8.180 -0.0997  0.0686 -0.0346
  488DPPI    C1 7629   6.203  10.263  10.602 -0.1565 -0.0259  0.0110
  488DPPI    C2 7630   6.216  10.653  10.690  0.3821 -0.0678  0.1556
  488DPPI    C3 7631   6.151  10.385  10.979 -0.1232 -0.0856  0.0351
  488DPPI   PO4 7632   6.015  10.269  10.408 -0.0115 -0.1120  0.0453
  488DPPI   GL1 7633   5.857  10.073  10.039  0.4754 -0.0118  0.4021
  488DPPI   GL2 7634   5.826   9.825   9.893  0.1249  0.0412 -0.0764
  488DPPI   C1A 7635   5.730  10.336   9.774  0.1528 -0.0031  0.3145
  488DPPI   C2A 7636   5.705  10.318   9.361 -0.1935  0.2278  0.0082
  488DPPI   C3A 7637   5.639  10.251   8.932  0.1843 -0.2067 -0.0188
  488DPPI   C4A 7638   5.866  10.097   8.485  0.1710  0.0803 -0.2900
  488DPPI   C1B 7639   5.884   9.834   9.541 -0.0094 -0.1168  0.0559
  488DPPI   C2B 7640   5.881   9.818   9.052 -0.0648 -0.2938  0.0117
  488DPPI   C3B 7641   5.859   9.639   8.734  0.0725 -0.0517  0.1283
  488DPPI   C4B 7642   5.849   9.607   8.304 -0.0061  0.1117 -0.2240
  489DPPI    C1 7643  11.473   3.336  10.470 -0.2057 -0.1167 -0.1738
  489DPPI    C2 7644  11.430   3.323  10.867  0.1108  0.0001 -0.1329
  489DPPI    C3 7645  11.182   3.546  10.647 -0.1518 -0.1725 -0.0171
  489DPPI   PO4 7646  11.600   3.013  10.420  0.0832  0.0987 -0.0177
  489DPPI   GL1 7647  11.646   2.586  10.323 -0.1347 -0.0653 -0.0617
  489DPPI   GL2 7648  11.899   2.656  10.061  0.1099  0.1313 -0.1051
  489DPPI   C1A 7649  11.472   2.424   9.908 -0.0002 -0.2641  0.2234
  489DPPI   C2A 7650  11.527   2.584   9.517  0.2235  0.0074  0.0242
  489DPPI   C3A 7651  11.641   2.629   9.042 -0.0738 -0.0670  0.1573
  489DPPI   C4A 7652  11.660   2.679   8.647  0.0752 -0.1347 -0.0316
  489DPPI   C1B 7653  11.973   2.721   9.656  0.2518  0.3745  0.0396
  489DPPI   C2B 7654  12.099   2.728   9.226 -0.0599 -0.1442  0.2044
  489DPPI   C3B 7655  12.148   2.641   8.828 -0.2870 -0.1284  0.0171
  489DPPI   C4B 7656  12.108   2.582   8.405 -0.0687 -0.2947  0.0844
  490DPPI    C1 7657   7.361   5.061  10.334  0.0719  0.2497  0.0520
  490DPPI    C2 7658   7.358   5.314  10.644 -0.0189  0.0161  0.2452
  490DPPI    C3 7659   7.569   4.975  10.665 -0.1759 -0.0904  0.1244
  490DPPI   PO4 7660   7.421   5.236  10.099  0.0354  0.3313  0.2001
  490DPPI   GL1 7661   7.410   5.268   9.755 -0.0205 -0.1795 -0.1034
  490DPPI   GL2 7662   7.749   5.099   9.624  0.0692 -0.0254  0.2457
  490DPPI   C1A 7663   7.468   5.221   9.239 -0.0040  0.3328 -0.1513
  490DPPI   C2A 7664   7.399   5.166   8.871  0.2094  0.2344 -0.0473
  490DPPI   C3A 7665   7.412   5.310   8.468  0.0363  0.1427  0.2919
  490DPPI   C4A 7666   7.517   5.505   8.086  0.1475 -0.3452 -0.2294
  490DPPI   C1B 7667   7.937   5.270   9.255  0.2718 -0.0427  0.1011
  490DPPI   C2B 7668   7.897   5.327   8.923 -0.3115  0.1171 -0.2951
  490DPPI   C3B 7669   7.997   5.419   8.590  0.0142  0.0906 -0.0687
  490DPPI   C4B 7670   8.007   5.554   8.096  0.0087  0.2283  0.1717
  491DPPI    C1 7671  14.710   6.551  10.744 -0.1386  0.0711 -0.0522
  491DPPI    C2 7672  14.875   6.371  11.061 -0.1053 -0.1068 -0.1689
  491DPPI    C3 7673  14.556   6.607  11.109  0.0456  0.0613  0.0284
  491DPPI   PO4 7674  14.740   6.393  10.541 -0.0827 -0.1568  0.1081
  491DPPI   GL1 7675  14.931   6.525  10.211  0.0425  0.0563 -0.0370
  491DPPI   GL2 7676  14.671   6.680  10.077  0.3419  0.0680 -0.0776
  491DPPI   C1A 7677  15.121   6.397   9.888 -0.1144  0.0125 -0.0930
  491DPPI   C2A 7678  14.987   6.312   9.527  0.1739 -0.0991 -0.1349
  491DPPI   C3A 7679  14.952   6.312   9.105  0.1513 -0.2410  0.1546
  491DPPI   C4A 7680  15.146   6.153   8.672  0.2354 -0.2974  0.2744
  491DPPI   C1B 7681  14.799   6.744   9.648 -0.1065  0.2171  0.1679
  491DPPI   C2B 7682  14.910   6.805   9.271  0.0445 -0.2666  0.1260
  491DPPI   C3B 7683  14.853   6.805   8.809 -0.0721 -0.0205 -0.2316
  491DPPI   C4B 7684  14.992   6.851   8.447  0.0843  0.0723 -0.2951
  492DPPI    C1 7685   0.744   9.998  10.164  0.2488 -0.2300  0.3747
  492DPPI    C2 7686   0.884  10.132  10.514  0.0364  0.0560  0.3538
  492DPPI    C3 7687   0.566  10.307  10.346  0.0335 -0.1876  0.0988
  492DPPI   PO4 7688   0.624   9.736  10.155  0.1563 -0.0602  0.1060
  492DPPI   GL1 7689   0.634   9.391   9.870 -0.1725 -0.1920 -0.1311
  492DPPI   GL2 7690   0.333   9.578   9.750 -0.0818 -0.2019 -0.0718
  492DPPI   C1A 7691   0.751   9.292   9.379  0.0464 -0.0290 -0.0923
  492DPPI   C2A 7692   0.750   9.359   9.029  0.0900 -0.2759 -0.1039
  492DPPI   C3A 7693   0.848   9.409   8.586  0.2773 -0.2994  0.1819
  492DPPI   C4A 7694   0.615   9.331   8.285 -0.0153 -0.0891  0.0793
  492DPPI   C1B 7695   0.306   9.540   9.226 -0.1196  0.3895 -0.0199
  492DPPI   C2B 7696   0.297   9.482   8.920  0.1735  0.1224  0.1810
  492DPPI   C3B 7697  -0.086   9.591   8.692 -0.1224 -0.1119  0.3017
  492DPPI   C4B 7698  -0.414   9.339   8.667 -0.0624  0.0121 -0.1238
  493DPPI    C1 7699  17.511   2.718  10.808 -0.2229  0.1047  0.0379
  493DPPI    C2 7700  17.746   2.788  11.124 -0.1560 -0.1803  0.0540
  493DPPI    C3 7701  17.664   2.411  11.015 -0.2140 -0.0843 -0.2428
  493DPPI   PO4 7702  17.457   3.072  10.715 -0.2165  0.0820  0.1499
  493DPPI   GL1 7703  17.644   3.258  10.454 -0.2118  0.3318 -0.0493
  493DPPI   GL2 7704  17.949   3.389  10.400 -0.1600 -0.2229 -0.2782
  493DPPI   C1A 7705  17.702   3.005  10.021 -0.0667 -0.1769 -0.0414
  493DPPI   C2A 7706  17.806   2.858   9.592 -0.0433 -0.0493  0.2261
  493DPPI   C3A 7707  17.733   2.942   9.180  0.0055 -0.2150  0.2168
  493DPPI   C4A 7708  17.459   3.000   9.009  0.1987  0.0975 -0.0598
  493DPPI   C1B 7709  17.856   3.580   9.993 -0.1626  0.2146 -0.0704
  493DPPI   C2B 7710  17.709   3.756   9.622 -0.0208 -0.0705  0.2541
  493DPPI   C3B 7711  17.309   3.917   9.586 -0.0275  0.0632 -0.0291
  493DPPI   C4B 7712  16.980   3.723   9.367 -0.1201 -0.0258 -0.1148
  494DPPI    C1 7713  10.174   9.989   9.762 -0.1235  0.1196 -0.0139
  494DPPI    C2 7714  10.062  10.165  10.104 -0.1981  0.2781 -0.1184
  494DPPI    C3 7715  10.390  10.290   9.912  0.0483 -0.0477  0.0785
  494DPPI   PO4 7716  10.056   9.741   9.797  0.1561  0.0163  0.0124
  494DPPI   GL1 7717  10.028   9.464   9.475  0.3716  0.1823  0.0331
  494DPPI   GL2 7718  10.129   9.790   9.263  0.0670 -0.1026  0.2550
  494DPPI   C1A 7719   9.697   9.373   9.226 -0.0452  0.2288  0.1445
  494DPPI   C2A 7720   9.690   9.294   8.806 -0.2391 -0.1875 -0.0513
  494DPPI   C3A 7721   9.734   9.502   8.385 -0.2622 -0.1067 -0.1236
  494DPPI   C4A 7722   9.526   9.516   7.944 -0.0002  0.0091 -0.0800
  494DPPI   C1B 7723  10.158   9.795   8.789 -0.0732  0.1498 -0.0105
  494DPPI   C2B 7724  10.153   9.778   8.425  0.0339 -0.2965  0.3845
  494DPPI   C3B 7725  10.113   9.688   8.077  0.3358  0.2892 -0.1176
  494DPPI   C4B 7726   9.983   9.442   7.731 -0.0681  0.0050 -0.2472
  495DPPI    C1 7727   7.434   2.488  10.354  0.0220  0.0863  0.2139
  495DPPI    C2 7728   7.076   2.524  10.529 -0.1053  0.1380 -0.0518
  495DPPI    C3 7729   7.311   2.213  10.617 -0.2826  0.0193  0.0075
  495DPPI   PO4 7730   7.348   2.551  10.080  0.0577  0.1629 -0.1622
  495DPPI   GL1 7731   7.436   2.806   9.785 -0.0926 -0.0919 -0.1951
  495DPPI   GL2 7732   7.328   3.173   9.567 -0.0316  0.1377 -0.1297
  495DPPI   C1A 7733   7.274   2.741   9.360 -0.2662  0.0239  0.1050
  495DPPI   C2A 7734   7.170   2.846   8.946 -0.2242  0.1678 -0.1354
  495DPPI   C3A 7735   7.008   3.048   8.558 -0.1174  0.3000  0.0994
  495DPPI   C4A 7736   7.156   2.930   8.111 -0.0928  0.2095 -0.0470
  495DPPI   C1B 7737   7.553   3.216   9.133 -0.1345 -0.2589 -0.2955
  495DPPI   C2B 7738   7.365   3.442   8.785 -0.0896 -0.3761 -0.0880
  495DPPI   C3B 7739   7.153   3.441   8.324  0.0599 -0.0627 -0.2878
  495DPPI   C4B 7740   6.849   3.404   8.035  0.0451 -0.0099  0.1811
  496DPPI    C1 7741   8.234   1.871  10.410  0.1301 -0.0412  0.1161
  496DPPI    C2 7742   8.311   1.610  10.702 -0.0392  0.0806  0.2717
  496DPPI    C3 7743   8.152   1.967  10.789  0.0633  0.1830  0.0471
  496DPPI   PO4 7744   8.059   1.714  10.231 -0.0647 -0.3628 -0.0370
  496DPPI   GL1 7745   8.124   1.667   9.838 -0.4542 -0.0321 -0.2642
  496DPPI   GL2 7746   7.942   1.939   9.795 -0.1521  0.1752 -0.0621
  496DPPI   C1A 7747   8.206   1.619   9.432  0.0971 -0.0717 -0.3705
  496DPPI   C2A 7748   8.020   1.658   9.040  0.2567 -0.3260  0.2406
  496DPPI   C3A 7749   7.883   1.724   8.616  0.1778 -0.2890  0.2923
  496DPPI   C4A 7750   8.085   1.590   8.204 -0.0624 -0.0943 -0.0756
  496DPPI   C1B 7751   7.958   2.023   9.366 -0.1805  0.0471 -0.0206
  496DPPI   C2B 7752   7.809   2.230   8.986 -0.1667  0.2472  0.0966
  496DPPI   C3B 7753   7.755   2.246   8.519 -0.1631  0.1051 -0.0073
  496DPPI   C4B 7754   7.735   2.047   8.128 -0.0999 -0.2861  0.0297
  497DPPI    C1 7755  17.940  17.151  10.190  0.3305 -0.2875  0.0453
  497DPPI    C2 7756  18.057  17.219  10.566 -0.1049  0.4551  0.0656
  497DPPI    C3 7757  17.697  17.059  10.495  0.1678 -0.1392 -0.0376
  497DPPI   PO4 7758  17.865  17.313  10.032  0.0431  0.0483 -0.1278
  497DPPI   GL1 7759  18.168  17.546   9.779  0.1050 -0.0451 -0.1521
  497DPPI   GL2 7760  18.442  17.700   9.712 -0.0940 -0.0930  0.0672
  497DPPI   C1A 7761  17.930  17.386   9.388  0.0522  0.2535 -0.4924
  497DPPI   C2A 7762  17.779  17.551   9.030  0.0239  0.0946 -0.0884
  497DPPI   C3A 7763  17.673  17.441   8.672 -0.1306 -0.0604  0.0848
  497DPPI   C4A 7764  17.540  17.145   8.313  0.2112 -0.0319  0.0351
  497DPPI   C1B 7765  18.479  17.818   9.284  0.0501  0.0132  0.2275
  497DPPI   C2B 7766  18.518  17.821   8.791 -0.1650 -0.0205 -0.0812
  497DPPI   C3B 7767  18.575  17.847   8.368  0.2370 -0.1738  0.0711
  497DPPI   C4B 7768  18.551  17.956   7.984 -0.1132 -0.0542  0.0472
  498DPPI    C1 7769  13.638   9.951  10.098 -0.0105 -0.1634 -0.2156
  498DPPI    C2 7770  13.805   9.702  10.363 -0.0456 -0.0239 -0.0604
  498DPPI    C3 7771  13.783  10.093  10.442  0.0935  0.0442 -0.3430
  498DPPI   PO4 7772  13.376   9.821  10.073 -0.2284 -0.1510  0.0086
  498DPPI   GL1 7773  13.299   9.733   9.648  0.2103 -0.0256  0.0041
  498DPPI   GL2 7774  13.064   9.532   9.583  0.1628  0.0771 -0.1203
  498DPPI   C1A 7775  13.361   9.451   9.189  0.2537  0.1482  0.0818
  498DPPI   C2A 7776  13.269   9.521   8.774  0.3086  0.0846  0.0109
  498DPPI   C3A 7777  13.376   9.537   8.397  0.4180 -0.3189  0.2185
  498DPPI   C4A 7778  13.498   9.846   7.999  0.3587 -0.1859 -0.0915
  498DPPI   C1B 7779  12.878   9.639   9.146 -0.0210 -0.3944 -0.0333
  498DPPI   C2B 7780  12.893   9.811   8.710 -0.1256  0.0777 -0.0147
  498DPPI   C3B 7781  13.134  10.010   8.411 -0.0152  0.1985  0.1326
  498DPPI   C4B 7782  13.005  10.035   7.961 -0.0284  0.0561  0.1780
  499DPPI    C1 7783   2.034   2.664  10.807 -0.0017  0.0574  0.0626
  499DPPI    C2 7784   2.336   2.458  10.969 -0.0050 -0.1400 -0.1765
  499DPPI    C3 7785   1.962   2.399  11.098  0.0489  0.0668  0.0837
  499DPPI   PO4 7786   2.077   2.605  10.478  0.2123  0.0073  0.1073
  499DPPI   GL1 7787   2.112   2.801  10.095 -0.0522  0.0542  0.1665
  499DPPI   GL2 7788   2.041   2.960   9.895 -0.0855  0.0110 -0.2084
  499DPPI   C1A 7789   2.373   2.635   9.759  0.1786  0.1400  0.2114
  499DPPI   C2A 7790   2.354   2.736   9.317  0.1018 -0.0556  0.1894
  499DPPI   C3A 7791   2.531   2.743   8.899 -0.0256 -0.3054  0.1395
  499DPPI   C4A 7792   2.657   2.665   8.435  0.3895  0.1229 -0.0109
  499DPPI   C1B 7793   1.937   2.911   9.567 -0.1977 -0.3146  0.3622
  499DPPI   C2B 7794   1.926   2.954   9.113  0.2373  0.0961  0.2533
  499DPPI   C3B 7795   1.827   2.832   8.719 -0.2089 -0.0691  0.0331
  499DPPI   C4B 7796   1.476   2.938   8.419 -0.2076  0.3754 -0.1431
  500DPPI    C1 7797  12.337  14.244  10.132 -0.1172  0.0681  0.0320
  500DPPI    C2 7798  12.058  14.323  10.408 -0.1092 -0.2446  0.1337
  500DPPI    C3 7799  12.439  14.269  10.518 -0.0518 -0.0707  0.0243
  500DPPI   PO4 7800  12.294  14.113  10.049 -0.0127 -0.2548  0.2882
  500DPPI   GL1 7801  12.385  14.177   9.568  0.2066  0.0886  0.0031
  500DPPI   GL2 7802  12.315  13.840   9.555 -0.0169  0.3383  0.0455
  500DPPI   C1A 7803  12.270  14.201   9.089  0.1252  0.1838  0.1960
  500DPPI   C2A 7804  12.311  14.225   8.640  0.0027  0.3708 -0.1446
  500DPPI   C3A 7805  12.540  14.161   8.194 -0.2400 -0.1438 -0.1898
  500DPPI   C4A 7806  12.643  14.283   7.746  0.2016  0.0658  0.0859
  500DPPI   C1B 7807  12.468  13.661   9.158  0.0922 -0.1715 -0.2758
  500DPPI   C2B 7808  12.586  13.610   8.738 -0.3723  0.0741  0.0435
  500DPPI   C3B 7809  12.796  13.573   8.339  0.2783  0.2758  0.3731
  500DPPI   C4B 7810  12.962  13.505   7.886 -0.1692  0.1411 -0.4268
  501DPPI    C1 7811   0.149   1.245  10.734 -0.1194 -0.2192  0.1682
  501DPPI    C2 7812   0.392   1.188  11.047  0.0902 -0.0696  0.0348
  501DPPI    C3 7813  -0.003   1.215  11.103  0.1177 -0.1450  0.2737
  501DPPI   PO4 7814   0.246   1.072  10.508 -0.2604  0.3132  0.1248
  501DPPI   GL1 7815   0.184   0.973  10.023  0.1176  0.1939 -0.0725
  501DPPI   GL2 7816   0.355   0.844   9.854 -0.0371 -0.2020 -0.0989
  501DPPI   C1A 7817  -0.085   1.173   9.696 -0.0567 -0.1988 -0.1098
  501DPPI   C2A 7818  -0.028   1.268   9.231 -0.3685  0.1523 -0.0580
  501DPPI   C3A 7819  -0.001   1.289   8.919 -0.3183 -0.1901 -0.1454
  501DPPI   C4A 7820  -0.053   1.280   8.399  0.0784  0.0348 -0.1103
  501DPPI   C1B 7821   0.384   0.940   9.465  0.2443  0.0392 -0.0310
  501DPPI   C2B 7822   0.422   1.022   9.062 -0.1428  0.1435  0.1267
  501DPPI   C3B 7823   0.521   1.090   8.644 -0.0453 -0.3528 -0.1625
  501DPPI   C4B 7824   0.346   0.920   8.227 -0.2269 -0.0152  0.1474
  502DPPI    C1 7825   2.438  13.115  10.500  0.3323  0.0370  0.1325
  502DPPI    C2 7826   2.391  13.445  10.722 -0.0684  0.1291 -0.0799
  502DPPI    C3 7827   2.155  13.128  10.782  0.1214 -0.0134 -0.0742
  502DPPI   PO4 7828   2.722  13.213  10.315 -0.0961 -0.1338 -0.4273
  502DPPI   GL1 7829   2.818  13.482   9.995 -0.1566 -0.0309 -0.4314
  502DPPI   GL2 7830   2.801  13.320   9.803 -0.0031 -0.0226 -0.2711
  502DPPI   C1A 7831   2.776  13.751   9.538  0.0831  0.1139 -0.0505
  502DPPI   C2A 7832   2.853  13.721   9.100  0.0210 -0.1479 -0.0292
  502DPPI   C3A 7833   2.834  13.694   8.701 -0.2874  0.1380  0.1257
  502DPPI   C4A 7834   2.955  13.611   8.330 -0.1211 -0.0730 -0.0759
  502DPPI   C1B 7835   2.813  13.253   9.375  0.4182  0.3992 -0.3852
  502DPPI   C2B 7836   2.724  13.232   8.933  0.1114 -0.0936  0.2961
  502DPPI   C3B 7837   2.676  13.236   8.521  0.0817 -0.2840 -0.1049
  502DPPI   C4B 7838   2.461  13.629   8.356 -0.0175  0.1457 -0.0875
  503DPPI    C1 7839   0.688  12.587  10.284 -0.0158 -0.0737  0.1371
  503DPPI    C2 7840   0.714  12.830   9.967  0.2380 -0.0732  0.1562
  503DPPI    C3 7841   0.510  12.945  10.291  0.2141  0.0433  0.1004
  503DPPI   PO4 7842   0.678  12.276  10.068  0.2014 -0.0815 -0.1112
  503DPPI   GL1 7843   0.579  12.302   9.594  0.2984  0.0469 -0.0053
  503DPPI   GL2 7844   0.513  12.584   9.570  0.1433 -0.0063 -0.1729
  503DPPI   C1A 7845   0.542  12.205   9.196  0.0384  0.2828  0.0541
  503DPPI   C2A 7846   0.484  12.002   8.721 -0.3846 -0.0516 -0.2860
  503DPPI   C3A 7847   0.346  11.764   8.336  0.0763 -0.0816 -0.4365
  503DPPI   C4A 7848   0.379  11.393   8.051 -0.0887  0.0685 -0.0270
  503DPPI   C1B 7849   0.744  12.675   9.105  0.0898  0.1429  0.0670
  503DPPI   C2B 7850   0.758  12.682   8.785 -0.0619 -0.0181  0.0524
  503DPPI   C3B 7851   0.906  12.707   8.423 -0.1227 -0.1410  0.0119
  503DPPI   C4B 7852   0.861  12.888   8.096 -0.2649 -0.0831 -0.2634
  504DPPI    C1 7853  13.815   8.916  10.144  0.0756  0.0316  0.1381
  504DPPI    C2 7854  13.871   9.014  10.528 -0.2802 -0.1370  0.2367
  504DPPI    C3 7855  13.622   9.229  10.300  0.0959  0.0963  0.0349
  504DPPI   PO4 7856  14.018   8.955  10.052 -0.0922  0.0291  0.2683
  504DPPI   GL1 7857  13.976   9.047   9.631 -0.1523  0.0545  0.0444
  504DPPI   GL2 7858  13.775   9.269   9.465 -0.3812 -0.2333 -0.1061
  504DPPI   C1A 7859  13.913   8.804   9.292  0.2474  0.2080  0.0835
  504DPPI   C2A 7860  13.905   8.811   8.779 -0.1748 -0.1666  0.4316
  504DPPI   C3A 7861  13.716   8.611   8.426 -0.2179 -0.1997  0.0873
  504DPPI   C4A 7862  13.578   8.363   8.043  0.0091  0.2571 -0.2389
  504DPPI   C1B 7863  14.083   9.193   9.074 -0.1383  0.1320  0.0847
  504DPPI   C2B 7864  14.321   9.325   8.711  0.4294  0.0855 -0.2382
  504DPPI   C3B 7865  14.507   9.399   8.249 -0.0870 -0.2078 -0.0091
  504DPPI   C4B 7866  14.637   9.528   7.910  0.1425 -0.0612  0.0222
  505DPPI    C1 7867  17.633  14.097   9.879 -0.0523  0.0375  0.0370
  505DPPI    C2 7868  17.744  14.275  10.219 -0.1751 -0.1130  0.1572
  505DPPI    C3 7869  17.931  13.943  10.097  0.0546  0.0947 -0.0674
  505DPPI   PO4 7870  17.670  14.284   9.672  0.1780  0.0685  0.4040
  505DPPI   GL1 7871  17.289  14.293   9.408 -0.2630  0.0459 -0.2507
  505DPPI   GL2 7872  17.395  13.926   9.453  0.0716  0.2380  0.0979
  505DPPI   C1A 7873  17.544  14.316   8.961  0.2536 -0.3335  0.1468
  505DPPI   C2A 7874  17.495  14.290   8.475 -0.2052  0.1094 -0.1075
  505DPPI   C3A 7875  17.535  14.145   8.044 -0.1127 -0.1525 -0.4331
  505DPPI   C4A 7876  17.240  14.374   7.777 -0.0695 -0.0643 -0.0426
  505DPPI   C1B 7877  17.586  13.836   9.122  0.0077 -0.3446 -0.1760
  505DPPI   C2B 7878  17.528  13.858   8.728  0.3554  0.0833 -0.3584
  505DPPI   C3B 7879  17.419  13.747   8.334 -0.2773 -0.1526  0.2016
  505DPPI   C4B 7880  17.735  13.728   7.984 -0.1175  0.2127 -0.1449
  506DPPI    C1 7881   0.676   7.881  10.592  0.1934  0.0502  0.0360
  506DPPI    C2 7882   0.617   8.233  10.411  0.1252  0.0866  0.1282
  506DPPI    C3 7883   0.936   8.181  10.647  0.1824  0.0581  0.0451
  506DPPI   PO4 7884   0.696   7.676  10.322  0.3201  0.1269  0.0648
  506DPPI   GL1 7885   0.811   7.633   9.982  0.2558  0.1250  0.1251
  506DPPI   GL2 7886   1.062   7.881   9.880  0.0386 -0.0317 -0.2785
  506DPPI   C1A 7887   1.011   7.424   9.713 -0.0407  0.4564  0.0742
  506DPPI   C2A 7888   1.081   7.341   9.293 -0.0280  0.1853 -0.3273
  506DPPI   C3A 7889   0.939   7.171   8.982 -0.3696  0.2477  0.1135
  506DPPI   C4A 7890   0.894   7.079   8.652  0.5025 -0.1250 -0.0084
  506DPPI   C1B 7891   0.715   7.764   9.484 -0.0931  0.1988  0.0737
  506DPPI   C2B 7892   0.705   7.594   9.120 -0.4015  0.1202  0.0748
  506DPPI   C3B 7893   0.692   7.559   8.643  0.1097  0.1607 -0.3080
  506DPPI   C4B 7894   0.687   7.361   8.247 -0.1165 -0.1228 -0.1461
  507DPPI    C1 7895   3.915   3.918  10.517 -0.0107  0.1079 -0.1460
  507DPPI    C2 7896   3.772   4.231  10.721  0.1646  0.0192  0.1180
  507DPPI    C3 7897   4.083   4.024  10.864  0.0875 -0.2410 -0.0830
  507DPPI   PO4 7898   3.732   3.810  10.475 -0.1094  0.1842  0.0631
  507DPPI   GL1 7899   3.419   3.755  10.132 -0.0876  0.1714  0.0028
  507DPPI   GL2 7900   3.563   3.485   9.972 -0.1474  0.0576 -0.3175
  507DPPI   C1A 7901   3.143   3.634   9.778  0.0553  0.1010  0.1879
  507DPPI   C2A 7902   3.023   3.588   9.323 -0.4886  0.1477  0.2306
  507DPPI   C3A 7903   3.043   3.573   8.885 -0.0325 -0.0189  0.2428
  507DPPI   C4A 7904   3.127   3.877   8.523  0.0584 -0.1664  0.0114
  507DPPI   C1B 7905   3.716   3.661   9.625  0.1259  0.0108 -0.0023
  507DPPI   C2B 7906   3.970   3.660   9.239  0.0121  0.1318 -0.0687
  507DPPI   C3B 7907   4.045   3.695   8.918 -0.3814  0.1783  0.0656
  507DPPI   C4B 7908   4.154   3.596   8.568 -0.0565  0.0861 -0.3908
  508DPPI    C1 7909  16.790  11.220  10.473 -0.1931 -0.0623 -0.0985
  508DPPI    C2 7910  16.411  11.111  10.543 -0.1622 -0.1270 -0.0308
  508DPPI    C3 7911  16.706  10.970  10.773 -0.0923 -0.1082 -0.1083
  508DPPI   PO4 7912  16.801  11.213  10.245 -0.4620 -0.1653  0.0373
  508DPPI   GL1 7913  16.841  11.265   9.815 -0.3603  0.0329 -0.4581
  508DPPI   GL2 7914  16.781  10.940   9.812 -0.2745  0.2338  0.1189
  508DPPI   C1A 7915  16.728  11.562   9.434  0.0929 -0.1884  0.0203
  508DPPI   C2A 7916  16.493  11.543   9.083 -0.2188  0.0701 -0.0187
  508DPPI   C3A 7917  16.492  11.550   8.586 -0.0295  0.0888 -0.2186
  508DPPI   C4A 7918  16.594  11.483   8.186  0.3588 -0.0532  0.0159
  508DPPI   C1B 7919  16.888  11.040   9.344  0.1700  0.0227 -0.1890
  508DPPI   C2B 7920  16.760  11.159   8.880  0.2012 -0.1996 -0.0317
  508DPPI   C3B 7921  16.808  11.076   8.431 -0.0966 -0.3549 -0.1906
  508DPPI   C4B 7922  16.757  11.035   7.986  0.2221  0.1990 -0.3290
  509DPPI    C1 7923   6.826  12.812  10.041  0.0216  0.1256  0.0483
  509DPPI    C2 7924   6.550  12.523  10.022 -0.0546  0.2054 -0.0774
  509DPPI    C3 7925   6.521  12.809  10.300  0.0119  0.1024  0.0366
  509DPPI   PO4 7926   6.867  12.941   9.848  0.3462 -0.2545  0.1022
  509DPPI   GL1 7927   6.981  13.162   9.352 -0.0487  0.0807 -0.0206
  509DPPI   GL2 7928   7.234  13.193   9.344  0.2992 -0.0251 -0.0430
  509DPPI   C1A 7929   6.637  12.929   9.126  0.0644  0.0961  0.4039
  509DPPI   C2A 7930   6.528  12.872   8.636  0.0834 -0.2136 -0.2003
  509DPPI   C3A 7931   6.267  12.911   8.204  0.4283 -0.2212 -0.0433
  509DPPI   C4A 7932   6.098  12.854   7.779 -0.0194 -0.1429  0.0200
  509DPPI   C1B 7933   7.359  13.344   8.851  0.1373  0.2667  0.0333
  509DPPI   C2B 7934   7.328  13.195   8.463 -0.2698  0.0763  0.2910
  509DPPI   C3B 7935   7.233  12.957   8.067  0.0383 -0.0460 -0.0173
  509DPPI   C4B 7936   6.771  12.886   7.853  0.0376  0.2450  0.1958
  510DPPI    C1 7937   1.218  14.940  10.116  0.1150 -0.1086  0.0631
  510DPPI    C2 7938   1.219  15.135  10.465 -0.2934  0.2267 -0.1155
  510DPPI    C3 7939   1.058  14.770  10.441  0.0099  0.0742  0.1082
  510DPPI   PO4 7940   1.261  15.072   9.983  0.0238 -0.1094 -0.1002
  510DPPI   GL1 7941   1.293  14.886   9.633  0.1377  0.4415  0.1122
  510DPPI   GL2 7942   1.140  14.631   9.669  0.2720 -0.0986  0.0782
  510DPPI   C1A 7943   1.284  14.973   9.273  0.0342  0.2403  0.3077
  510DPPI   C2A 7944   1.319  15.092   8.875 -0.1680 -0.0853  0.1754
  510DPPI   C3A 7945   1.508  15.184   8.486  0.2335  0.0156 -0.1169
  510DPPI   C4A 7946   1.568  14.975   8.152 -0.4401 -0.1037 -0.1685
  510DPPI   C1B 7947   0.992  14.584   9.279 -0.1404 -0.0701  0.3064
  510DPPI   C2B 7948   1.039  14.672   8.851 -0.2453  0.3606 -0.0730
  510DPPI   C3B 7949   0.962  14.882   8.538  0.0986  0.0757 -0.0989
  510DPPI   C4B 7950   1.099  14.954   8.166  0.1069 -0.2076  0.3117
  511DPPI    C1 7951  16.711   0.224  10.292  0.0162  0.3109 -0.0099
  511DPPI    C2 7952  16.706  -0.031  10.600 -0.4932 -0.2049 -0.4227
  511DPPI    C3 7953  17.040   0.017  10.385 -0.2293 -0.0838  0.0020
  511DPPI   PO4 7954  16.438   0.064  10.160 -0.1050 -0.1002 -0.3252
  511DPPI   GL1 7955  16.287   0.224   9.891 -0.3772  0.1170  0.1914
  511DPPI   GL2 7956  16.103   0.046   9.694 -0.3085  0.1334 -0.0903
  511DPPI   C1A 7957  16.396   0.349   9.484  0.1202 -0.0620 -0.1465
  511DPPI   C2A 7958  16.491   0.338   9.048  0.1257  0.1549 -0.3533
  511DPPI   C3A 7959  16.525   0.293   8.654  0.0886  0.1291 -0.2320
  511DPPI   C4A 7960  16.727   0.272   8.216  0.2315  0.4545 -0.0828
  511DPPI   C1B 7961  15.893   0.193   9.372  0.1580  0.1136  0.0181
  511DPPI   C2B 7962  15.967   0.303   8.941 -0.1788 -0.0739  0.0464
  511DPPI   C3B 7963  16.044   0.256   8.487  0.2068  0.1226 -0.1066
  511DPPI   C4B 7964  15.986   0.237   7.999 -0.2058  0.1039 -0.2669
  512DPPI    C1 7965   3.002   9.469  10.767 -0.2502 -0.3663 -0.0618
  512DPPI    C2 7966   2.828   9.719  11.025  0.3365 -0.1096  0.1030
  512DPPI    C3 7967   2.931   9.351  11.142  0.0046 -0.2289  0.0320
  512DPPI   PO4 7968   2.932   9.500  10.489 -0.3172 -0.1405 -0.1921
  512DPPI   GL1 7969   2.729   9.396  10.038  0.1000  0.1392  0.0766
  512DPPI   GL2 7970   2.694   9.015  10.087 -0.2077  0.0576 -0.1010
  512DPPI   C1A 7971   2.583   9.349   9.512 -0.2053 -0.1640  0.0205
  512DPPI   C2A 7972   2.619   9.280   9.008 -0.0410 -0.2055 -0.0404
  512DPPI   C3A 7973   2.366   9.167   8.645 -0.0354 -0.2819  0.1905
  512DPPI   C4A 7974   2.155   8.987   8.190  0.3982  0.0043  0.2721
  512DPPI   C1B 7975   2.628   8.836   9.634 -0.0039 -0.1309  0.0457
  512DPPI   C2B 7976   2.660   8.710   9.199  0.1046  0.2615  0.0903
  512DPPI   C3B 7977   2.609   8.707   8.765 -0.4229 -0.1257  0.2225
  512DPPI   C4B 7978   2.592   8.779   8.411  0.0225 -0.0489 -0.0733
  513PYPI    C1 7979  13.833  10.462  10.074 -0.1769 -0.0682  0.1301
  513PYPI    C2 7980  13.504  10.665  10.177 -0.0108  0.2703  0.0081
  513PYPI    C3 7981  13.780  10.579  10.453 -0.0029  0.3591  0.0281
  513PYPI   PO4 7982  13.898  10.558   9.834  0.1238  0.2879 -0.3329
  513PYPI   GL1 7983  14.228  10.620   9.640  0.1440 -0.0678 -0.0529
  513PYPI   GL2 7984  14.373  10.907   9.580 -0.0159  0.1124  0.0527
  513PYPI   C1A 7985  14.275  10.396   9.289  0.0851  0.0718 -0.0406
  513PYPI   C2A 7986  14.509  10.312   8.982 -0.2454 -0.3988 -0.1159
  513PYPI   D3A 7987  14.615  10.271   8.462 -0.1504 -0.1564  0.0240
  513PYPI   C4A 7988  14.563  10.053   8.078  0.2334  0.1674  0.2575
  513PYPI   C1B 7989  14.626  11.143   9.231  0.2873 -0.2697  0.2433
  513PYPI   C2B 7990  14.667  11.133   8.781  0.0114  0.2121 -0.0423
  513PYPI   C3B 7991  14.460  11.221   8.388 -0.0752 -0.0503 -0.3230
  513PYPI   C4B 7992  14.277  11.060   8.016 -0.1598 -0.1054  0.1558
  514PYPI    C1 7993  15.775  17.876  10.171 -0.3687 -0.1603  0.1212
  514PYPI    C2 7994  16.041  17.742  10.438 -0.3195 -0.2974  0.0044
  514PYPI    C3 7995  15.678  17.858  10.558 -0.1485  0.0630  0.1905
  514PYPI   PO4 7996  15.869  18.101   9.974 -0.3003  0.2045 -0.2349
  514PYPI   GL1 7997  16.022  18.024   9.600 -0.0328 -0.2325  0.2406
  514PYPI   GL2 7998  16.224  17.823   9.461 -0.0863  0.2248 -0.0105
  514PYPI   C1A 7999  16.033  18.207   9.249  0.0764 -0.1766  0.0388
  514PYPI   C2A 8000  16.076  18.267   8.730 -0.0889  0.0643  0.1243
  514PYPI   D3A 8001  16.204  18.292   8.276  0.0223 -0.1430  0.1769
  514PYPI   C4A 8002  16.205  18.230   7.817  0.0034 -0.4864  0.1690
  514PYPI   C1B 8003  16.264  17.797   8.894  0.0050  0.0305  0.0397
  514PYPI   C2B 8004  16.277  17.878   8.505 -0.0026  0.0115  0.0660
  514PYPI   C3B 8005  16.302  17.741   8.154 -0.1020 -0.0884  0.3022
  514PYPI   C4B 8006  16.615  17.567   8.009 -0.0561  0.1275  0.3875
  515PYPI    C1 8007   7.318  14.769   9.879 -0.2985  0.0242  0.1055
  515PYPI    C2 8008   7.561  14.991  10.106 -0.1153 -0.0083 -0.0563
  515PYPI    C3 8009   7.531  14.598  10.171 -0.2097  0.0136  0.0350
  515PYPI   PO4 8010   7.369  14.866   9.597  0.0341 -0.0479 -0.0550
  515PYPI   GL1 8011   7.488  14.926   9.171 -0.2505 -0.1715  0.0359
  515PYPI   GL2 8012   7.800  15.018   9.112  0.0706  0.0398 -0.1656
  515PYPI   C1A 8013   7.456  14.830   8.703  0.2765  0.0049  0.3139
  515PYPI   C2A 8014   7.600  14.796   8.166 -0.1567 -0.2692 -0.0040
  515PYPI   D3A 8015   7.641  14.962   7.691 -0.0948  0.1200 -0.1896
  515PYPI   C4A 8016   7.504  14.843   7.348 -0.0520 -0.0060 -0.0391
  515PYPI   C1B 8017   7.909  15.121   8.845 -0.0041 -0.1935 -0.1915
  515PYPI   C2B 8018   7.899  15.063   8.497 -0.3431 -0.2558  0.2340
  515PYPI   C3B 8019   8.041  15.067   8.002 -0.0690 -0.3272  0.1498
  515PYPI   C4B 8020   8.103  15.155   7.650  0.1233  0.2968  0.0207
  516PYPI    C1 8021   2.031   4.036  10.617  0.0610 -0.1303 -0.0961
  516PYPI    C2 8022   1.657   3.923  10.703 -0.0239  0.3151  0.1510
  516PYPI    C3 8023   1.923   3.977  10.998  0.2720 -0.0996 -0.0301
  516PYPI   PO4 8024   1.985   4.241  10.450 -0.0371 -0.0763 -0.0189
  516PYPI   GL1 8025   1.677   4.279  10.039  0.0875  0.1583  0.0335
  516PYPI   GL2 8026   1.915   4.093   9.877 -0.0158  0.0720  0.3903
  516PYPI   C1A 8027   1.419   4.388   9.697  0.0523  0.0676  0.1958
  516PYPI   C2A 8028   1.372   4.369   9.177 -0.1472  0.0020  0.1179
  516PYPI   D3A 8029   1.328   4.609   8.858  0.0959  0.1397  0.1563
  516PYPI   C4A 8030   1.203   4.566   8.456 -0.0855 -0.2303  0.2224
  516PYPI   C1B 8031   1.772   4.145   9.469 -0.1667 -0.2602  0.2747
  516PYPI   C2B 8032   1.765   4.155   9.057  0.1499 -0.0977  0.1053
  516PYPI   C3B 8033   1.584   4.258   8.675  0.0951 -0.0590  0.1945
  516PYPI   C4B 8034   1.263   4.003   8.350 -0.1063  0.3372 -0.4759
  517PYPI    C1 8035   5.231   0.106  10.294  0.0325 -0.0414 -0.2439
  517PYPI    C2 8036   5.502   0.236  10.558  0.1544 -0.0183 -0.3791
  517PYPI    C3 8037   5.141   0.119  10.684  0.0558  0.4079 -0.2477
  517PYPI   PO4 8038   5.301   0.244  10.062 -0.0926  0.1406 -0.0390
  517PYPI   GL1 8039   5.207   0.222   9.637 -0.0277 -0.2877 -0.2233
  517PYPI   GL2 8040   4.883   0.344   9.743 -0.1272  0.1153 -0.1472
  517PYPI   C1A 8041   5.257   0.232   9.135 -0.2017 -0.1160  0.1451
  517PYPI   C2A 8042   5.253   0.360   8.780 -0.1711  0.2263 -0.0514
  517PYPI   D3A 8043   5.454   0.413   8.428 -0.3610  0.2468 -0.2829
  517PYPI   C4A 8044   5.529   0.725   8.089  0.2002  0.0741  0.0030
  517PYPI   C1B 8045   4.808   0.269   9.372  0.2811  0.4279  0.3623
  517PYPI   C2B 8046   4.653   0.292   8.990 -0.2180 -0.3126  0.2097
  517PYPI   C3B 8047   4.617   0.313   8.550 -0.1418  0.0134 -0.0681
  517PYPI   C4B 8048   4.761   0.323   8.102 -0.0559 -0.2400  0.2102
  518PYPI    C1 8049  10.994   1.901  10.691 -0.0233 -0.0942  0.1996
  518PYPI    C2 8050  10.841   1.558  10.828 -0.0060 -0.1087  0.1826
  518PYPI    C3 8051  10.678   1.907  10.936  0.0171 -0.1196  0.2524
  518PYPI   PO4 8052  10.984   1.882  10.387  0.0081 -0.0252  0.3795
  518PYPI   GL1 8053  11.237   2.044  10.135  0.0625  0.2906 -0.0083
  518PYPI   GL2 8054  10.998   2.345  10.036  0.0533 -0.0773  0.0097
  518PYPI   C1A 8055  11.411   1.920   9.747  0.3460 -0.0357 -0.1152
  518PYPI   C2A 8056  11.469   2.033   9.370  0.0973  0.0119  0.4148
  518PYPI   D3A 8057  11.245   2.362   9.139 -0.1227  0.0125  0.0728
  518PYPI   C4A 8058  11.148   2.385   8.746 -0.1078  0.0140  0.0134
  518PYPI   C1B 8059  11.017   2.475   9.573 -0.0104  0.0276 -0.2244
  518PYPI   C2B 8060  11.071   2.760   9.225  0.0093 -0.1309  0.2888
  518PYPI   C3B 8061  11.332   3.007   8.927  0.0905 -0.2039  0.0188
  518PYPI   C4B 8062  11.343   3.171   8.513  0.1765  0.1139  0.3435
  519PYPI    C1 8063   4.271   4.160  10.194 -0.1912  0.0126 -0.0399
  519PYPI    C2 8064   4.668   4.114  10.212 -0.1801  0.1112 -0.0264
  519PYPI    C3 8065   4.440   3.825  10.056 -0.1162 -0.0066  0.0962
  519PYPI   PO4 8066   4.257   4.381  10.099 -0.4677  0.1242  0.2229
  519PYPI   GL1 8067   4.512   4.385   9.698 -0.0442  0.0231 -0.1385
  519PYPI   GL2 8068   4.362   4.097   9.643  0.0206  0.3012  0.1919
  519PYPI   C1A 8069   4.566   4.501   9.332  0.2130 -0.0607  0.1037
  519PYPI   C2A 8070   4.395   4.471   9.002 -0.0608 -0.3530  0.1424
  519PYPI   D3A 8071   4.170   4.613   8.531 -0.2240  0.3114 -0.0123
  519PYPI   C4A 8072   3.755   4.534   8.548 -0.1640  0.0524 -0.4414
  519PYPI   C1B 8073   4.059   4.065   9.440  0.2806  0.1249 -0.5986
  519PYPI   C2B 8074   3.927   4.213   9.050  0.1579 -0.0103 -0.2653
  519PYPI   C3B 8075   4.144   4.149   8.597  0.2380 -0.4287 -0.0801
  519PYPI   C4B 8076   4.047   4.197   8.186  0.1246  0.3046 -0.0901
  520PYPI    C1 8077   4.162   2.074  10.201 -0.2979  0.1567 -0.1704
  520PYPI    C2 8078   3.768   2.052  10.131 -0.3132 -0.4728  0.0502
  520PYPI    C3 8079   3.963   1.735  10.279  0.2350 -0.0883  0.1822
  520PYPI   PO4 8080   4.188   2.310  10.086 -0.1189  0.0184  0.0553
  520PYPI   GL1 8081   4.085   2.343   9.713 -0.1671  0.0117  0.2913
  520PYPI   GL2 8082   3.788   2.319   9.686 -0.0849  0.1578 -0.0630
  520PYPI   C1A 8083   4.134   2.700   9.454  0.0681  0.0080  0.1649
  520PYPI   C2A 8084   4.222   2.713   9.028  0.2523  0.2651 -0.2747
  520PYPI   D3A 8085   4.185   2.794   8.529 -0.2274  0.1416  0.0070
  520PYPI   C4A 8086   4.255   2.463   8.237 -0.0680 -0.0758 -0.1446
  520PYPI   C1B 8087   3.795   2.220   9.362  0.0411 -0.2417 -0.0205
  520PYPI   C2B 8088   3.578   2.051   9.104  0.3023  0.4439  0.0258
  520PYPI   C3B 8089   3.504   1.644   9.029 -0.0498  0.0804 -0.0472
  520PYPI   C4B 8090   3.772   1.312   8.979  0.0510  0.2556  0.0276
  521PYPI    C1 8091   0.408   2.297  10.489  0.1647  0.0508  0.1541
  521PYPI    C2 8092   0.534   2.206  10.858  0.0516 -0.3083  0.1077
  521PYPI    C3 8093   0.755   2.106  10.540  0.3052  0.2837  0.0853
  521PYPI   PO4 8094   0.381   2.574  10.493  0.2377 -0.0246 -0.2378
  521PYPI   GL1 8095   0.289   2.818  10.223  0.0537 -0.0008  0.1576
  521PYPI   GL2 8096  -0.020   2.610  10.155 -0.3574  0.0024 -0.0478
  521PYPI   C1A 8097   0.145   3.089   9.895  0.4825  0.4050  0.3024
  521PYPI   C2A 8098   0.171   3.144   9.424  0.0491  0.1268  0.3143
  521PYPI   D3A 8099   0.268   3.212   9.092  0.1892 -0.1055  0.0453
  521PYPI   C4A 8100   0.160   3.345   8.710  0.0155  0.0192  0.0110
  521PYPI   C1B 8101   0.315   2.488   9.782  0.2565  0.2176 -0.0348
  521PYPI   C2B 8102   0.288   2.621   9.377  0.0655  0.1658 -0.0121
  521PYPI   C3B 8103   0.225   2.705   8.951 -0.1190 -0.0498  0.3309
  521PYPI   C4B 8104   0.201   2.655   8.441 -0.5475 -0.2552  0.0171
  522PYPI    C1 8105  11.582  13.413  10.104  0.1915  0.0527 -0.0061
  522PYPI    C2 8106  11.710  13.487  10.475  0.1830  0.0760 -0.0078
  522PYPI    C3 8107  11.542  13.135  10.388  0.1545  0.0832  0.0185
  522PYPI   PO4 8108  11.431  13.583   9.991  0.1612 -0.1999  0.0037
  522PYPI   GL1 8109  11.340  13.703   9.545 -0.0948 -0.0153 -0.0309
  522PYPI   GL2 8110  11.688  13.664   9.446  0.1424 -0.1564  0.1160
  522PYPI   C1A 8111  11.398  13.427   9.153 -0.1050  0.0875 -0.0282
  522PYPI   C2A 8112  11.238  13.348   8.755 -0.0857 -0.1617 -0.1095
  522PYPI   D3A 8113  11.270  13.217   8.350 -0.0127  0.2031  0.0678
  522PYPI   C4A 8114  11.429  13.561   8.249  0.0007  0.1560 -0.0113
  522PYPI   C1B 8115  11.930  13.802   9.229 -0.1141  0.0038 -0.0972
  522PYPI   C2B 8116  12.106  13.820   8.830 -0.2948  0.2037 -0.1681
  522PYPI   C3B 8117  12.162  13.757   8.313  0.0687 -0.0859 -0.1389
  522PYPI   C4B 8118  11.869  13.897   8.167 -0.0702  0.1075  0.0002
  523PYPI    C1 8119   6.526  14.669   9.843  0.0536 -0.2257 -0.1404
  523PYPI    C2 8120   6.847  14.571  10.061  0.0026 -0.2139 -0.0597
  523PYPI    C3 8121   6.631  14.894  10.157 -0.0738 -0.2612 -0.0721
  523PYPI   PO4 8122   6.425  14.470   9.837  0.1942  0.1836 -0.0346
  523PYPI   GL1 8123   6.373  14.085   9.622  0.0897 -0.0577 -0.0278
  523PYPI   GL2 8124   6.586  13.932   9.476 -0.0686  0.2994  0.1593
  523PYPI   C1A 8125   6.367  14.044   9.028  0.1297  0.3221 -0.0241
  523PYPI   C2A 8126   6.146  14.143   8.689 -0.0051  0.0981 -0.4059
  523PYPI   D3A 8127   5.704  14.075   8.383 -0.0096 -0.0623 -0.0922
  523PYPI   C4A 8128   5.665  14.112   7.948 -0.1356  0.1877 -0.0523
  523PYPI   C1B 8129   6.529  13.578   9.191 -0.0560  0.0232 -0.0396
  523PYPI   C2B 8130   6.535  13.621   8.859 -0.4583  0.1264  0.1886
  523PYPI   C3B 8131   6.372  13.442   8.507  0.1297 -0.3116 -0.0068
  523PYPI   C4B 8132   6.348  13.402   8.017  0.0764  0.1220 -0.1467
  524PYPI    C1 8133   7.132   5.692  10.912 -0.0726 -0.1724  0.0805
  524PYPI    C2 8134   6.745   5.667  11.008 -0.0610  0.1314  0.2170
  524PYPI    C3 8135   6.980   5.345  11.040 -0.3599 -0.1294 -0.1358
  524PYPI   PO4 8136   7.159   5.807  10.537 -0.0171 -0.2036 -0.0491
  524PYPI   GL1 8137   7.098   5.770  10.132  0.0999  0.0308  0.3907
  524PYPI   GL2 8138   7.290   5.983   9.991 -0.1338 -0.0366  0.1910
  524PYPI   C1A 8139   7.136   5.666   9.682 -0.0147 -0.1738 -0.0152
  524PYPI   C2A 8140   7.106   5.541   9.278  0.0544 -0.2308 -0.0422
  524PYPI   D3A 8141   7.031   5.558   8.865 -0.2462  0.0533 -0.1142
  524PYPI   C4A 8142   7.018   5.630   8.444  0.1020  0.2556  0.0780
  524PYPI   C1B 8143   7.244   6.189   9.540 -0.0033 -0.2080 -0.1028
  524PYPI   C2B 8144   7.215   6.212   9.126 -0.1619 -0.2762 -0.0582
  524PYPI   C3B 8145   7.061   6.045   8.686 -0.0151 -0.2154  0.0139
  524PYPI   C4B 8146   7.135   6.028   8.151 -0.0987 -0.1548 -0.1533
  525PYPI    C1 8147   3.937  14.813   9.972  0.5322 -0.0268  0.2849
  525PYPI    C2 8148   3.697  14.910  10.277  0.0836 -0.0570 -0.0484
  525PYPI    C3 8149   3.767  14.525  10.192  0.3561 -0.0480  0.1241
  525PYPI   PO4 8150   4.116  14.965  10.022  0.2604  0.0143 -0.0729
  525PYPI   GL1 8151   4.342  15.139   9.838 -0.2527  0.2816 -0.1962
  525PYPI   GL2 8152   4.137  15.376   9.672  0.4208 -0.3374 -0.0457
  525PYPI   C1A 8153   4.170  14.947   9.428 -0.0686  0.1617  0.1302
  525PYPI   C2A 8154   4.126  15.067   9.024 -0.0349 -0.1203 -0.0046
  525PYPI   D3A 8155   4.161  15.037   8.566 -0.0310  0.1906  0.4148
  525PYPI   C4A 8156   4.077  14.845   8.099 -0.1331 -0.0956 -0.1801
  525PYPI   C1B 8157   4.248  15.515   9.276 -0.0783  0.0905  0.0032
  525PYPI   C2B 8158   4.258  15.549   8.790  0.0330 -0.0506 -0.0073
  525PYPI   C3B 8159   4.420  15.527   8.397 -0.2263  0.0191  0.1892
  525PYPI   C4B 8160   4.781  15.518   8.032  0.1003  0.1134 -0.1380
  526PYPI    C1 8161   5.921   5.214  10.240 -0.2854 -0.0043 -0.1575
  526PYPI    C2 8162   6.046   4.966  10.528  0.1586  0.3280 -0.0540
  526PYPI    C3 8163   5.848   5.300  10.624  0.1397  0.3439 -0.1475
  526PYPI   PO4 8164   6.011   4.963   9.954 -0.0944  0.1336 -0.3121
  526PYPI   GL1 8165   6.470   4.880   9.753 -0.1916  0.0452 -0.1314
  526PYPI   GL2 8166   6.519   5.204   9.677  0.3193  0.0241 -0.3814
  526PYPI   C1A 8167   6.326   4.851   9.392  0.2854  0.0367  0.1423
  526PYPI   C2A 8168   6.356   5.153   9.012  0.1068  0.1179  0.2917
  526PYPI   D3A 8169   6.139   5.329   8.617 -0.3736 -0.0627 -0.0262
  526PYPI   C4A 8170   5.723   5.382   8.571  0.2185  0.0584  0.1060
  526PYPI   C1B 8171   6.532   5.394   9.396  0.3025  0.2304 -0.3167
  526PYPI   C2B 8172   6.584   5.618   9.051  0.1676 -0.0795  0.2011
  526PYPI   C3B 8173   6.546   5.625   8.750  0.0808  0.0231 -0.0039
  526PYPI   C4B 8174   6.583   5.553   8.245  0.0537  0.0535 -0.6968
  527PYPI    C1 8175   7.525  12.758  10.003  0.1415  0.1988 -0.1327
  527PYPI    C2 8176   7.258  12.806  10.297  0.0666  0.0336 -0.1728
  527PYPI    C3 8177   7.649  12.798  10.381  0.0508  0.0974 -0.0918
  527PYPI   PO4 8178   7.339  12.630   9.859 -0.0066 -0.2260 -0.3750
  527PYPI   GL1 8179   7.264  12.645   9.386 -0.0897 -0.0590 -0.0019
  527PYPI   GL2 8180   7.321  12.271   9.347  0.1191  0.0919 -0.0310
  527PYPI   C1A 8181   7.188  12.789   9.018 -0.0763  0.1178 -0.2614
  527PYPI   C2A 8182   7.012  12.838   8.729 -0.4225 -0.0461  0.3413
  527PYPI   D3A 8183   7.027  12.605   8.408 -0.0834 -0.5632  0.0914
  527PYPI   C4A 8184   7.359  12.409   8.182 -0.0273 -0.0201 -0.1170
  527PYPI   C1B 8185   7.227  12.325   8.799 -0.3682  0.0866 -0.0948
  527PYPI   C2B 8186   7.133  12.118   8.548  0.1634 -0.0128  0.2178
  527PYPI   C3B 8187   7.315  11.904   8.129  0.2980 -0.0040  0.0150
  527PYPI   C4B 8188   7.393  12.067   7.739  0.1104 -0.2169 -0.0622
  528PYPI    C1 8189   3.484  12.030  10.453 -0.2010 -0.0152  0.0273
  528PYPI    C2 8190   3.435  11.983  10.847  0.0377  0.1266  0.0758
  528PYPI    C3 8191   3.531  12.342  10.699 -0.0715  0.0787 -0.1142
  528PYPI   PO4 8192   3.323  11.891  10.345 -0.2250  0.2995  0.1503
  528PYPI   GL1 8193   3.249  11.929   9.939 -0.0266  0.1898 -0.3402
  528PYPI   GL2 8194   3.564  12.127   9.937  0.4040 -0.0908 -0.0940
  528PYPI   C1A 8195   3.227  11.926   9.532 -0.1045  0.0442 -0.0118
  528PYPI   C2A 8196   3.344  11.755   9.118 -0.2750 -0.1247  0.1144
  528PYPI   D3A 8197   3.521  11.649   8.659 -0.0714  0.0749 -0.0044
  528PYPI   C4A 8198   3.702  11.317   8.546  0.0406  0.0094 -0.0347
  528PYPI   C1B 8199   3.613  12.169   9.608  0.2436 -0.2056 -0.1305
  528PYPI   C2B 8200   3.720  12.049   9.088  0.1907 -0.0051  0.0033
  528PYPI   C3B 8201   3.843  12.127   8.751  0.3776  0.0067 -0.0856
  528PYPI   C4B 8202   3.783  12.088   8.337 -0.1862 -0.1816 -0.0228
  529PYPI    C1 8203   9.006  13.601   9.672  0.2013 -0.1244 -0.0751
  529PYPI    C2 8204   8.643  13.457   9.585  0.0510  0.1058  0.1571
  529PYPI    C3 8205   8.955  13.209   9.609 -0.0569 -0.0722 -0.2074
  529PYPI   PO4 8206   8.909  13.860   9.595  0.2234  0.0355  0.1880
  529PYPI   GL1 8207   8.927  13.977   9.137 -0.3968 -0.2668  0.1742
  529PYPI   GL2 8208   9.048  13.672   9.149  0.2664 -0.0367  0.1286
  529PYPI   C1A 8209   9.016  13.882   8.715  0.0413  0.0427 -0.0772
  529PYPI   C2A 8210   8.981  13.805   8.302 -0.1262  0.0251  0.1394
  529PYPI   D3A 8211   8.992  13.816   7.762 -0.1105 -0.2498  0.0174
  529PYPI   C4A 8212   8.708  13.452   7.688  0.0004  0.0973  0.2458
  529PYPI   C1B 8213   8.959  13.384   8.872  0.0517  0.2182  0.0504
  529PYPI   C2B 8214   8.955  13.378   8.431  0.0398  0.1706  0.2620
  529PYPI   C3B 8215   9.028  13.361   8.030  0.1848  0.1776  0.1476
  529PYPI   C4B 8216   9.265  13.394   7.711  0.0956 -0.0246 -0.1383
  530PYPI    C1 8217  11.969   5.208  10.555  0.0022  0.0899 -0.2621
  530PYPI    C2 8218  12.366   5.230  10.599 -0.0153  0.0626 -0.0831
  530PYPI    C3 8219  12.139   5.553  10.665 -0.0541 -0.0142  0.1698
  530PYPI   PO4 8220  11.913   5.065  10.347  0.2757  0.3352  0.0096
  530PYPI   GL1 8221  11.843   5.175   9.902 -0.0278 -0.0838 -0.1506
  530PYPI   GL2 8222  11.545   5.046   9.977 -0.2979 -0.2595 -0.1065
  530PYPI   C1A 8223  11.857   4.873   9.610 -0.0884 -0.1332  0.1136
  530PYPI   C2A 8224  12.005   4.538   9.333  0.2658 -0.0225 -0.3531
  530PYPI   D3A 8225  12.389   4.580   9.272 -0.0669 -0.2119  0.0190
  530PYPI   C4A 8226  12.771   4.778   9.330 -0.0110  0.3450  0.2975
  530PYPI   C1B 8227  11.456   4.615   9.860 -0.3480  0.0709  0.0054
  530PYPI   C2B 8228  11.538   4.298   9.459  0.1235  0.1706  0.4182
  530PYPI   C3B 8229  11.488   4.325   9.061 -0.1165 -0.1109  0.2642
  530PYPI   C4B 8230  11.757   4.499   8.820 -0.1209 -0.1773  0.0895
  531PYPI    C1 8231   4.736  11.565  10.300 -0.0078  0.0700  0.0398
  531PYPI    C2 8232   4.648  11.499  10.685 -0.0779 -0.0128  0.0099
  531PYPI    C3 8233   4.863  11.820  10.581 -0.1653  0.0773  0.1052
  531PYPI   PO4 8234   4.727  11.427  10.107  0.0598 -0.0895  0.1264
  531PYPI   GL1 8235   4.696  11.572   9.741  0.0354 -0.1255 -0.2332
  531PYPI   GL2 8236   5.055  11.434   9.754 -0.2324  0.0701 -0.0976
  531PYPI   C1A 8237   4.663  11.364   9.378 -0.1647  0.1369 -0.1750
  531PYPI   C2A 8238   4.754  11.176   9.077 -0.0466  0.1267 -0.0616
  531PYPI   D3A 8239   4.693  11.298   8.627  0.0822  0.0548  0.0226
  531PYPI   C4A 8240   4.520  11.737   8.615 -0.0942  0.3304  0.2696
  531PYPI   C1B 8241   5.201  11.351   9.340  0.0432  0.0390  0.0706
  531PYPI   C2B 8242   5.176  11.277   8.797  0.1219 -0.0427 -0.2738
  531PYPI   C3B 8243   5.152  11.142   8.322 -0.0147 -0.1407  0.2256
  531PYPI   C4B 8244   5.320  11.351   7.979 -0.0095 -0.0131 -0.1963
  532PYPI    C1 8245  18.112  10.545  10.434  0.2911  0.0752 -0.0070
  532PYPI    C2 8246  17.879  10.270  10.608  0.2743 -0.0004 -0.1472
  532PYPI    C3 8247  18.099  10.517  10.833  0.1507 -0.0077 -0.0167
  532PYPI   PO4 8248  17.841  10.523  10.203  0.0865 -0.0542  0.2829
  532PYPI   GL1 8249  17.482  10.604  10.075 -0.0628 -0.2217  0.1219
  532PYPI   GL2 8250  17.149  10.544   9.985 -0.1045 -0.0793  0.0468
  532PYPI   C1A 8251  17.467  10.271   9.701 -0.3765 -0.0945 -0.0424
  532PYPI   C2A 8252  17.521  10.101   9.357 -0.2205  0.2040 -0.3332
  532PYPI   D3A 8253  17.289  10.032   9.053 -0.0948 -0.0427  0.2418
  532PYPI   C4A 8254  17.489  10.122   8.742  0.2167 -0.2289 -0.0277
  532PYPI   C1B 8255  17.150  10.622   9.522  0.4142 -0.0886 -0.1364
  532PYPI   C2B 8256  17.027  10.466   9.294  0.0620  0.2636 -0.2743
  532PYPI   C3B 8257  17.070  10.461   8.856  0.4896  0.1614 -0.0635
  532PYPI   C4B 8258  17.115  10.383   8.525 -0.2672 -0.0380 -0.2496
  533PYPI    C1 8259  12.113  11.587  10.269  0.2702 -0.1315  0.1198
  533PYPI    C2 8260  11.982  11.718  10.624 -0.1259 -0.1626 -0.0107
  533PYPI    C3 8261  12.170  11.366  10.597 -0.3508 -0.2955  0.1283
  533PYPI   PO4 8262  12.132  11.785  10.117 -0.1042  0.0117  0.2081
  533PYPI   GL1 8263  12.199  11.720   9.596  0.0184  0.0149  0.2336
  533PYPI   GL2 8264  12.450  11.772   9.456 -0.2447  0.0811  0.1578
  533PYPI   C1A 8265  12.032  11.566   9.194  0.1356  0.0638  0.1842
  533PYPI   C2A 8266  11.804  11.496   8.778  0.1373  0.2249  0.0053
  533PYPI   D3A 8267  11.993  11.412   8.512 -0.1287  0.1946  0.2004
  533PYPI   C4A 8268  11.968  11.188   8.192  0.1079  0.1838  0.1614
  533PYPI   C1B 8269  12.527  11.738   9.010  0.1591  0.1467 -0.0004
  533PYPI   C2B 8270  12.508  11.767   8.562 -0.2493  0.2562 -0.0786
  533PYPI   C3B 8271  12.508  11.656   8.096  0.2222  0.1316  0.5285
  533PYPI   C4B 8272  12.635  11.521   7.538  0.3032 -0.2269 -0.0804
  534PYPI    C1 8273   3.376   4.607  10.594 -0.1081  0.1418  0.0484
  534PYPI    C2 8274   3.689   4.829  10.708  0.0024 -0.0589  0.1414
  534PYPI    C3 8275   3.414   4.719  10.976 -0.1550  0.1245  0.0581
  534PYPI   PO4 8276   3.425   4.627  10.281 -0.2096 -0.2721  0.4760
  534PYPI   GL1 8277   3.541   4.705   9.899  0.2299 -0.2001 -0.0361
  534PYPI   GL2 8278   3.199   4.763   9.823  0.1510 -0.3001 -0.0053
  534PYPI   C1A 8279   3.602   4.690   9.465  0.2416 -0.2882 -0.0392
  534PYPI   C2A 8280   3.507   4.657   9.005  0.2923 -0.1355 -0.0185
  534PYPI   D3A 8281   3.376   4.950   8.691 -0.3916  0.0181  0.1933
  534PYPI   C4A 8282   3.424   4.915   8.268  0.2385  0.1762 -0.4115
  534PYPI   C1B 8283   3.127   4.473   9.466  0.2566  0.1981  0.0413
  534PYPI   C2B 8284   3.158   4.355   8.920 -0.1097  0.2640  0.1189
  534PYPI   C3B 8285   3.267   4.467   8.536  0.1211  0.0817  0.0661
  534PYPI   C4B 8286   3.438   4.381   8.151  0.2036 -0.0133 -0.1358
  535PYPI    C1 8287   9.470   9.317  10.291 -0.2113 -0.3918  0.0863
  535PYPI    C2 8288   9.173   9.314  10.559 -0.1618  0.0113  0.1526
  535PYPI    C3 8289   9.520   9.492  10.647 -0.1321  0.1176 -0.1649
  535PYPI   PO4 8290   9.342   9.375  10.049  0.1395 -0.0007  0.1388
  535PYPI   GL1 8291   9.003   9.078  10.000 -0.0653  0.0299  0.0042
  535PYPI   GL2 8292   8.778   8.834   9.981 -0.0733  0.1146  0.1877
  535PYPI   C1A 8293   9.101   9.083   9.571  0.2124  0.4479  0.1066
  535PYPI   C2A 8294   9.302   9.060   9.185 -0.0806 -0.0636 -0.1698
  535PYPI   D3A 8295   9.303   8.979   8.726  0.2456  0.1034  0.1328
  535PYPI   C4A 8296   9.620   8.991   8.433 -0.1069  0.0732 -0.2075
  535PYPI   C1B 8297   8.722   8.764   9.599  0.1075  0.0454 -0.0642
  535PYPI   C2B 8298   8.539   8.736   9.207 -0.2150  0.1714 -0.1568
  535PYPI   C3B 8299   8.474   8.703   8.770  0.2602 -0.1477 -0.0441
  535PYPI   C4B 8300   8.310   8.664   8.434  0.0337  0.1984 -0.2183
  536PYPI    C1 8301  12.948   5.289  10.588  0.0725 -0.0452 -0.0254
  536PYPI    C2 8302  12.744   5.578  10.401  0.0727 -0.0680 -0.0611
  536PYPI    C3 8303  12.730   5.548  10.800  0.3390  0.1865 -0.0290
  536PYPI   PO4 8304  13.202   5.285  10.459  0.0603 -0.1676 -0.0765
  536PYPI   GL1 8305  13.449   5.337  10.000 -0.1265 -0.2411  0.3468
  536PYPI   GL2 8306  13.328   5.012   9.957 -0.1909 -0.0534 -0.4208
  536PYPI   C1A 8307  13.379   5.456   9.666 -0.1854 -0.0582  0.0843
  536PYPI   C2A 8308  13.430   5.435   9.258 -0.0997 -0.2640 -0.0406
  536PYPI   D3A 8309  13.494   5.714   8.890  0.0037 -0.1872  0.0272
  536PYPI   C4A 8310  13.218   6.063   8.949  0.0348  0.1261  0.0002
  536PYPI   C1B 8311  13.107   5.040   9.601 -0.0313 -0.1088  0.3520
  536PYPI   C2B 8312  13.101   5.073   9.160 -0.2060 -0.1588  0.0832
  536PYPI   C3B 8313  13.244   5.208   8.835 -0.0417 -0.1557  0.1489
  536PYPI   C4B 8314  13.275   5.449   8.509 -0.1673  0.1875  0.2061
  537PYPI    C1 8315  14.137   5.837  10.504 -0.2569  0.0460  0.1091
  537PYPI    C2 8316  14.506   5.983  10.451 -0.2622 -0.0544 -0.2323
  537PYPI    C3 8317  14.419   5.771  10.779 -0.1180  0.2750  0.0244
  537PYPI   PO4 8318  14.058   5.652  10.245 -0.4968 -0.1530  0.0571
  537PYPI   GL1 8319  13.980   5.494   9.842 -0.0018  0.0423  0.2212
  537PYPI   GL2 8320  14.320   5.296   9.885 -0.1817 -0.4701  0.0789
  537PYPI   C1A 8321  13.989   5.401   9.387  0.0663  0.1494  0.4414
  537PYPI   C2A 8322  13.856   5.368   8.960  0.0689 -0.1439  0.1141
  537PYPI   D3A 8323  13.819   5.248   8.526  0.2259 -0.3231  0.0418
  537PYPI   C4A 8324  14.050   5.510   8.259  0.2884 -0.0063  0.1198
  537PYPI   C1B 8325  14.631   5.348   9.584 -0.0226 -0.1375 -0.2366
  537PYPI   C2B 8326  14.802   5.353   9.190  0.1399 -0.0300  0.1739
  537PYPI   C3B 8327  14.803   5.328   8.761 -0.0449 -0.0318  0.2246
  537PYPI   C4B 8328  14.873   5.023   8.475  0.2199 -0.1859 -0.0294
  538PYPI    C1 8329  17.588  14.730   9.995 -0.0059 -0.3945 -0.2171
  538PYPI    C2 8330  17.270  14.528   9.858 -0.1677 -0.0485 -0.3643
  538PYPI    C3 8331  17.219  14.872  10.056  0.1117 -0.0465 -0.2907
  538PYPI   PO4 8332  17.872  14.746   9.756 -0.3411  0.1630  0.1634
  538PYPI   GL1 8333  18.058  14.699   9.422  0.1420 -0.0407  0.1561
  538PYPI   GL2 8334  18.425  14.628   9.567  0.3462  0.1808 -0.2601
  538PYPI   C1A 8335  18.141  14.693   9.076  0.0938 -0.1839  0.0065
  538PYPI   C2A 8336  18.213  14.704   8.571  0.1591  0.0632 -0.1087
  538PYPI   D3A 8337  18.250  14.711   8.089 -0.1147  0.0918  0.0028
  538PYPI   C4A 8338  18.124  15.017   7.804  0.1985  0.0512 -0.0580
  538PYPI   C1B 8339  18.522  14.445   9.157  0.0055  0.1418 -0.0696
  538PYPI   C2B 8340  18.505  14.310   8.786  0.2215 -0.1267 -0.1041
  538PYPI   C3B 8341  18.571  14.404   8.386  0.2256 -0.2723  0.0712
  538PYPI   C4B 8342  18.710  14.549   7.989  0.0919 -0.2085  0.1138
  539PYPI    C1 8343   7.303   6.768  10.398 -0.1656  0.0107 -0.0470
  539PYPI    C2 8344   7.554   6.654  10.687 -0.0932  0.2380 -0.0184
  539PYPI    C3 8345   7.160   6.607  10.735 -0.0590 -0.1208 -0.0637
  539PYPI   PO4 8346   7.322   6.671  10.228  0.1718 -0.0988 -0.0502
  539PYPI   GL1 8347   7.328   6.775   9.840 -0.1565  0.2030 -0.1036
  539PYPI   GL2 8348   7.541   7.065   9.778 -0.0078 -0.2481 -0.3910
  539PYPI   C1A 8349   7.406   6.681   9.477 -0.1333 -0.0350  0.0723
  539PYPI   C2A 8350   7.428   6.765   9.082 -0.2545  0.3389  0.2392
  539PYPI   D3A 8351   7.335   7.077   8.844  0.0135 -0.0155 -0.1455
  539PYPI   C4A 8352   7.275   7.031   8.456 -0.0126  0.3187  0.3535
  539PYPI   C1B 8353   7.574   7.194   9.374  0.0652  0.0372 -0.1430
  539PYPI   C2B 8354   7.740   7.279   8.970  0.0715  0.1369  0.1266
  539PYPI   C3B 8355   7.685   7.337   8.536  0.2169  0.0058  0.0979
  539PYPI   C4B 8356   7.557   7.487   8.148  0.2909  0.0395  0.1232
  540ERGO   ROH 8357  16.724   5.168   6.631 -0.0485  0.0780  0.0972
  540ERGO    R1 8358  16.835   5.072   6.873  0.1783  0.1036  0.0066
  540ERGO    R2 8359  17.004   5.224   7.030 -0.0219  0.2863  0.0534
  540ERGO    R3 8360  16.823   5.165   7.224  0.1206 -0.1328  0.0690
  540ERGO    R4 8361  17.083   5.153   7.359  0.1799  0.2111 -0.0097
  540ERGO    R5 8362  16.930   4.998   7.357  0.4329 -0.0421 -0.0612
  540ERGO    C1 8363  16.958   5.057   7.733  0.4311 -0.2260 -0.0317
  540ERGO    C2 8364  17.176   5.072   7.998 -0.2298  0.1784 -0.1062
  541ERGO   ROH 8365   4.531  18.386   9.600  0.1181 -0.0778 -0.0232
  541ERGO    R1 8366   4.450  18.243   9.370 -0.0368  0.0319 -0.0392
  541ERGO    R2 8367   4.352  18.368   9.143  0.1370  0.1666 -0.0444
  541ERGO    R3 8368   4.549  18.226   9.020 -0.0206 -0.0700 -0.0298
  541ERGO    R4 8369   4.424  18.381   8.805  0.1741  0.0814 -0.0393
  541ERGO    R5 8370   4.455  18.165   8.808 -0.0815  0.0399 -0.0355
  541ERGO    C1 8371   4.650  18.255   8.493  0.0479 -0.1902 -0.0227
  541ERGO    C2 8372   4.595  18.355   8.249 -0.2649 -0.1641 -0.1307
  542ERGO   ROH 8373   8.535  16.251   9.192 -0.0119  0.0310  0.1484
  542ERGO    R1 8374   8.641  16.381   8.964  0.0630 -0.0388  0.1424
  542ERGO    R2 8375   8.862  16.285   8.827  0.0056 -0.1784  0.1379
  542ERGO    R3 8376   8.694  16.298   8.613  0.0043 -0.0829  0.1453
  542ERGO    R4 8377   8.961  16.275   8.496 -0.0113 -0.0713  0.1295
  542ERGO    R5 8378   8.813  16.429   8.452  0.0095 -0.0422  0.1876
  542ERGO    C1 8379   8.862  16.282   8.103 -0.0223  0.0805  0.1316
  542ERGO    C2 8380   9.109  16.125   7.839  0.1434  0.0105  0.0292
  543ERGO   ROH 8381   9.552   8.294   9.549  0.0954 -0.1913  0.0922
  543ERGO    R1 8382   9.488   8.121   9.335 -0.1311 -0.1577  0.1304
  543ERGO    R2 8383   9.258   8.149   9.185 -0.0667  0.1523  0.0832
  543ERGO    R3 8384   9.433   8.154   8.976 -0.0186 -0.1722  0.1111
  543ERGO    R4 8385   9.170   8.114   8.853 -0.0596  0.1643  0.0798
  543ERGO    R5 8386   9.347   7.990   8.824 -0.2292 -0.1050  0.1537
  543ERGO    C1 8387   9.282   8.097   8.464 -0.0103 -0.1332  0.1041
  543ERGO    C2 8388   9.338   7.989   8.123 -0.0313 -0.1468 -0.2345
  544ERGO   ROH 8389   5.472  18.319   9.403 -0.2147 -0.2221 -0.0825
  544ERGO    R1 8390   5.585  18.306   9.144 -0.0895 -0.2654 -0.0266
  544ERGO    R2 8391   5.474  18.157   8.941 -0.0469 -0.2189 -0.0833
  544ERGO    R3 8392   5.482  18.392   8.806  0.1153 -0.2220 -0.0797
  544ERGO    R4 8393   5.465  18.186   8.597 -0.1667 -0.2108 -0.0796
  544ERGO    R5 8394   5.616  18.344   8.612 -0.0092 -0.3473 -0.1386
  544ERGO    C1 8395   5.468  18.425   8.269 -0.0843 -0.2090 -0.0741
  544ERGO    C2 8396   5.423  18.613   7.890 -0.0704  0.2810  0.0186
  545ERGO   ROH 8397   3.272  16.979   6.024 -0.0350 -0.1819 -0.1403
  545ERGO    R1 8398   3.360  16.903   6.282  0.0762  0.0088 -0.1201
  545ERGO    R2 8399   3.402  17.085   6.484 -0.1988  0.1238 -0.1616
  545ERGO    R3 8400   3.232  16.924   6.622  0.0358 -0.1009 -0.1279
  545ERGO    R4 8401   3.333  17.115   6.822 -0.2303  0.0832 -0.1646
  545ERGO    R5 8402   3.337  16.898   6.836  0.0847  0.0872 -0.1265
  545ERGO    C1 8403   3.132  16.981   7.147 -0.0285 -0.1512 -0.1347
  545ERGO    C2 8404   3.158  17.324   7.453  0.1605 -0.0826 -0.1445
  546ERGO   ROH 8405   0.533   6.183   6.573  0.0733  0.1043 -0.1254
  546ERGO    R1 8406   0.681   6.148   6.812  0.0536  0.1084 -0.1111
  546ERGO    R2 8407   0.631   6.295   7.041  0.0780  0.1628 -0.1331
  546ERGO    R3 8408   0.610   6.049   7.155  0.0082  0.1856 -0.0995
  546ERGO    R4 8409   0.711   6.223   7.369 -0.1006  0.2097 -0.0795
  546ERGO    R5 8410   0.800   6.035   7.301 -0.0745  0.1987  0.0028
  546ERGO    C1 8411   0.737   5.950   7.668 -0.2702  0.2584 -0.0169
  546ERGO    C2 8412   0.746   5.738   7.947  0.1181  0.1619 -0.1591
  547ERGO   ROH 8413   3.161   1.684   9.932  0.1459  0.0321  0.0885
  547ERGO    R1 8414   3.069   1.659   9.665  0.1750 -0.1390  0.0924
  547ERGO    R2 8415   2.964   1.872   9.524 -0.1962 -0.3174  0.0823
  547ERGO    R3 8416   3.154   1.803   9.342 -0.0787 -0.0068  0.0832
  547ERGO    R4 8417   2.961   1.963   9.191 -0.2657 -0.2029  0.1147
  547ERGO    R5 8418   3.032   1.764   9.140  0.0018 -0.0945  0.0531
  547ERGO    C1 8419   3.138   1.952   8.826 -0.1959  0.1553  0.1344
  547ERGO    C2 8420   3.420   2.150   8.631  0.1351  0.0424  0.3260
  548ERGO   ROH 8421  12.046  11.124   9.475  0.2528 -0.0901  0.0880
  548ERGO    R1 8422  11.884  11.091   9.245  0.1692 -0.0952  0.1468
  548ERGO    R2 8423  11.984  11.112   8.988  0.0522  0.0220  0.1081
  548ERGO    R3 8424  11.873  10.865   8.960  0.1483 -0.0194  0.0875
  548ERGO    R4 8425  11.877  10.976   8.689  0.1674 -0.0247  0.0877
  548ERGO    R5 8426  11.704  10.895   8.793  0.1747 -0.0857  0.0500
  548ERGO    C1 8427  11.711  10.666   8.488  0.3249 -0.0906  0.0565
  548ERGO    C2 8428  11.701  10.672   8.241  0.3441  0.0601 -0.0842
  549ERGO   ROH 8429  14.702   0.191   6.162 -0.0404 -0.2656 -0.0276
  549ERGO    R1 8430  14.596   0.210   6.424 -0.0651 -0.0002 -0.0528
  549ERGO    R2 8431  14.525  -0.012   6.572 -0.3315  0.1543  0.0692
  549ERGO    R3 8432  14.691   0.098   6.757 -0.2377  0.0846  0.0249
  549ERGO    R4 8433  14.498  -0.056   6.914 -0.2406  0.1548  0.0754
  549ERGO    R5 8434  14.548   0.154   6.940 -0.1565  0.1300  0.0695
  549ERGO    C1 8435  14.639   0.021   7.286 -0.0997  0.0895  0.0375
  549ERGO    C2 8436  14.572  -0.049   7.554  0.1543  0.2496 -0.0985
  550ERGO   ROH 8437   6.403  18.279   5.531 -0.0566 -0.1152 -0.0264
  550ERGO    R1 8438   6.593  18.131   5.680 -0.0142 -0.1037 -0.0692
  550ERGO    R2 8439   6.815  18.248   5.796 -0.0268 -0.0801 -0.0678
  550ERGO    R3 8440   6.719  18.129   6.021  0.0155 -0.1386 -0.0805
  550ERGO    R4 8441   7.006  18.166   6.071 -0.0320  0.1321  0.0008
  550ERGO    R5 8442   6.894  17.979   6.088  0.1348  0.0301 -0.0085
  550ERGO    C1 8443   7.028  18.007   6.444  0.0045  0.2007  0.0287
  550ERGO    C2 8444   7.136  17.918   6.783  0.0406  0.2475  0.0139
  551ERGO   ROH 8445   0.682  16.207   9.560  0.3664 -0.0406 -0.1559
  551ERGO    R1 8446   0.557  16.326   9.335  0.1623  0.0484  0.0031
  551ERGO    R2 8447   0.698  16.465   9.143 -0.0059  0.0865 -0.0912
  551ERGO    R3 8448   0.575  16.292   8.973 -0.1997  0.1591 -0.0292
  551ERGO    R4 8449   0.692  16.496   8.799  0.1129 -0.0859 -0.1112
  551ERGO    R5 8450   0.484  16.431   8.801  0.0231  0.1924 -0.1233
  551ERGO    C1 8451   0.573  16.351   8.439 -0.0000 -0.1181 -0.0646
  551ERGO    C2 8452   0.410  16.369   8.019  0.0549  0.5009  0.0747
  552ERGO   ROH 8453   0.554   2.208   6.601  0.1893  0.1192 -0.2430
  552ERGO    R1 8454   0.537   2.203   6.884  0.1507  0.2622 -0.2412
  552ERGO    R2 8455   0.722   2.074   7.042 -0.0895 -0.0171 -0.1694
  552ERGO    R3 8456   0.740   2.317   7.164  0.3350  0.0094 -0.2717
  552ERGO    R4 8457   0.795   2.122   7.377 -0.0581  0.0056 -0.1802
  552ERGO    R5 8458   0.646   2.281   7.381  0.2324  0.2828 -0.2729
  552ERGO    C1 8459   0.854   2.378   7.685  0.3588  0.0437 -0.2825
  552ERGO    C2 8460   0.962   2.451   7.892 -0.0496  0.0652  0.3943
  553ERGO   ROH 8461   0.023  17.390   5.770  0.0747  0.0055  0.0052
  553ERGO    R1 8462  -0.125  17.472   5.996  0.0433 -0.0588  0.0086
  553ERGO    R2 8463  -0.286  17.299   6.140  0.1248 -0.1310  0.0157
  553ERGO    R3 8464  -0.137  17.386   6.350  0.0925 -0.0611  0.0096
  553ERGO    R4 8465  -0.386  17.288   6.470  0.0883 -0.0511  0.0073
  553ERGO    R5 8466  -0.297  17.485   6.499  0.0668 -0.0360 -0.0351
  553ERGO    C1 8467  -0.304  17.363   6.860  0.0364  0.0608 -0.0032
  553ERGO    C2 8468  -0.368  17.414   7.275  0.0429  0.3807 -0.0919
  554ERGO   ROH 8469   9.925   2.461   9.837  0.0269 -0.1252  0.0522
  554ERGO    R1 8470  10.065   2.441   9.592 -0.0030 -0.0934  0.0319
  554ERGO    R2 8471  10.091   2.202   9.454 -0.0787 -0.0636 -0.0388
  554ERGO    R3 8472   9.986   2.346   9.249 -0.0634  0.0223  0.0140
  554ERGO    R4 8473  10.100   2.109   9.121  0.0569  0.1391 -0.0930
  554ERGO    R5 8474  10.141   2.317   9.069  0.0021  0.1836  0.0437
  554ERGO    C1 8475  10.007   2.191   8.735  0.1503  0.3379 -0.0750
  554ERGO    C2 8476  10.001   2.240   8.413  0.1223 -0.0543  0.2804
  555ERGO   ROH 8477   1.586   0.320   9.982 -0.1367  0.1569  0.0451
  555ERGO    R1 8478   1.544   0.292   9.704  0.0436  0.1082  0.0216
  555ERGO    R2 8479   1.333   0.413   9.572  0.0486 -0.0276 -0.1123
  555ERGO    R3 8480   1.531   0.513   9.415  0.0827  0.0760 -0.0052
  555ERGO    R4 8481   1.316   0.440   9.228  0.0991  0.2466 -0.0954
  555ERGO    R5 8482   1.525   0.377   9.218  0.0943  0.2309 -0.1156
  555ERGO    C1 8483   1.492   0.551   8.880  0.1604  0.5036  0.0152
  555ERGO    C2 8484   1.497   0.687   8.505  0.2632  0.2391  0.2597
  556ERGO   ROH 8485   1.362  11.680   9.732 -0.0620 -0.0974  0.0121
  556ERGO    R1 8486   1.281  11.787   9.483 -0.0288  0.0053  0.0449
  556ERGO    R2 8487   1.458  11.836   9.277 -0.0026  0.0834  0.0859
  556ERGO    R3 8488   1.285  11.681   9.135  0.0102  0.1453  0.0017
  556ERGO    R4 8489   1.484  11.770   8.939  0.1614  0.0443  0.1050
  556ERGO    R5 8490   1.267  11.791   8.923  0.1772  0.1361 -0.0192
  556ERGO    C1 8491   1.337  11.587   8.609  0.2688  0.0796  0.0370
  556ERGO    C2 8492   1.306  11.668   8.229  0.1059  0.3402  0.1057
  557ERGO   ROH 8493  10.383   8.931   9.693  0.1658 -0.2473  0.0468
  557ERGO    R1 8494  10.286   8.959   9.428  0.2922 -0.1109  0.0115
  557ERGO    R2 8495  10.423   8.864   9.208  0.2565 -0.2776  0.0496
  557ERGO    R3 8496  10.189   8.736   9.157  0.1084  0.0175 -0.0274
  557ERGO    R4 8497  10.310   8.779   8.893  0.2884 -0.2295  0.0262
  557ERGO    R5 8498  10.109   8.837   8.955  0.3384  0.0559 -0.0946
  557ERGO    C1 8499  10.025   8.609   8.661  0.1679  0.0756 -0.0597
  557ERGO    C2 8500  10.015   8.549   8.351  0.2402 -0.1123 -0.2184
  558ERGO   ROH 8501  18.409  12.691   9.499 -0.1698 -0.1312 -0.0275
  558ERGO    R1 8502  18.490  12.804   9.252 -0.0796 -0.0991  0.0153
  558ERGO    R2 8503  18.690  12.693   9.096 -0.0293 -0.0928  0.0604
  558ERGO    R3 8504  18.498  12.699   8.904  0.0262 -0.0530  0.0066
  558ERGO    R4 8505  18.749  12.687   8.756  0.0301 -0.3074  0.0731
  558ERGO    R5 8506  18.591  12.834   8.730  0.1507 -0.2151 -0.0416
  558ERGO    C1 8507  18.604  12.689   8.377  0.1167 -0.3949  0.0301
  558ERGO    C2 8508  18.560  12.598   8.031  0.1479 -0.0940  0.0138
  559ERGO   ROH 8509   5.129   0.740   6.357 -0.0533  0.0919  0.0255
  559ERGO    R1 8510   5.126   0.868   6.609  0.0129  0.0268  0.0586
  559ERGO    R2 8511   4.891   0.936   6.738  0.0521  0.0713  0.0946
  559ERGO    R3 8512   4.998   0.792   6.942  0.0189 -0.0140  0.0537
  559ERGO    R4 8513   4.761   0.918   7.058  0.1017  0.1126  0.1180
  559ERGO    R5 8514   4.964   0.928   7.136  0.1322 -0.0085  0.0774
  559ERGO    C1 8515   4.786   0.772   7.435  0.0994  0.0565  0.0932
  559ERGO    C2 8516   4.906   0.707   7.796 -0.1483  0.1812  0.2796
  560ERGO   ROH 8517   0.371  13.699   9.526  0.0153  0.0794 -0.0706
  560ERGO    R1 8518   0.508  13.587   9.305  0.0112  0.1053 -0.0860
  560ERGO    R2 8519   0.405  13.590   9.049  0.0178  0.1573 -0.0876
  560ERGO    R3 8520   0.643  13.708   8.989  0.0293  0.1473 -0.0626
  560ERGO    R4 8521   0.538  13.619   8.731  0.0465  0.1618 -0.0753
  560ERGO    R5 8522   0.734  13.574   8.814  0.0374  0.1484 -0.0597
  560ERGO    C1 8523   0.839  13.747   8.490  0.0740  0.1548 -0.0447
  560ERGO    C2 8524   0.903  13.819   8.177  0.1669 -0.0079  0.2254
  561ERGO   ROH 8525   1.980  12.836   9.870 -0.1191 -0.1898 -0.0640
  561ERGO    R1 8526   2.087  12.935   9.627  0.0442 -0.0678  0.0562
  561ERGO    R2 8527   2.344  12.878   9.544  0.0028 -0.2681  0.0619
  561ERGO    R3 8528   2.218  12.794   9.319 -0.0414  0.0887 -0.0531
  561ERGO    R4 8529   2.489  12.865   9.231  0.1633 -0.4156  0.1405
  561ERGO    R5 8530   2.302  12.938   9.147  0.3543  0.0053  0.0600
  561ERGO    C1 8531   2.455  12.778   8.837  0.2153 -0.1667  0.0782
  561ERGO    C2 8532   2.474  12.623   8.495 -0.3953 -0.3092  0.0883
  562ERGO   ROH 8533   1.956   8.439   6.626  0.0747  0.1468  0.0856
  562ERGO    R1 8534   2.109   8.452   6.863  0.0972  0.0602  0.0762
  562ERGO    R2 8535   2.007   8.547   7.102  0.1413  0.0416  0.1024
  562ERGO    R3 8536   2.094   8.307   7.197  0.0854  0.0001  0.0497
  562ERGO    R4 8537   2.033   8.465   7.437  0.1969 -0.0101  0.0856
  562ERGO    R5 8538   2.221   8.363   7.392  0.1526 -0.0669  0.0257
  562ERGO    C1 8539   2.130   8.192   7.721  0.1769 -0.0789  0.0263
  562ERGO    C2 8540   2.030   8.098   8.073  0.1370  0.2052  0.0350
  563ERGO   ROH 8541  16.379   3.290   6.422 -0.2949 -0.3301 -0.1377
  563ERGO    R1 8542  16.254   3.299   6.676 -0.2636 -0.1912 -0.1285
  563ERGO    R2 8543  16.280   3.095   6.862 -0.1333 -0.0252  0.0254
  563ERGO    R3 8544  16.362   3.297   7.024 -0.2198  0.1445 -0.1348
  563ERGO    R4 8545  16.232   3.105   7.204  0.3037 -0.0336  0.0937
  563ERGO    R5 8546  16.187   3.318   7.186 -0.0497 -0.0933  0.0969
  563ERGO    C1 8547  16.282   3.301   7.555  0.4771  0.1208 -0.0168
  563ERGO    C2 8548  16.376   3.273   7.787 -0.0036 -0.1789  0.1066
  564ERGO   ROH 8549  15.130  15.773   5.998  0.1531 -0.1654  0.0105
  564ERGO    R1 8550  15.217  15.811   6.265  0.0823  0.0378  0.0074
  564ERGO    R2 8551  15.072  15.955   6.450 -0.1300 -0.0925 -0.0504
  564ERGO    R3 8552  15.095  15.728   6.597  0.1612 -0.0204  0.0218
  564ERGO    R4 8553  15.017  15.935   6.790 -0.0073 -0.0401 -0.0274
  564ERGO    R5 8554  15.189  15.801   6.805  0.1431  0.1515 -0.0308
  564ERGO    C1 8555  15.006  15.710   7.127  0.3374  0.0580  0.0538
  564ERGO    C2 8556  14.917  15.570   7.465  0.2387 -0.0499  0.2666
  565ERGO   ROH 8557   6.402   7.304   6.430  0.0846  0.0288 -0.0580
  565ERGO    R1 8558   6.472   7.275   6.703  0.1870  0.1241 -0.0723
  565ERGO    R2 8559   6.596   7.475   6.848 -0.0420  0.2975 -0.1017
  565ERGO    R3 8560   6.386   7.438   7.017  0.0379  0.0197 -0.0592
  565ERGO    R4 8561   6.616   7.480   7.193 -0.0124  0.4692 -0.1054
  565ERGO    R5 8562   6.477   7.313   7.199  0.2645  0.2429 -0.0189
  565ERGO    C1 8563   6.431   7.449   7.552  0.0797  0.3083 -0.0677
  565ERGO    C2 8564   6.276   7.551   7.818  0.2295  0.1096  0.2256
  566ERGO   ROH 8565  10.492  10.148   6.090  0.2896 -0.3464 -0.0270
  566ERGO    R1 8566  10.625  10.119   6.338  0.1542 -0.0765  0.0816
  566ERGO    R2 8567  10.635  10.322   6.526 -0.1658  0.0466 -0.0213
  566ERGO    R3 8568  10.534  10.131   6.690 -0.0952  0.0399  0.0139
  566ERGO    R4 8569  10.674  10.315   6.869 -0.0504  0.0389 -0.0342
  566ERGO    R5 8570  10.702  10.100   6.857 -0.0410  0.0463 -0.0448
  566ERGO    C1 8571  10.601  10.132   7.224  0.0831  0.0282 -0.0088
  566ERGO    C2 8572  10.713  10.360   7.473  0.0921 -0.0452  0.2838
  567ERGO   ROH 8573  17.055   9.408  10.152  0.2420  0.1289  0.1017
  567ERGO    R1 8574  17.121   9.403   9.877  0.1961  0.1532  0.0903
  567ERGO    R2 8575  16.946   9.311   9.684  0.2027  0.0700  0.1234
  567ERGO    R3 8576  16.994   9.554   9.572  0.0735  0.0898  0.1092
  567ERGO    R4 8577  16.923   9.380   9.346  0.2527  0.0152  0.1084
  567ERGO    R5 8578  17.102   9.503   9.364  0.1666  0.1371  0.1455
  567ERGO    C1 8579  16.953   9.649   9.044  0.1600  0.0017  0.0864
  567ERGO    C2 8580  16.946   9.588   8.787 -0.0587  0.2038  0.1698
  568ERGO   ROH 8581  13.319   3.810   6.659  0.0254 -0.1071 -0.0494
  568ERGO    R1 8582  13.192   3.726   6.897  0.2893 -0.3795  0.0031
  568ERGO    R2 8583  13.325   3.589   7.097  0.7019  0.0045  0.0183
  568ERGO    R3 8584  13.229   3.790   7.253  0.2160 -0.1812 -0.0263
  568ERGO    R4 8585  13.329   3.590   7.442  0.5044  0.0266  0.0205
  568ERGO    R5 8586  13.130   3.678   7.440  0.3335 -0.3694 -0.0844
  568ERGO    C1 8587  13.241   3.778   7.791 -0.0669 -0.1349 -0.0202
  568ERGO    C2 8588  13.229   3.962   8.170  0.0053 -0.0866 -0.1290
  569ERGO   ROH 8589   5.836  12.878   9.583  0.2725 -0.2084 -0.0702
  569ERGO    R1 8590   5.682  12.799   9.360  0.0908 -0.1007  0.0130
  569ERGO    R2 8591   5.587  12.978   9.173  0.2078 -0.0399 -0.0006
  569ERGO    R3 8592   5.714  12.813   8.998 -0.0353 -0.2293 -0.0016
  569ERGO    R4 8593   5.543  12.983   8.830  0.1183 -0.0863  0.0107
  569ERGO    R5 8594   5.548  12.765   8.831 -0.1321 -0.0854  0.0607
  569ERGO    C1 8595   5.637  12.831   8.466 -0.1619 -0.2911  0.0162
  569ERGO    C2 8596   5.639  12.799   8.151  0.2107  0.2025 -0.0856
  570ERGO   ROH 8597   4.741   9.414   6.300 -0.3196 -0.1523  0.1654
  570ERGO    R1 8598   4.858   9.435   6.557 -0.1752 -0.0592  0.0930
  570ERGO    R2 8599   4.799   9.641   6.732 -0.1600 -0.0558  0.0929
  570ERGO    R3 8600   4.741   9.436   6.902  0.0286 -0.0528  0.1636
  570ERGO    R4 8601   4.810   9.662   7.077 -0.1013  0.0472  0.0856
  570ERGO    R5 8602   4.898   9.462   7.081  0.0486  0.1133  0.1234
  570ERGO    C1 8603   4.762   9.482   7.437  0.1097  0.1099  0.1478
  570ERGO    C2 8604   4.807   9.797   7.646 -0.1658 -0.1275 -0.0180
  571ERGO   ROH 8605  13.727  15.193   9.533  0.1331 -0.1571  0.0963
  571ERGO    R1 8606  13.925  15.249   9.339  0.0117  0.0619  0.0311
  571ERGO    R2 8607  13.991  15.071   9.138  0.2076  0.0924  0.0620
  571ERGO    R3 8608  13.938  15.283   8.976 -0.1279 -0.0208  0.0184
  571ERGO    R4 8609  14.043  15.077   8.796  0.3014  0.1400  0.0776
  571ERGO    R5 8610  14.115  15.282   8.816 -0.0729  0.2782  0.0736
  571ERGO    C1 8611  14.023  15.280   8.446  0.0411  0.0616  0.0460
  571ERGO    C2 8612  14.142  15.085   8.071  0.3184 -0.1036  0.3083
  572ERGO   ROH 8613   1.217  12.607   6.116  0.0242  0.1355  0.1715
  572ERGO    R1 8614   1.149  12.712   6.370 -0.1917  0.1077  0.1271
  572ERGO    R2 8615   0.937  12.618   6.518 -0.0477 -0.2169  0.1311
  572ERGO    R3 8616   1.126  12.587   6.710 -0.0110  0.1814  0.1683
  572ERGO    R4 8617   0.871  12.537   6.847  0.0508 -0.3484  0.1200
  572ERGO    R5 8618   1.026  12.679   6.907 -0.2481 -0.0171  0.1472
  572ERGO    C1 8619   1.010  12.461   7.220  0.1425 -0.0510  0.1484
  572ERGO    C2 8620   0.840  12.463   7.490 -0.2098 -0.1036 -0.0658
  573ERGO   ROH 8621  12.418   2.539  10.274  0.1968  0.3411 -0.3686
  573ERGO    R1 8622  12.383   2.497   9.996  0.3230  0.2010 -0.3644
  573ERGO    R2 8623  12.580   2.385   9.837  0.2702 -0.2095 -0.1566
  573ERGO    R3 8624  12.383   2.211   9.770  0.0486  0.0396 -0.1653
  573ERGO    R4 8625  12.556   2.221   9.534  0.2196 -0.3637 -0.0696
  573ERGO    R5 8626  12.341   2.255   9.538  0.2596 -0.0386 -0.2215
  573ERGO    C1 8627  12.357   1.962   9.294 -0.0177 -0.2197 -0.0271
  573ERGO    C2 8628  12.534   1.700   9.070 -0.0558  0.0749 -0.0294
  574ERGO   ROH 8629  14.014  14.757   9.550  0.1665 -0.0412 -0.0178
  574ERGO    R1 8630  14.067  14.624   9.306  0.0785  0.0317 -0.0769
  574ERGO    R2 8631  13.867  14.508   9.153  0.0444 -0.0823  0.0543
  574ERGO    R3 8632  13.971  14.664   8.957 -0.2075  0.0194 -0.0031
  574ERGO    R4 8633  13.847  14.440   8.815  0.2378 -0.2995  0.0840
  574ERGO    R5 8634  14.053  14.509   8.794  0.1212  0.0805  0.0932
  574ERGO    C1 8635  13.933  14.547   8.434  0.1139 -0.3305  0.0474
  574ERGO    C2 8636  14.062  14.533   8.189 -0.2658 -0.0294  0.1240
  575ERGO   ROH 8637  17.770   6.082  10.258  0.1451  0.0952 -0.0860
  575ERGO    R1 8638  17.785   5.919  10.027 -0.1022  0.0546 -0.0768
  575ERGO    R2 8639  17.729   6.013   9.774  0.0706  0.1373 -0.0869
  575ERGO    R3 8640  17.976   5.916   9.717 -0.0766 -0.2708 -0.0617
  575ERGO    R4 8641  17.862   5.985   9.456  0.2006  0.2981 -0.0477
  575ERGO    R5 8642  17.947   5.793   9.514 -0.2028  0.0480 -0.2440
  575ERGO    C1 8643  18.172   5.877   9.218  0.1384  0.0087 -0.0014
  575ERGO    C2 8644  18.289   5.913   8.871 -0.1936  0.0651  0.2198
  576ERGO   ROH 8645  10.552   0.180   9.739 -0.1579  0.1098  0.0396
  576ERGO    R1 8646  10.545   0.269   9.470 -0.2269  0.0624  0.0252
  576ERGO    R2 8647  10.748   0.214   9.290 -0.1279  0.2872  0.0655
  576ERGO    R3 8648  10.544   0.114   9.141  0.0172  0.0093  0.0477
  576ERGO    R4 8649  10.694   0.286   8.957 -0.2075  0.2314  0.0662
  576ERGO    R5 8650  10.480   0.295   8.998 -0.2276 -0.0684  0.0539
  576ERGO    C1 8651  10.471   0.234   8.622 -0.1176 -0.0619  0.0499
  576ERGO    C2 8652  10.580   0.159   8.396  0.3098  0.2013  0.1006
  577ERGO   ROH 8653  14.490   5.029   6.905 -0.1733  0.1534  0.0084
  577ERGO    R1 8654  14.611   4.907   7.130 -0.1396  0.1006 -0.0386
  577ERGO    R2 8655  14.816   5.027   7.272  0.0435 -0.0384 -0.1860
  577ERGO    R3 8656  14.651   4.985   7.483  0.1351  0.1420 -0.0759
  577ERGO    R4 8657  14.873   5.142   7.592  0.1750  0.2629 -0.3134
  577ERGO    R5 8658  14.799   4.952   7.669  0.2197  0.3228 -0.1063
  577ERGO    C1 8659  14.751   5.170   7.978  0.3377  0.6077 -0.2842
  577ERGO    C2 8660  14.593   5.373   8.231  0.2548 -0.1378  0.1526
  578ERGO   ROH 8661  14.769  15.224   9.581 -0.1141 -0.1100  0.0678
  578ERGO    R1 8662  14.901  15.276   9.336 -0.1911  0.0298  0.0546
  578ERGO    R2 8663  15.091  15.105   9.231 -0.0069  0.2349  0.0451
  578ERGO    R3 8664  14.930  15.114   9.012 -0.0380  0.0479  0.0583
  578ERGO    R4 8665  15.203  15.119   8.904 -0.0517  0.3129  0.0329
  578ERGO    R5 8666  15.043  15.262   8.861 -0.2013  0.1475  0.0315
  578ERGO    C1 8667  15.117  15.136   8.508 -0.1070  0.1827  0.0384
  578ERGO    C2 8668  15.081  15.121   8.088  0.1205 -0.1366 -0.1301
  579ERGO   ROH 8669   6.077   0.494   6.143 -0.0311  0.2032  0.0504
  579ERGO    R1 8670   6.190   0.575   6.390  0.1652  0.2024 -0.0372
  579ERGO    R2 8671   6.185   0.837   6.477  0.0497  0.1663  0.0575
  579ERGO    R3 8672   6.070   0.728   6.698  0.3663 -0.0003  0.1473
  579ERGO    R4 8673   6.096   1.014   6.761 -0.1058  0.0770  0.0660
  579ERGO    R5 8674   6.169   0.847   6.881  0.2659  0.2225  0.0650
  579ERGO    C1 8675   5.937   1.014   7.133  0.1008 -0.1313  0.1553
  579ERGO    C2 8676   5.836   1.012   7.418  0.1395 -0.5499  0.0621
  580ERGO   ROH 8677  11.513   6.795   9.665 -0.0458  0.1282  0.1283
  580ERGO    R1 8678  11.489   6.884   9.397 -0.0741  0.1092  0.1242
  580ERGO    R2 8679  11.657   6.796   9.196 -0.0313  0.1705  0.1315
  580ERGO    R3 8680  11.423   6.732   9.073 -0.0020  0.0699  0.1281
  580ERGO    R4 8681  11.607   6.796   8.854 -0.0512  0.2251  0.1345
  580ERGO    R5 8682  11.410   6.883   8.888 -0.0970  0.1067  0.1658
  580ERGO    C1 8683  11.358   6.736   8.540 -0.0353  0.1625  0.1331
  580ERGO    C2 8684  11.068   6.608   8.335 -0.0531  0.1453  0.0124
  581ERGO   ROH 8685  10.937   5.601   9.598  0.0475 -0.3312 -0.0544
  581ERGO    R1 8686  10.965   5.454   9.357  0.1041 -0.2940 -0.0708
  581ERGO    R2 8687  11.059   5.567   9.123 -0.0810 -0.1924 -0.0977
  581ERGO    R3 8688  11.237   5.361   9.134  0.1174 -0.0280 -0.1682
  581ERGO    R4 8689  11.218   5.430   8.849 -0.2369 -0.1905 -0.1901
  581ERGO    R5 8690  11.189   5.232   8.937  0.0304 -0.1734 -0.0543
  581ERGO    C1 8691  11.477   5.157   8.699 -0.1416 -0.0350 -0.3101
  581ERGO    C2 8692  11.542   5.071   8.370 -0.2572  0.0187  0.2787
  582ERGO   ROH 8693   2.714   6.604   9.888 -0.2652 -0.2142  0.0424
  582ERGO    R1 8694   2.857   6.628   9.645 -0.2621  0.0221  0.0661
  582ERGO    R2 8695   2.937   6.409   9.497  0.0897  0.1503  0.0580
  582ERGO    R3 8696   2.804   6.537   9.297 -0.0739 -0.0281  0.0493
  582ERGO    R4 8697   2.975   6.344   9.159  0.2309  0.2268  0.0586
  582ERGO    R5 8698   2.965   6.558   9.122 -0.0772  0.2195  0.0717
  582ERGO    C1 8699   2.873   6.426   8.776  0.1596  0.1038  0.0506
  582ERGO    C2 8700   2.837   6.332   8.394  0.3330 -0.0561  0.0902
  583ERGO   ROH 8701   8.179  15.976   9.230 -0.2745  0.2383  0.0534
  583ERGO    R1 8702   8.061  16.089   8.999 -0.2141  0.1212 -0.0344
  583ERGO    R2 8703   8.185  16.286   8.850 -0.1941  0.0692 -0.0770
  583ERGO    R3 8704   8.143  16.112   8.645 -0.1050 -0.0211 -0.0210
  583ERGO    R4 8705   8.269  16.346   8.520 -0.0389 -0.0691 -0.0648
  583ERGO    R5 8706   8.082  16.252   8.460 -0.0190 -0.0932 -0.1105
  583ERGO    C1 8707   8.279  16.218   8.135  0.1352 -0.2347 -0.0052
  583ERGO    C2 8708   8.437  16.175   7.733 -0.2076  0.0249  0.3199
  584ERGO   ROH 8709  16.252   7.962   6.735 -0.1593  0.1391 -0.0043
  584ERGO    R1 8710  16.321   7.928   7.007 -0.0297  0.1600 -0.0338
  584ERGO    R2 8711  16.364   8.142   7.177 -0.0216  0.1751 -0.0502
  584ERGO    R3 8712  16.177   8.016   7.330  0.0823  0.1151  0.0278
  584ERGO    R4 8713  16.334   8.175   7.520 -0.0500  0.3555 -0.0695
  584ERGO    R5 8714  16.293   7.961   7.532  0.1250  0.3313  0.0610
  584ERGO    C1 8715  16.141   8.076   7.863  0.0308  0.4042 -0.0075
  584ERGO    C2 8716  16.231   8.130   8.222  0.0176  0.1649 -0.0502
  585ERGO   ROH 8717   2.894   9.354   6.427  0.4218 -0.1607 -0.0307
  585ERGO    R1 8718   2.939   9.557   6.619  0.1299 -0.0394 -0.0874
  585ERGO    R2 8719   2.744   9.642   6.795 -0.0046 -0.2414 -0.1490
  585ERGO    R3 8720   2.933   9.584   6.982  0.0453  0.0705 -0.0946
  585ERGO    R4 8721   2.746   9.767   7.117 -0.3064 -0.2216 -0.1500
  585ERGO    R5 8722   2.963   9.790   7.101 -0.3281  0.1354 -0.0909
  585ERGO    C1 8723   2.924   9.785   7.480 -0.4353  0.0827 -0.0995
  585ERGO    C2 8724   2.788   9.885   7.772  0.0920 -0.1407  0.0538
  586ERGO   ROH 8725   4.798  18.303   6.185 -0.0177 -0.1216  0.0479
  586ERGO    R1 8726   4.764  18.098   6.377  0.1225 -0.0643  0.1389
  586ERGO    R2 8727   4.875  18.110   6.629  0.0575  0.1562  0.1704
  586ERGO    R3 8728   4.619  18.068   6.709  0.0717 -0.0280  0.1165
  586ERGO    R4 8729   4.784  17.966   6.929  0.0771  0.0908  0.1436
  586ERGO    R5 8730   4.627  17.857   6.824  0.1843 -0.0153  0.1151
  586ERGO    C1 8731   4.490  17.842   7.179  0.1018 -0.1201  0.0772
  586ERGO    C2 8732   4.594  17.777   7.515 -0.0563 -0.0832 -0.1916
  587ERGO   ROH 8733  15.233   8.134   6.843 -0.0319 -0.3444  0.0924
  587ERGO    R1 8734  15.050   8.328   6.938  0.0630 -0.1367 -0.1281
  587ERGO    R2 8735  14.910   8.298   7.175 -0.2170  0.0492 -0.2395
  587ERGO    R3 8736  15.019   8.541   7.231 -0.0019 -0.0585 -0.2000
  587ERGO    R4 8737  14.810   8.507   7.432 -0.1385  0.2223 -0.3515
  587ERGO    R5 8738  14.834   8.676   7.298  0.1274  0.1601 -0.3429
  587ERGO    C1 8739  14.853   8.857   7.633  0.1092  0.2221 -0.3798
  587ERGO    C2 8740  14.754   8.948   7.942  0.0721  0.0287  0.2575
  588ERGO   ROH 8741   9.593   1.203   9.671  0.0053 -0.3930  0.0088
  588ERGO    R1 8742   9.729   1.096   9.447  0.1132 -0.0666 -0.0864
  588ERGO    R2 8743   9.620   1.097   9.193  0.0485 -0.0853 -0.0574
  588ERGO    R3 8744   9.853   1.222   9.129 -0.1479  0.3005 -0.0508
  588ERGO    R4 8745   9.763   1.098   8.878  0.1767 -0.0626  0.0000
  588ERGO    R5 8746   9.958   1.074   8.972  0.1920  0.3683  0.1033
  588ERGO    C1 8747  10.065   1.215   8.635  0.0670  0.3128  0.0397
  588ERGO    C2 8748  10.078   1.042   8.294  0.0300 -0.3424  0.1453
  589ERGO   ROH 8749  16.907  14.749   9.569  0.1403  0.1470  0.1677
  589ERGO    R1 8750  17.071  14.696   9.344  0.0680  0.2093  0.1010
  589ERGO    R2 8751  16.984  14.548   9.128  0.0821  0.0564  0.2046
  589ERGO    R3 8752  17.062  14.768   8.988 -0.1804  0.0726  0.0766
  589ERGO    R4 8753  17.120  14.542   8.810 -0.0204  0.0376  0.1600
  589ERGO    R5 8754  17.259  14.697   8.872 -0.1470  0.2075  0.0427
  589ERGO    C1 8755  17.271  14.744   8.493 -0.3266  0.0418  0.0139
  589ERGO    C2 8756  17.382  14.732   8.214  0.0123 -0.0122  0.3472
  590ERGO   ROH 8757   4.930   4.031   6.578 -0.0776 -0.0774 -0.0492
  590ERGO    R1 8758   4.966   3.880   6.815 -0.1552  0.0030  0.0143
  590ERGO    R2 8759   5.209   3.767   6.884 -0.2467 -0.2041 -0.0070
  590ERGO    R3 8760   5.171   3.905   7.115 -0.0378 -0.0518 -0.0595
  590ERGO    R4 8761   5.359   3.691   7.186 -0.3737 -0.3387  0.0234
  590ERGO    R5 8762   5.170   3.736   7.285 -0.3146  0.0029  0.0026
  590ERGO    C1 8763   5.410   3.776   7.579 -0.2515 -0.2741 -0.0081
  590ERGO    C2 8764   5.591   3.706   7.843  0.0370  0.0953  0.4635
  591ERGO   ROH 8765   3.768   8.685   9.956  0.0354 -0.0452 -0.0743
  591ERGO    R1 8766   3.834   8.562   9.709  0.1702 -0.1522  0.0140
  591ERGO    R2 8767   3.830   8.289   9.673 -0.0634 -0.1540  0.0608
  591ERGO    R3 8768   3.666   8.351   9.466  0.2103 -0.0278 -0.1247
  591ERGO    R4 8769   3.680   8.058   9.464 -0.4261 -0.0839  0.2343
  591ERGO    R5 8770   3.721   8.191   9.296 -0.0137 -0.3580  0.0985
  591ERGO    C1 8771   3.439   7.981   9.148 -0.3804  0.0752  0.1610
  591ERGO    C2 8772   3.301   7.905   8.794 -0.0245 -0.0316  0.1670
  592ERGO   ROH 8773   4.657  14.433   9.666  0.2252  0.1512  0.0590
  592ERGO    R1 8774   4.487  14.542   9.466  0.1917  0.1274  0.0751
  592ERGO    R2 8775   4.584  14.658   9.235  0.1481 -0.0476 -0.0306
  592ERGO    R3 8776   4.419  14.479   9.115  0.0039 -0.0302  0.1372
  592ERGO    R4 8777   4.464  14.686   8.912  0.1841 -0.2554 -0.0637
  592ERGO    R5 8778   4.271  14.614   8.983  0.1188 -0.0302  0.0032
  592ERGO    C1 8779   4.238  14.534   8.611  0.0696 -0.3601  0.0746
  592ERGO    C2 8780   4.155  14.382   8.295  0.0295  0.0342 -0.1043
  593ERGO   ROH 8781  17.524   6.495   7.449  0.0356  0.2415  0.1019
  593ERGO    R1 8782  17.680   6.539   7.681  0.1643  0.0677  0.0486
  593ERGO    R2 8783  17.656   6.383   7.909  0.1270  0.0447  0.0221
  593ERGO    R3 8784  17.923   6.349   7.875  0.0907 -0.1687 -0.0824
  593ERGO    R4 8785  17.867   6.232   8.137  0.0952 -0.0938 -0.0375
  593ERGO    R5 8786  18.016   6.384   8.092  0.2013 -0.2105 -0.1175
  593ERGO    C1 8787  18.242   6.113   8.237  0.0423 -0.3748 -0.1703
  593ERGO    C2 8788  18.480   5.966   8.408  0.1467  0.3225 -0.2023
  594ERGO   ROH 8789   7.009   6.156   6.182 -0.1443  0.0895  0.0990
  594ERGO    R1 8790   6.951   6.093   6.452 -0.2699  0.2445  0.1084
  594ERGO    R2 8791   7.141   5.992   6.625 -0.4865 -0.2076  0.0914
  594ERGO    R3 8792   7.065   6.204   6.779  0.0364 -0.0049  0.0912
  594ERGO    R4 8793   7.210   6.027   6.962 -0.2807 -0.3132  0.0621
  594ERGO    R5 8794   7.009   6.107   6.991 -0.1057  0.1432  0.1263
  594ERGO    C1 8795   7.180   6.245   7.303  0.3300 -0.1844  0.0449
  594ERGO    C2 8796   7.205   6.290   7.732  0.1207  0.2469  0.4117
  595ERGO   ROH 8797   2.356  15.301   9.663  0.0756  0.2578  0.1272
  595ERGO    R1 8798   2.314  15.217   9.396  0.0200  0.1727  0.1622
  595ERGO    R2 8799   2.161  15.360   9.217  0.0279  0.1456  0.1307
  595ERGO    R3 8800   2.385  15.346   9.063  0.0055  0.0400  0.1073
  595ERGO    R4 8801   2.164  15.319   8.873 -0.0210  0.0649  0.1400
  595ERGO    R5 8802   2.333  15.183   8.896 -0.0623  0.0186  0.1510
  595ERGO    C1 8803   2.377  15.281   8.530 -0.0706 -0.0811  0.1234
  595ERGO    C2 8804   2.458  15.366   8.129  0.1534  0.4241  0.3467
  596ERGO   ROH 8805   0.569  15.398   5.980  0.0565  0.2939 -0.0636
  596ERGO    R1 8806   0.495  15.170   6.129 -0.1754  0.2765 -0.2018
  596ERGO    R2 8807   0.567  15.135   6.394  0.0635 -0.0981 -0.3108
  596ERGO    R3 8808   0.300  15.102   6.429  0.0341  0.3356 -0.0489
  596ERGO    R4 8809   0.421  14.988   6.670  0.1434 -0.3577 -0.4034
  596ERGO    R5 8810   0.280  14.889   6.537 -0.2169  0.1522 -0.4315
  596ERGO    C1 8811   0.085  14.871   6.864  0.1623 -0.1018 -0.2115
  596ERGO    C2 8812   0.054  14.741   7.093  0.1812 -0.1885  0.2170
  597ERGO   ROH 8813  15.546   5.967   9.838 -0.0517  0.2623 -0.1991
  597ERGO    R1 8814  15.411   5.923   9.592 -0.0878  0.1041 -0.1526
  597ERGO    R2 8815  15.409   6.110   9.389 -0.1778  0.0027 -0.2455
  597ERGO    R3 8816  15.503   5.902   9.241 -0.1506 -0.0454 -0.1607
  597ERGO    R4 8817  15.498   6.128   9.055  0.0708 -0.0552 -0.1842
  597ERGO    R5 8818  15.405   5.933   9.025  0.0168 -0.0229 -0.2354
  597ERGO    C1 8819  15.638   5.943   8.722  0.2412 -0.1340 -0.0689
  597ERGO    C2 8820  15.802   5.848   8.394 -0.1015 -0.1904 -0.1606
  598ERGO   ROH 8821   0.649  15.739   9.613  0.2199 -0.4786  0.0835
  598ERGO    R1 8822   0.656  15.673   9.338  0.2804 -0.2722  0.0348
  598ERGO    R2 8823   0.505  15.806   9.149  0.1268 -0.2989  0.1423
  598ERGO    R3 8824   0.746  15.841   9.028  0.0853  0.0518  0.1474
  598ERGO    R4 8825   0.549  15.889   8.817  0.0097  0.0411  0.2069
  598ERGO    R5 8826   0.716  15.749   8.809  0.1549  0.2113  0.0664
  598ERGO    C1 8827   0.800  15.970   8.509 -0.0974  0.5684  0.2493
  598ERGO    C2 8828   0.775  16.019   8.124  0.0845 -0.0694 -0.2287
  599ERGO   ROH 8829   9.811   4.751   9.727 -0.2357 -0.0621  0.0256
  599ERGO    R1 8830   9.956   4.692   9.491 -0.1025 -0.0760  0.1103
  599ERGO    R2 8831   9.969   4.437   9.384 -0.1857 -0.0497  0.0381
  599ERGO    R3 8832   9.881   4.562   9.160  0.0539  0.0791  0.0125
  599ERGO    R4 8833  10.022   4.325   9.062 -0.2132 -0.0992  0.0507
  599ERGO    R5 8834  10.057   4.531   9.001  0.0737 -0.1376  0.0743
  599ERGO    C1 8835   9.970   4.376   8.663 -0.0042 -0.0070  0.0339
  599ERGO    C2 8836   9.844   4.312   8.291  0.2280 -0.1749  0.0448
  600ERGO   ROH 8837   0.291  18.400   9.951 -0.1764  0.1421  0.0332
  600ERGO    R1 8838   0.401  18.302   9.710 -0.2001  0.0831  0.0478
  600ERGO    R2 8839   0.244  18.228   9.495 -0.2097  0.2135  0.0184
  600ERGO    R3 8840   0.402  18.403   9.360 -0.0576  0.1069  0.0522
  600ERGO    R4 8841   0.266  18.248   9.151  0.0029  0.0710  0.0210
  600ERGO    R5 8842   0.481  18.278   9.171  0.0109 -0.0020  0.1444
  600ERGO    C1 8843   0.427  18.424   8.823  0.2694 -0.1118  0.0543
  600ERGO    C2 8844   0.579  18.610   8.487 -0.0781  0.0323  0.2374
  601ERGO   ROH 8845  10.938  12.863   5.746 -0.2774  0.0090 -0.0025
  601ERGO    R1 8846  11.051  12.800   5.998 -0.1950 -0.0244 -0.0474
  601ERGO    R2 8847  11.074  12.985   6.201 -0.0881 -0.0395 -0.0450
  601ERGO    R3 8848  10.940  12.798   6.344 -0.0675 -0.0248 -0.0062
  601ERGO    R4 8849  11.117  12.927   6.539 -0.2791  0.2199  0.0277
  601ERGO    R5 8850  11.102  12.713   6.499 -0.1179  0.1815  0.1640
  601ERGO    C1 8851  11.016  12.717   6.870 -0.3710  0.3848  0.1064
  601ERGO    C2 8852  10.816  12.732   7.095  0.1257  0.1996 -0.2610
  602ERGO   ROH 8853  11.053  11.787   9.347 -0.1708 -0.0113 -0.0909
  602ERGO    R1 8854  10.968  11.657   9.110 -0.0497 -0.0503 -0.1137
  602ERGO    R2 8855  10.944  11.788   8.868 -0.0222 -0.0671 -0.1239
  602ERGO    R3 8856  11.107  11.588   8.781  0.0775 -0.0109 -0.0695
  602ERGO    R4 8857  10.991  11.703   8.537 -0.0657 -0.1987 -0.0968
  602ERGO    R5 8858  10.989  11.493   8.596  0.0805 -0.1748  0.0091
  602ERGO    C1 8859  11.171  11.465   8.262  0.0026 -0.2224 -0.0299
  602ERGO    C2 8860  11.173  11.499   7.965 -0.1448 -0.1245 -0.0688
  603ERGO   ROH 8861   1.538  13.623   6.200 -0.1175 -0.0942 -0.0251
  603ERGO    R1 8862   1.337  13.706   6.381 -0.0614 -0.0215  0.0062
  603ERGO    R2 8863   1.217  13.533   6.560 -0.1474  0.0031 -0.0171
  603ERGO    R3 8864   1.296  13.719   6.743 -0.0262 -0.0762  0.0102
  603ERGO    R4 8865   1.080  13.569   6.875 -0.0936  0.0335  0.0018
  603ERGO    R5 8866   1.092  13.786   6.850  0.0292  0.0250  0.0414
  603ERGO    C1 8867   1.074  13.764   7.230  0.0515 -0.0233  0.0384
  603ERGO    C2 8868   0.832  13.722   7.521  0.1471 -0.2194  0.0366
  604ERGO   ROH 8869  13.481   5.978   9.878 -0.2286 -0.0084 -0.0367
  604ERGO    R1 8870  13.690   5.902   9.702 -0.2455 -0.1455  0.0014
  604ERGO    R2 8871  13.646   5.838   9.437 -0.2219  0.0287 -0.0453
  604ERGO    R3 8872  13.834   6.028   9.393 -0.0014 -0.1476  0.1111
  604ERGO    R4 8873  13.849   5.853   9.158 -0.3850  0.1568 -0.1588
  604ERGO    R5 8874  14.014   5.911   9.288 -0.2195 -0.2420 -0.1750
  604ERGO    C1 8875  14.144   6.041   8.954 -0.2729  0.0658 -0.0780
  604ERGO    C2 8876  14.391   6.078   8.809 -0.1119  0.0772  0.0963
  605ERGO   ROH 8877  17.815  10.715   9.729  0.2869  0.1444 -0.0878
  605ERGO    R1 8878  17.798  10.558   9.494 -0.1674  0.0694 -0.0158
  605ERGO    R2 8879  17.585  10.574   9.319 -0.2301  0.4558  0.0787
  605ERGO    R3 8880  17.780  10.619   9.135 -0.2068 -0.0424 -0.0318
  605ERGO    R4 8881  17.543  10.549   8.977 -0.4785  0.5590  0.1005
  605ERGO    R5 8882  17.740  10.455   8.965 -0.7169  0.0537 -0.0115
  605ERGO    C1 8883  17.701  10.577   8.605 -0.6014  0.1515  0.0095
  605ERGO    C2 8884  17.634  10.528   8.303  0.1329 -0.1936 -0.1987
  606ERGO   ROH 8885   7.902   4.527   9.616  0.1800 -0.0500  0.0501
  606ERGO    R1 8886   7.928   4.607   9.345  0.2096  0.0210  0.0743
  606ERGO    R2 8887   7.783   4.490   9.141  0.3023  0.0117  0.0176
  606ERGO    R3 8888   7.710   4.746   9.089  0.2141 -0.0051  0.0552
  606ERGO    R4 8889   7.786   4.636   8.828  0.1498  0.0208  0.0193
  606ERGO    R5 8890   7.863   4.818   8.919  0.1360  0.0405 -0.0001
  606ERGO    C1 8891   7.719   4.961   8.596 -0.0219  0.0105  0.0555
  606ERGO    C2 8892   7.858   5.063   8.247  0.2573  0.0157  0.0720
  607ERGO   ROH 8893  16.192   2.513   9.863  0.2104  0.2189 -0.0001
  607ERGO    R1 8894  16.136   2.554   9.588  0.2405  0.1371 -0.0184
  607ERGO    R2 8895  16.323   2.658   9.412  0.3114 -0.0629 -0.0618
  607ERGO    R3 8896  16.267   2.433   9.271  0.1633 -0.0880  0.0333
  607ERGO    R4 8897  16.330   2.634   9.068  0.1822 -0.1823 -0.0574
  607ERGO    R5 8898  16.150   2.511   9.077  0.1299 -0.1014  0.0467
  607ERGO    C1 8899  16.281   2.409   8.734 -0.0322 -0.2753  0.0344
  607ERGO    C2 8900  16.163   2.360   8.463 -0.0332  0.1116 -0.1044
  608ERGO   ROH 8901  13.399  17.866   6.319 -0.0864 -0.0998 -0.0146
  608ERGO    R1 8902  13.446  17.875   6.597 -0.0280 -0.0758 -0.0265
  608ERGO    R2 8903  13.293  18.026   6.769 -0.0811 -0.1790  0.0072
  608ERGO    R3 8904  13.263  17.790   6.900  0.0978 -0.1978  0.0184
  608ERGO    R4 8905  13.198  17.995   7.100 -0.3319 -0.2283 -0.0661
  608ERGO    R5 8906  13.344  17.835   7.122 -0.1435 -0.0508  0.0863
  608ERGO    C1 8907  13.115  17.755   7.416 -0.3099 -0.2744 -0.0984
  608ERGO    C2 8908  13.152  17.688   7.740 -0.0742 -0.2239  0.0244
  609ERGO   ROH 8909   2.489  10.876   6.153 -0.0242  0.1601 -0.1393
  609ERGO    R1 8910   2.530  10.909   6.432 -0.0595  0.0652 -0.1226
  609ERGO    R2 8911   2.557  10.694   6.604 -0.0494  0.0057 -0.1964
  609ERGO    R3 8912   2.787  10.820   6.673 -0.0741  0.0131 -0.1265
  609ERGO    R4 8913   2.727  10.648   6.902 -0.1636  0.0515 -0.1234
  609ERGO    R5 8914   2.765  10.862   6.908 -0.1630  0.0507 -0.1421
  609ERGO    C1 8915   3.042  10.740   7.139 -0.2532  0.0850 -0.0153
  609ERGO    C2 8916   3.155  10.619   7.452  0.0297 -0.0158  0.0504
  610ERGO   ROH 8917  18.374   2.901   6.494 -0.0773  0.0066  0.0349
  610ERGO    R1 8918  18.337   3.021   6.747 -0.0518 -0.0505  0.0655
  610ERGO    R2 8919  18.106   2.989   6.895 -0.0904  0.0220  0.0218
  610ERGO    R3 8920  18.280   2.908   7.088 -0.1577 -0.1247  0.0229
  610ERGO    R4 8921  18.029   2.962   7.231 -0.1662 -0.1177 -0.0052
  610ERGO    R5 8922  18.226   3.044   7.277 -0.1531 -0.2012  0.0777
  610ERGO    C1 8923  18.147   2.870   7.608 -0.2735 -0.3368 -0.0199
  610ERGO    C2 8924  18.078   2.594   7.887  0.0344 -0.0239  0.1176
  611ERGO   ROH 8925   1.183   4.114   6.742 -0.4390  0.2521 -0.1405
  611ERGO    R1 8926   1.249   4.063   7.013 -0.1049  0.2676 -0.2152
  611ERGO    R2 8927   1.149   4.213   7.221 -0.1583  0.0415 -0.0741
  611ERGO    R3 8928   1.071   3.971   7.316  0.3179 -0.1225 -0.0748
  611ERGO    R4 8929   1.075   4.147   7.552 -0.4021 -0.0022 -0.1342
  611ERGO    R5 8930   1.178   3.954   7.530  0.1039  0.2304  0.0655
  611ERGO    C1 8931   0.960   3.880   7.834 -0.0970 -0.1817 -0.1697
  611ERGO    C2 8932   0.948   3.731   8.126  0.4410 -0.1958  0.2848
  612ERGO   ROH 8933   7.736  11.986   9.336  0.2390 -0.0725  0.0382
  612ERGO    R1 8934   7.637  11.912   9.082  0.0489  0.1394  0.0471
  612ERGO    R2 8935   7.607  12.094   8.876  0.1763  0.2586  0.1250
  612ERGO    R3 8936   7.760  11.915   8.739 -0.0816  0.1282  0.0015
  612ERGO    R4 8937   7.676  12.110   8.537  0.0844  0.2956  0.1081
  612ERGO    R5 8938   7.651  11.894   8.527 -0.1747  0.3328  0.0322
  612ERGO    C1 8939   7.860  11.952   8.212 -0.2112  0.1948 -0.0179
  612ERGO    C2 8940   7.864  11.808   7.853  0.1808 -0.0609  0.0685
  613ERGO   ROH 8941   7.476   9.191   9.971 -0.0337  0.2587  0.1316
  613ERGO    R1 8942   7.333   9.068   9.760  0.0247  0.1570  0.1510
  613ERGO    R2 8943   7.145   9.202   9.609 -0.0163  0.0520  0.1091
  613ERGO    R3 8944   7.297   9.117   9.401  0.0271  0.0609  0.1371
  613ERGO    R4 8945   7.047   9.207   9.278 -0.0214 -0.1053  0.1074
  613ERGO    R5 8946   7.141   9.012   9.252  0.0780 -0.0674  0.1712
  613ERGO    C1 8947   7.133   9.130   8.889  0.0164 -0.1886  0.1326
  613ERGO    C2 8948   7.096   9.194   8.570 -0.0480 -0.3062 -0.3030
  614ERGO   ROH 8949   6.055   1.649   9.422  0.2206 -0.2141 -0.2453
  614ERGO    R1 8950   5.901   1.677   9.186  0.1184 -0.3315 -0.1939
  614ERGO    R2 8951   5.945   1.879   9.002 -0.2727 -0.1271 -0.0749
  614ERGO    R3 8952   5.963   1.672   8.827  0.0581  0.0101 -0.2132
  614ERGO    R4 8953   5.882   1.901   8.663 -0.3279 -0.0033 -0.0572
  614ERGO    R5 8954   5.782   1.708   8.674 -0.0145 -0.1817 -0.1768
  614ERGO    C1 8955   5.862   1.719   8.301 -0.0495  0.1977 -0.1767
  614ERGO    C2 8956   5.910   1.735   7.984 -0.3927  0.2343  0.0539
  615ERGO   ROH 8957   6.788   2.001   6.341  0.0300 -0.2495  0.0686
  615ERGO    R1 8958   6.913   2.161   6.537  0.1962 -0.1621 -0.1051
  615ERGO    R2 8959   6.866   2.130   6.807  0.1143  0.2187 -0.0685
  615ERGO    R3 8960   7.136   2.108   6.820  0.0892 -0.0982 -0.0078
  615ERGO    R4 8961   7.061   2.241   7.070  0.2221  0.4184 -0.2301
  615ERGO    R5 8962   7.208   2.311   6.925  0.3294 -0.0036 -0.3380
  615ERGO    C1 8963   7.429   2.285   7.235  0.2613  0.2372 -0.2672
  615ERGO    C2 8964   7.666   2.327   7.426  0.2615  0.1465  0.1564
  616ERGO   ROH 8965   6.971   8.790   6.836  0.3313 -0.1825  0.0889
  616ERGO    R1 8966   6.800   8.906   7.030  0.3855  0.1668 -0.0616
  616ERGO    R2 8967   6.651   8.754   7.206 -0.2073  0.4523 -0.2814
  616ERGO    R3 8968   6.776   8.906   7.393 -0.0231  0.0722 -0.0862
  616ERGO    R4 8969   6.526   8.821   7.521 -0.1833  0.3240 -0.2454
  616ERGO    R5 8970   6.598   9.025   7.501  0.1349  0.2355 -0.0131
  616ERGO    C1 8971   6.571   9.003   7.881  0.0037 -0.1077 -0.0413
  616ERGO    C2 8972   6.382   8.812   8.254 -0.0400 -0.3223 -0.0202
  617ERGO   ROH 8973   9.225   6.644   9.798  0.1302  0.2231  0.0735
  617ERGO    R1 8974   9.198   6.872   9.632  0.0769  0.2042  0.0558
  617ERGO    R2 8975   9.203   6.857   9.356  0.2367  0.2026  0.0581
  617ERGO    R3 8976   8.966   6.987   9.376  0.1421  0.0540 -0.0724
  617ERGO    R4 8977   9.056   7.039   9.102  0.1773 -0.0278 -0.0753
  617ERGO    R5 8978   8.997   7.188   9.249  0.0382  0.0104 -0.1682
  617ERGO    C1 8979   8.747   7.267   8.973  0.0541 -0.3015 -0.2754
  617ERGO    C2 8980   8.564   7.397   8.673  0.3109  0.4484 -0.0208
  618ERGO   ROH 8981   2.910  18.409   9.561  0.0630  0.0648  0.0528
  618ERGO    R1 8982   2.858  18.346   9.290 -0.0327  0.0633  0.0712
  618ERGO    R2 8983   2.747  18.527   9.113 -0.0702  0.0698  0.1022
  618ERGO    R3 8984   2.966  18.468   8.964 -0.1265  0.0417  0.0321
  618ERGO    R4 8985   2.784  18.602   8.778 -0.1920  0.0110  0.0748
  618ERGO    R5 8986   2.879  18.407   8.750 -0.2052  0.0060  0.0744
  618ERGO    C1 8987   3.012  18.590   8.443 -0.3157 -0.0496 -0.0071
  618ERGO    C2 8988   3.142  18.746   8.009  0.0045  0.0787  0.0824
  619ERGO   ROH 8989  14.448   2.896   6.518 -0.0338  0.2411  0.0489
  619ERGO    R1 8990  14.334   3.045   6.730  0.0182  0.2006  0.1047
  619ERGO    R2 8991  14.197   2.925   6.939  0.0665  0.1623  0.1111
  619ERGO    R3 8992  14.374   3.064   7.092  0.1022  0.1303  0.1001
  619ERGO    R4 8993  14.152   3.000   7.273  0.2003 -0.0229  0.1724
  619ERGO    R5 8994  14.236   3.197   7.235  0.1308  0.0212  0.2340
  619ERGO    C1 8995  14.293   3.173   7.612  0.3116 -0.1607  0.1978
  619ERGO    C2 8996  14.088   3.365   7.834 -0.0172 -0.1307  0.2515
  620ERGO   ROH 8997  16.234  10.581   9.719  0.0638 -0.1174  0.0622
  620ERGO    R1 8998  16.311  10.641   9.453 -0.1279  0.0027  0.0317
  620ERGO    R2 8999  16.575  10.641   9.371 -0.1751  0.1562 -0.1318
  620ERGO    R3 9000  16.482  10.469   9.181 -0.2087  0.1689 -0.1264
  620ERGO    R4 9001  16.632  10.672   9.031 -0.1029  0.0888 -0.1259
  620ERGO    R5 9002  16.425  10.610   8.996 -0.1199  0.1660 -0.1546
  620ERGO    C1 9003  16.578  10.528   8.656 -0.0924  0.0617 -0.1173
  620ERGO    C2 9004  16.604  10.636   8.333  0.0254  0.0757  0.1334
  621ERGO   ROH 9005   5.636  13.989   9.417  0.0911  0.1071 -0.0393
  621ERGO    R1 9006   5.483  13.876   9.207 -0.0015  0.0421  0.0622
  621ERGO    R2 9007   5.207  13.861   9.217 -0.0091  0.1915  0.1192
  621ERGO    R3 9008   5.224  13.991   8.979  0.0208  0.0207  0.0261
  621ERGO    R4 9009   5.005  13.798   8.943  0.0175  0.0023  0.1415
  621ERGO    R5 9010   5.180  13.821   8.815  0.0319 -0.0961  0.1426
  621ERGO    C1 9011   4.904  13.884   8.560  0.0612 -0.2682  0.0670
  621ERGO    C2 9012   4.902  13.757   8.275 -0.1064  0.1077  0.1261
  622ERGO   ROH 9013   4.284  13.245   9.692  0.1153  0.1252 -0.0679
  622ERGO    R1 9014   4.294  13.130   9.433  0.0557  0.0662 -0.0439
  622ERGO    R2 9015   4.067  13.076   9.285  0.0294  0.1735 -0.0393
  622ERGO    R3 9016   4.193  13.227   9.097  0.1265  0.0584 -0.0682
  622ERGO    R4 9017   4.062  13.013   8.945 -0.1223  0.1832 -0.0399
  622ERGO    R5 9018   4.273  13.067   8.937 -0.0679 -0.0185 -0.0933
  622ERGO    C1 9019   4.177  13.117   8.571 -0.1194  0.0808 -0.0675
  622ERGO    C2 9020   4.244  12.933   8.427 -0.1205 -0.1370 -0.1541
  623ERGO   ROH 9021   3.119  12.395   9.687  0.0346 -0.0034 -0.1119
  623ERGO    R1 9022   3.105  12.454   9.410 -0.1820 -0.1198 -0.1256
  623ERGO    R2 9023   3.329  12.463   9.248 -0.2792  0.1208 -0.2319
  623ERGO    R3 9024   3.188  12.284   9.100 -0.1133 -0.1175 -0.1126
  623ERGO    R4 9025   3.411  12.364   8.928 -0.3750  0.2910 -0.3123
  623ERGO    R5 9026   3.200  12.369   8.876 -0.4513 -0.0666 -0.1260
  623ERGO    C1 9027   3.327  12.138   8.601 -0.2752  0.1665 -0.2473
  623ERGO    C2 9028   3.214  11.914   8.298  0.0186  0.2431 -0.0300
  624ERGO   ROH 9029  18.400  11.604   9.957 -0.1237 -0.0324 -0.0151
  624ERGO    R1 9030  18.396  11.693   9.688  0.0112 -0.2328 -0.0865
  624ERGO    R2 9031  18.309  11.533   9.480 -0.3541 -0.2309  0.0544
  624ERGO    R3 9032  18.143  11.742   9.430  0.0575  0.0764 -0.0763
  624ERGO    R4 9033  18.180  11.613   9.169 -0.3340 -0.2836  0.0331
  624ERGO    R5 9034  18.213  11.824   9.216  0.1333 -0.2913 -0.1992
  624ERGO    C1 9035  17.949  11.857   8.942  0.0641 -0.0259 -0.1021
  624ERGO    C2 9036  17.961  12.005   8.691  0.0212 -0.1017 -0.1740
  625ERGO   ROH 9037  10.741  17.702   9.537  0.0530 -0.0308  0.0019
  625ERGO    R1 9038  10.888  17.616   9.311  0.0953  0.0864 -0.0174
  625ERGO    R2 9039  10.770  17.494   9.093  0.1690 -0.0584  0.0148
  625ERGO    R3 9040  10.895  17.692   8.955 -0.0515  0.0545 -0.0260
  625ERGO    R4 9041  10.787  17.515   8.748  0.1583 -0.1097  0.0121
  625ERGO    R5 9042  10.993  17.580   8.767  0.0806  0.1290  0.0030
  625ERGO    C1 9043  10.915  17.713   8.418 -0.0551 -0.0336 -0.0278
  625ERGO    C2 9044  10.786  17.833   8.034  0.1877 -0.0335 -0.2630
  626ERGO   ROH 9045   2.981   2.769   9.762 -0.3524  0.0582 -0.1673
  626ERGO    R1 9046   3.119   2.776   9.515 -0.1078  0.0998 -0.0341
  626ERGO    R2 9047   2.989   2.769   9.271  0.1389 -0.1358 -0.1720
  626ERGO    R3 9048   3.132   2.995   9.225 -0.0494 -0.0026 -0.1075
  626ERGO    R4 9049   3.098   2.873   8.960  0.3073 -0.1019 -0.1017
  626ERGO    R5 9050   3.286   2.934   9.052  0.1642  0.1132  0.0439
  626ERGO    C1 9051   3.296   3.147   8.736  0.2286  0.0430 -0.0001
  626ERGO    C2 9052   3.130   3.151   8.416  0.0721  0.2708 -0.1641
  627ERGO   ROH 9053  17.647  10.262   6.218  0.0403 -0.1459  0.0920
  627ERGO    R1 9054  17.620  10.154   6.478 -0.1610  0.0545  0.1560
  627ERGO    R2 9055  17.828  10.145   6.658 -0.1629 -0.2639  0.1344
  627ERGO    R3 9056  17.652  10.274   6.820  0.1066  0.1854  0.0898
  627ERGO    R4 9057  17.844  10.145   7.003 -0.2642 -0.3587  0.1411
  627ERGO    R5 9058  17.626  10.126   7.007 -0.3406  0.2088  0.0643
  627ERGO    C1 9059  17.687  10.267   7.357 -0.0700  0.0079  0.1031
  627ERGO    C2 9060  17.979  10.451   7.684 -0.1117 -0.3800 -0.3807
  628ERGO   ROH 9061   2.690  14.478   9.757  0.0233  0.0143  0.1198
  628ERGO    R1 9062   2.733  14.346   9.510  0.1566 -0.0263  0.1640
  628ERGO    R2 9063   2.546  14.179   9.396  0.2567 -0.1244  0.1377
  628ERGO    R3 9064   2.577  14.342   9.182  0.2680 -0.1594  0.1126
  628ERGO    R4 9065   2.431  14.111   9.078 -0.0956  0.0171  0.2299
  628ERGO    R5 9066   2.616  14.193   8.998 -0.0643 -0.2028  0.0738
  628ERGO    C1 9067   2.393  14.225   8.690 -0.2902  0.0665  0.2600
  628ERGO    C2 9068   2.308  14.225   8.349 -0.2917  0.0186 -0.0095
  629ERGO   ROH 9069  13.376  16.913   6.141 -0.0535  0.2277 -0.0494
  629ERGO    R1 9070  13.238  16.995   6.375 -0.1638  0.0551 -0.0511
  629ERGO    R2 9071  12.996  16.886   6.451 -0.0698 -0.1982 -0.0960
  629ERGO    R3 9072  13.127  16.840   6.684 -0.0478 -0.1078 -0.0906
  629ERGO    R4 9073  12.844  16.819   6.754 -0.0336 -0.2135 -0.0814
  629ERGO    R5 9074  12.992  16.946   6.851 -0.0857 -0.1391 -0.1045
  629ERGO    C1 9075  12.878  16.737   7.149  0.0081 -0.1375 -0.0679
  629ERGO    C2 9076  12.713  16.673   7.527  0.1557  0.0451 -0.0392
  630ERGO   ROH 9077   4.390   8.073   6.348  0.0826 -0.0784  0.1740
  630ERGO    R1 9078   4.474   7.982   6.602 -0.0599 -0.0580  0.2295
  630ERGO    R2 9079   4.568   8.154   6.797  0.0657 -0.0693  0.1779
  630ERGO    R3 9080   4.375   8.036   6.948 -0.0823  0.1800  0.1885
  630ERGO    R4 9081   4.584   8.114   7.140  0.2106 -0.4005  0.1366
  630ERGO    R5 9082   4.497   7.915   7.116 -0.2077 -0.2172  0.0079
  630ERGO    C1 9083   4.411   7.981   7.482  0.1561 -0.3592  0.1225
  630ERGO    C2 9084   4.481   7.922   7.814 -0.0489  0.1964 -0.2020
  631ERGO   ROH 9085   4.964  12.028   9.763  0.1336 -0.1647  0.1280
  631ERGO    R1 9086   4.999  11.864   9.535  0.1065 -0.0857  0.0673
  631ERGO    R2 9087   4.804  11.833   9.342  0.0490 -0.0945  0.1320
  631ERGO    R3 9088   5.003  11.910   9.174 -0.0394  0.0189  0.0768
  631ERGO    R4 9089   4.830  11.738   9.011  0.1316 -0.2809  0.1905
  631ERGO    R5 9090   5.046  11.716   9.039  0.1637 -0.0283  0.1985
  631ERGO    C1 9091   5.033  11.754   8.660  0.0966 -0.2830  0.1728
  631ERGO    C2 9092   4.917  11.604   8.332 -0.3116  0.1623  0.2994
  632ERGO   ROH 9093  17.132   6.534   6.429  0.2432  0.1165  0.0332
  632ERGO    R1 9094  17.014   6.487   6.682  0.1804  0.0390 -0.0108
  632ERGO    R2 9095  17.147   6.358   6.886  0.1475  0.0262 -0.0025
  632ERGO    R3 9096  17.081   6.581   7.027  0.0590 -0.0193  0.0305
  632ERGO    R4 9097  17.130   6.375   7.231  0.3668  0.0209  0.0108
  632ERGO    R5 9098  16.950   6.498   7.210  0.2470 -0.1234  0.1239
  632ERGO    C1 9099  17.058   6.594   7.564  0.4114 -0.0250  0.0494
  632ERGO    C2 9100  17.165   6.480   7.968 -0.0116  0.3148  0.0509
  633ERGO   ROH 9101  14.320  16.619   5.946 -0.1211 -0.0469  0.1038
  633ERGO    R1 9102  14.195  16.647   6.198 -0.0210  0.0533  0.1423
  633ERGO    R2 9103  14.199  16.447   6.388 -0.1234  0.0519  0.1365
  633ERGO    R3 9104  14.300  16.644   6.547  0.0821 -0.0311  0.1130
  633ERGO    R4 9105  14.205  16.438   6.734 -0.3225  0.1588  0.1445
  633ERGO    R5 9106  14.151  16.650   6.735 -0.0187  0.2485  0.0361
  633ERGO    C1 9107  14.302  16.616   7.084 -0.2454  0.1431  0.1271
  633ERGO    C2 9108  14.461  16.443   7.460 -0.0021 -0.1325  0.2376
  634ERGO   ROH 9109   5.553  16.925   6.098 -0.0335  0.1009 -0.0856
  634ERGO    R1 9110   5.622  17.100   6.310  0.1177  0.1818 -0.2010
  634ERGO    R2 9111   5.675  17.010   6.565 -0.1486  0.3174 -0.1005
  634ERGO    R3 9112   5.907  17.148   6.531  0.0811 -0.0511 -0.0964
  634ERGO    R4 9113   5.897  17.090   6.818 -0.3357  0.4625  0.0208
  634ERGO    R5 9114   5.923  17.286   6.726  0.0306  0.2797 -0.3108
  634ERGO    C1 9115   6.243  17.266   6.933 -0.2290  0.2010  0.0952
  634ERGO    C2 9116   6.490  17.455   7.152  0.1433 -0.0613 -0.1281
  635ERGO   ROH 9117  10.934   7.657   9.638  0.0003 -0.3170 -0.1210
  635ERGO    R1 9118  10.842   7.862   9.466  0.1131 -0.1402  0.0242
  635ERGO    R2 9119  11.014   8.017   9.314  0.1906 -0.2638 -0.0277
  635ERGO    R3 9120  10.855   7.933   9.110 -0.0409 -0.0120  0.0455
  635ERGO    R4 9121  11.083   8.059   8.978 -0.0401 -0.1530 -0.0618
  635ERGO    R5 9122  10.873   8.105   8.945 -0.0192  0.0521  0.1226
  635ERGO    C1 9123  10.974   8.005   8.591 -0.3916  0.1479 -0.0132
  635ERGO    C2 9124  10.988   7.981   8.135 -0.2492  0.1502 -0.0650
  636ERGO   ROH 9125   2.307  16.269   6.292  0.1060  0.0961 -0.0704
  636ERGO    R1 9126   2.361  16.301   6.568  0.0991  0.1431 -0.0755
  636ERGO    R2 9127   2.383  16.087   6.741  0.0029  0.1817 -0.0255
  636ERGO    R3 9128   2.623  16.200   6.799  0.0434  0.1004 -0.0274
  636ERGO    R4 9129   2.546  16.059   7.044  0.1330 -0.1432 -0.1202
  636ERGO    R5 9130   2.602  16.269   7.028  0.1481 -0.1227  0.0585
  636ERGO    C1 9131   2.866  16.149   7.276  0.2468 -0.4087 -0.1771
  636ERGO    C2 9132   2.834  15.948   7.532 -0.0160  0.2041 -0.2733
  637ERGO   ROH 9133   3.574   0.283   5.936 -0.0448 -0.1102  0.0777
  637ERGO    R1 9134   3.666   0.235   6.200 -0.0121 -0.1187  0.0656
  637ERGO    R2 9135   3.598   0.008   6.343  0.0638 -0.1617  0.0425
  637ERGO    R3 9136   3.867  -0.017   6.368  0.0734 -0.0833  0.0141
  637ERGO    R4 9137   3.758  -0.164   6.596  0.1538 -0.0152  0.0860
  637ERGO    R5 9138   3.907  -0.006   6.604  0.1111  0.0220 -0.0009
  637ERGO    C1 9139   4.104  -0.288   6.767  0.2152  0.1439  0.0846
  637ERGO    C2 9140   4.182  -0.304   6.982 -0.1889  0.2201 -0.0454
  638ERGO   ROH 9141  12.093  12.259   9.455 -0.1399 -0.1587  0.1100
  638ERGO    R1 9142  12.082  12.079   9.237  0.0988 -0.0769  0.0273
  638ERGO    R2 9143  11.894  12.100   9.036  0.0092 -0.2859  0.0896
  638ERGO    R3 9144  12.113  12.100   8.875 -0.0257  0.1470  0.0269
  638ERGO    R4 9145  11.899  11.984   8.710  0.1102 -0.1467  0.0401
  638ERGO    R5 9146  12.094  11.896   8.750  0.2778  0.1587 -0.0504
  638ERGO    C1 9147  12.108  11.916   8.370  0.1362  0.3409 -0.0476
  638ERGO    C2 9148  12.050  11.796   7.980  0.1003  0.0709 -0.0834
  639ERGO   ROH 9149  15.743  13.789   6.047 -0.1148  0.0450  0.0811
  639ERGO    R1 9150  15.682  13.925   6.288 -0.1053  0.0215  0.0967
  639ERGO    R2 9151  15.451  13.878   6.431 -0.0978  0.0055  0.1025
  639ERGO    R3 9152  15.624  13.834   6.635 -0.0885 -0.0118  0.0911
  639ERGO    R4 9153  15.391  13.959   6.762 -0.0706  0.0099  0.1064
  639ERGO    R5 9154  15.598  14.025   6.778 -0.0625 -0.0091  0.0935
  639ERGO    C1 9155  15.519  13.965   7.146 -0.0460 -0.0037  0.0979
  639ERGO    C2 9156  15.595  14.067   7.489 -0.1339  0.0532  0.0107
  640ERGO   ROH 9157  14.705  17.829   9.626 -0.1928  0.1301 -0.0496
  640ERGO    R1 9158  14.537  17.817   9.398 -0.1532 -0.1081 -0.0696
  640ERGO    R2 9159  14.616  17.911   9.151 -0.2830  0.0807 -0.0398
  640ERGO    R3 9160  14.547  17.661   9.070  0.1495 -0.0265 -0.1036
  640ERGO    R4 9161  14.581  17.812   8.821 -0.2963  0.1646 -0.0638
  640ERGO    R5 9162  14.406  17.696   8.880 -0.0449 -0.2070 -0.0003
  640ERGO    C1 9163  14.496  17.519   8.554  0.1018  0.1131 -0.1377
  640ERGO    C2 9164  14.475  17.505   8.209 -0.0419  0.1698  0.0338
  641ERGO   ROH 9165  13.293   7.352   9.683 -0.0389 -0.2405  0.1318
  641ERGO    R1 9166  13.263   7.206   9.443 -0.0934 -0.1716  0.0968
  641ERGO    R2 9167  13.159   7.318   9.212 -0.0212 -0.0691  0.1163
  641ERGO    R3 9168  13.391   7.227   9.103 -0.0585 -0.1590  0.1100
  641ERGO    R4 9169  13.214   7.275   8.874 -0.0279 -0.0251  0.1091
  641ERGO    R5 9170  13.320   7.090   8.919 -0.1184 -0.0882  0.0775
  641ERGO    C1 9171  13.464   7.165   8.574 -0.0667 -0.0839  0.0991
  641ERGO    C2 9172  13.391   7.196   8.216  0.1901  0.1089 -0.2000
  642ERGO   ROH 9173   5.096  14.895   5.895 -0.2218 -0.0468 -0.0314
  642ERGO    R1 9174   4.979  15.066   6.088 -0.3380 -0.0367 -0.1081
  642ERGO    R2 9175   4.776  14.982   6.257 -0.2271 -0.1258 -0.0090
  642ERGO    R3 9176   4.945  15.070   6.450 -0.2589  0.1479 -0.1034
  642ERGO    R4 9177   4.684  15.060   6.581 -0.1992 -0.0890 -0.0110
  642ERGO    R5 9178   4.818  15.231   6.573 -0.3943  0.0572 -0.1296
  642ERGO    C1 9179   4.789  15.188   6.951 -0.2127  0.1896 -0.1008
  642ERGO    C2 9180   4.691  15.443   7.193 -0.0299  0.1206 -0.2462
  643ERGO   ROH 9181   5.964   8.282  10.243 -0.3203  0.0480  0.0198
  643ERGO    R1 9182   5.845   8.309   9.988 -0.1212  0.1138 -0.0693
  643ERGO    R2 9183   5.926   8.499   9.804  0.2141 -0.0204 -0.0707
  643ERGO    R3 9184   5.953   8.283   9.642  0.0871 -0.0967  0.0093
  643ERGO    R4 9185   5.884   8.503   9.461 -0.0157 -0.1757 -0.0459
  643ERGO    R5 9186   5.783   8.311   9.476 -0.0211 -0.1602  0.1101
  643ERGO    C1 9187   5.885   8.302   9.109 -0.2687 -0.3378  0.0435
  643ERGO    C2 9188   6.078   8.252   8.859  0.3025 -0.2290 -0.2652
  644ERGO   ROH 9189   1.536   9.259   9.851 -0.0543 -0.0057  0.0516
  644ERGO    R1 9190   1.513   9.223   9.571 -0.1795  0.0178  0.0608
  644ERGO    R2 9191   1.625   9.397   9.390 -0.2465  0.0131  0.0348
  644ERGO    R3 9192   1.740   9.172   9.291 -0.3114  0.0138 -0.0514
  644ERGO    R4 9193   1.724   9.356   9.061 -0.2398  0.1410  0.0183
  644ERGO    R5 9194   1.648   9.150   9.070 -0.3129  0.1490 -0.0751
  644ERGO    C1 9195   1.890   9.120   8.777 -0.2967  0.2161 -0.0723
  644ERGO    C2 9196   1.876   9.255   8.446 -0.0084 -0.2265 -0.0739
  645ERGO   ROH 9197   0.220   1.437  10.185  0.0292 -0.0309  0.0022
  645ERGO    R1 9198   0.345   1.524   9.946  0.0957 -0.0040  0.0475
  645ERGO    R2 9199   0.399   1.353   9.735  0.0529  0.0442  0.0015
  645ERGO    R3 9200   0.260   1.538   9.593  0.1492  0.1476  0.0391
  645ERGO    R4 9201   0.471   1.448   9.411 -0.0260 -0.0960 -0.0585
  645ERGO    R5 9202   0.427   1.654   9.466  0.1977 -0.0369 -0.0750
  645ERGO    C1 9203   0.382   1.677   9.088  0.0183 -0.0805 -0.0580
  645ERGO    C2 9204   0.413   1.568   8.791  0.0816  0.4424 -0.1988
  646ERGO   ROH 9205  18.004  16.334   5.998 -0.0984  0.1550 -0.0573
  646ERGO    R1 9206  18.160  16.296   6.231 -0.0587  0.1381 -0.0860
  646ERGO    R2 9207  18.185  16.489   6.427 -0.1755  0.0562  0.0131
  646ERGO    R3 9208  18.100  16.288   6.590 -0.0345 -0.0847 -0.0855
  646ERGO    R4 9209  18.215  16.488   6.772 -0.2748 -0.0422  0.0217
  646ERGO    R5 9210  18.267  16.277   6.762 -0.0727  0.0094 -0.0422
  646ERGO    C1 9211  18.154  16.299   7.125 -0.2003 -0.2319 -0.0658
  646ERGO    C2 9212  17.983  16.460   7.444  0.2033 -0.1115 -0.0042
  647ERGO   ROH 9213   9.141   7.259   6.207  0.1455  0.1451  0.0638
  647ERGO    R1 9214   9.227   7.127   6.442  0.4008  0.1809 -0.0050
  647ERGO    R2 9215   9.368   7.257   6.641  0.0387  0.3936  0.1300
  647ERGO    R3 9216   9.169   7.160   6.800  0.2100 -0.2065  0.0039
  647ERGO    R4 9217   9.382   7.238   6.986 -0.1103  0.3937  0.1350
  647ERGO    R5 9218   9.284   7.044   6.975  0.4522  0.0987  0.0531
  647ERGO    C1 9219   9.203   7.138   7.336 -0.0362 -0.1696  0.0195
  647ERGO    C2 9220   9.050   7.223   7.679  0.2284 -0.0649 -0.1033
  648ERGO   ROH 9221  15.246  12.209   9.817 -0.1358  0.1506  0.1951
  648ERGO    R1 9222  15.202  12.257   9.541 -0.0748  0.0012  0.1588
  648ERGO    R2 9223  15.286  12.488   9.415 -0.1798 -0.0011  0.0858
  648ERGO    R3 9224  15.409  12.313   9.247 -0.0123  0.0016  0.2021
  648ERGO    R4 9225  15.336  12.541   9.077  0.0124 -0.0607  0.1032
  648ERGO    R5 9226  15.286  12.332   9.042  0.1072 -0.0880  0.1195
  648ERGO    C1 9227  15.479  12.408   8.723  0.2815 -0.0929  0.2226
  648ERGO    C2 9228  15.538  12.432   8.309 -0.1488 -0.2709 -0.1088
  649ERGO   ROH 9229  18.429   3.428  10.264 -0.0012  0.3200  0.0405
  649ERGO    R1 9230  18.428   3.591  10.033  0.1403  0.2721  0.0045
  649ERGO    R2 9231  18.649   3.622   9.871  0.1306 -0.0618 -0.0787
  649ERGO    R3 9232  18.477   3.545   9.676 -0.0426  0.1232 -0.0028
  649ERGO    R4 9233  18.667   3.725   9.542  0.0916 -0.0742 -0.0847
  649ERGO    R5 9234  18.449   3.741   9.541  0.1050  0.1576  0.0144
  649ERGO    C1 9235  18.515   3.712   9.166 -0.0938  0.0922 -0.0170
  649ERGO    C2 9236  18.461   3.798   8.884  0.0555  0.2742  0.1960
  650ERGO   ROH 9237  14.565  15.025   6.129 -0.0719 -0.0124  0.0461
  650ERGO    R1 9238  14.495  15.034   6.403 -0.0385  0.1404  0.0521
  650ERGO    R2 9239  14.387  14.816   6.536 -0.2265  0.2752  0.1373
  650ERGO    R3 9240  14.594  14.860   6.707 -0.1651  0.1445  0.0948
  650ERGO    R4 9241  14.426  14.664   6.844 -0.2478  0.2458  0.1240
  650ERGO    R5 9242  14.495  14.854   6.924 -0.1173  0.1977  0.1140
  650ERGO    C1 9243  14.644  14.616   7.183 -0.2023  0.1060  0.0763
  650ERGO    C2 9244  14.710  14.565   7.526 -0.0501  0.3463  0.2288
  651ERGO   ROH 9245   8.252  18.339   9.109 -0.2381 -0.1342  0.1403
  651ERGO    R1 9246   8.271  18.279   8.833 -0.0049 -0.1953  0.1686
  651ERGO    R2 9247   8.198  18.035   8.728 -0.0811 -0.1564  0.1392
  651ERGO    R3 9248   8.043  18.187   8.565  0.1938 -0.0706 -0.0495
  651ERGO    R4 9249   8.073  17.932   8.423 -0.2062 -0.2981  0.2360
  651ERGO    R5 9250   8.116  18.131   8.344  0.1403 -0.4454  0.0173
  651ERGO    C1 9251   7.855  18.016   8.092 -0.0211 -0.2998  0.1154
  651ERGO    C2 9252   7.714  17.983   7.852  0.3765 -0.2310  0.4410
  652ERGO   ROH 9253   4.630   3.342   9.678  0.1563 -0.0098  0.0875
  652ERGO    R1 9254   4.541   3.180   9.464 -0.0463  0.0636  0.1141
  652ERGO    R2 9255   4.385   3.278   9.258  0.0348  0.2129  0.1245
  652ERGO    R3 9256   4.582   3.173   9.103 -0.0962 -0.0187  0.1091
  652ERGO    R4 9257   4.404   3.310   8.914  0.1626  0.3930  0.1467
  652ERGO    R5 9258   4.469   3.102   8.903 -0.1729  0.2842  0.0385
  652ERGO    C1 9259   4.599   3.231   8.568  0.1140  0.2805  0.1451
  652ERGO    C2 9260   4.575   3.458   8.278 -0.0757  0.2211  0.0340
  653ERGO   ROH 9261  17.118  10.969   6.351 -0.1391  0.0546  0.1563
  653ERGO    R1 9262  17.029  11.025   6.614 -0.0970  0.0966  0.1613
  653ERGO    R2 9263  17.020  10.834   6.812 -0.1038  0.1196  0.1806
  653ERGO    R3 9264  17.170  11.015   6.949 -0.0577  0.1085  0.1459
  653ERGO    R4 9265  17.030  10.863   7.157 -0.0210  0.1142  0.1793
  653ERGO    R5 9266  17.032  11.079   7.134 -0.0111  0.1163  0.1801
  653ERGO    C1 9267  17.176  11.049   7.485  0.0707  0.1007  0.1459
  653ERGO    C2 9268  17.222  11.181   7.799 -0.0407  0.3405  0.0911
  654ERGO   ROH 9269   0.798  17.489   9.975 -0.0989 -0.0631 -0.0388
  654ERGO    R1 9270   0.948  17.570   9.749 -0.1320  0.0292 -0.0275
  654ERGO    R2 9271   1.037  17.392   9.557  0.0204  0.0786 -0.0026
  654ERGO    R3 9272   0.908  17.561   9.388 -0.0836 -0.0284 -0.0315
  654ERGO    R4 9273   1.117  17.437   9.224 -0.0764 -0.0066 -0.0381
  654ERGO    R5 9274   1.081  17.650   9.249 -0.1502 -0.0108 -0.1042
  654ERGO    C1 9275   1.042  17.621   8.871 -0.2305 -0.1563 -0.0859
  654ERGO    C2 9276   1.020  17.791   8.599  0.0394  0.1493  0.0630
  655ERGO   ROH 9277   8.645   6.011   9.515 -0.1298 -0.1869  0.0925
  655ERGO    R1 9278   8.613   5.906   9.254 -0.1763 -0.0418  0.0381
  655ERGO    R2 9279   8.588   6.067   9.031  0.0805  0.0854  0.0928
  655ERGO    R3 9280   8.796   5.919   8.940 -0.0639 -0.1247  0.1007
  655ERGO    R4 9281   8.698   6.061   8.703  0.0117 -0.1298  0.0726
  655ERGO    R5 9282   8.727   5.846   8.722 -0.1671 -0.1459  0.1430
  655ERGO    C1 9283   8.957   5.918   8.427 -0.1638 -0.4525  0.0684
  655ERGO    C2 9284   8.970   5.953   8.061 -0.1479  0.0513  0.0723
  656ERGO   ROH 9285   8.582   5.379   6.260 -0.0641 -0.2106  0.1390
  656ERGO    R1 9286   8.557   5.245   6.508 -0.0765 -0.2070  0.1397
  656ERGO    R2 9287   8.775   5.157   6.653 -0.0811 -0.1326  0.1909
  656ERGO    R3 9288   8.661   5.303   6.852 -0.1692 -0.1592  0.1603
  656ERGO    R4 9289   8.792   5.078   6.989  0.1159  0.0368  0.2228
  656ERGO    R5 9290   8.583   5.138   7.008  0.0553 -0.1738  0.2626
  656ERGO    C1 9291   8.694   5.169   7.372  0.1479  0.1105  0.2127
  656ERGO    C2 9292   8.806   5.052   7.699  0.1667  0.1038  0.0530
  657ERGO   ROH 9293  10.437  15.343   8.773  0.2881 -0.2533 -0.0076
  657ERGO    R1 9294  10.436  15.151   8.565  0.0720 -0.1112 -0.1414
  657ERGO    R2 9295  10.202  15.064   8.445 -0.0409  0.1139 -0.0945
  657ERGO    R3 9296  10.330  15.139   8.217 -0.1016  0.1939 -0.1021
  657ERGO    R4 9297  10.077  15.023   8.125 -0.0363  0.0462 -0.0878
  657ERGO    R5 9298  10.277  14.967   8.059 -0.0089  0.1667 -0.1021
  657ERGO    C1 9299  10.124  15.070   7.725 -0.0908  0.0820 -0.0910
  657ERGO    C2 9300  10.072  14.975   7.405  0.1415 -0.1307 -0.3306
  658ERGO   ROH 9301   4.708   9.252  10.024  0.0896  0.0733 -0.0798
  658ERGO    R1 9302   4.605   9.231   9.761 -0.1939 -0.0457  0.0348
  658ERGO    R2 9303   4.764   9.165   9.544 -0.3169  0.3405 -0.1837
  658ERGO    R3 9304   4.578   8.970   9.508  0.0212 -0.0277 -0.0093
  658ERGO    R4 9305   4.687   9.020   9.240 -0.4169  0.3095 -0.1427
  658ERGO    R5 9306   4.477   9.024   9.297 -0.3638 -0.1392  0.1374
  658ERGO    C1 9307   4.468   8.753   9.029 -0.1578 -0.0543  0.0449
  658ERGO    C2 9308   4.349   8.587   8.832 -0.4328  0.2450  0.2384
  659ERGO   ROH 9309  13.036   9.044   9.646 -0.1942  0.0374 -0.0661
  659ERGO    R1 9310  12.946   8.996   9.382 -0.0993  0.0639 -0.1023
  659ERGO    R2 9311  12.907   9.200   9.200  0.0769  0.0681 -0.1284
  659ERGO    R3 9312  13.074   9.051   9.045  0.0728 -0.0175 -0.0533
  659ERGO    R4 9313  12.917   9.208   8.854 -0.0715 -0.2493 -0.1449
  659ERGO    R5 9314  12.942   8.992   8.855  0.0102 -0.2482  0.0522
  659ERGO    C1 9315  13.080   9.073   8.508 -0.1620 -0.5145 -0.0839
  659ERGO    C2 9316  13.103   9.000   8.098 -0.2630 -0.0377 -0.2440
  660ERGO   ROH 9317  12.927   1.893   6.684  0.2126  0.2107 -0.0874
  660ERGO    R1 9318  13.087   1.886   6.917  0.1117  0.0752 -0.0204
  660ERGO    R2 9319  13.083   1.673   7.093 -0.0400  0.0161 -0.0901
  660ERGO    R3 9320  13.352   1.673   7.050 -0.0218 -0.0657  0.0215
  660ERGO    R4 9321  13.320   1.579   7.327 -0.1536  0.1188  0.0678
  660ERGO    R5 9322  13.445   1.745   7.259 -0.0936  0.0492  0.0131
  660ERGO    C1 9323  13.710   1.524   7.422 -0.2028  0.1019  0.2645
  660ERGO    C2 9324  14.060   1.418   7.420 -0.0063  0.2033  0.0524
  661ERGO   ROH 9325  15.878  14.361   9.407  0.1287  0.0464 -0.0208
  661ERGO    R1 9326  15.901  14.548   9.195 -0.1650 -0.0304 -0.1238
  661ERGO    R2 9327  16.106  14.538   9.010 -0.0488  0.2854 -0.0126
  661ERGO    R3 9328  15.900  14.536   8.832  0.0337 -0.2587 -0.1203
  661ERGO    R4 9329  16.126  14.645   8.682 -0.1494  0.3207 -0.0083
  661ERGO    R5 9330  15.929  14.736   8.703 -0.4107 -0.1769 -0.1146
  661ERGO    C1 9331  15.945  14.705   8.324 -0.1307 -0.1694 -0.1069
  661ERGO    C2 9332  15.952  14.859   7.966  0.2079 -0.1666 -0.0213
  662ERGO   ROH 9333  15.922   6.395   6.754  0.2484  0.1114 -0.2828
  662ERGO    R1 9334  16.000   6.585   6.949 -0.1625  0.2020 -0.1956
  662ERGO    R2 9335  15.825   6.685   7.138 -0.3903 -0.2629 -0.1420
  662ERGO    R3 9336  16.016   6.600   7.312 -0.1935  0.0662 -0.1892
  662ERGO    R4 9337  15.801   6.701   7.483 -0.2940 -0.2473 -0.1357
  662ERGO    R5 9338  16.010   6.760   7.490 -0.3831  0.0857 -0.2152
  662ERGO    C1 9339  15.965   6.630   7.846 -0.0534  0.0707 -0.1764
  662ERGO    C2 9340  16.184   6.628   8.134  0.0701  0.1018 -0.0389
  663ERGO   ROH 9341   8.091  14.062   9.075  0.1537 -0.2573 -0.1190
  663ERGO    R1 9342   8.051  13.951   8.817 -0.1308 -0.2059 -0.1005
  663ERGO    R2 9343   7.858  14.046   8.643  0.0538  0.2166 -0.0914
  663ERGO    R3 9344   8.069  14.069   8.473  0.0992 -0.2866 -0.1169
  663ERGO    R4 9345   7.834  14.063   8.299  0.0563  0.2541 -0.0894
  663ERGO    R5 9346   8.009  13.934   8.285 -0.2395 -0.1626 -0.1019
  663ERGO    C1 9347   8.017  14.094   7.939  0.1002 -0.1964 -0.1120
  663ERGO    C2 9348   7.908  14.127   7.520  0.2479 -0.2536  0.0471
  664ERGO   ROH 9349   7.103  15.842   9.265 -0.4052 -0.1093  0.1875
  664ERGO    R1 9350   7.211  15.742   9.023 -0.1586  0.0149  0.2427
  664ERGO    R2 9351   7.053  15.632   8.824  0.0639 -0.0910  0.1207
  664ERGO    R3 9352   7.179  15.817   8.668  0.0138  0.0384  0.2314
  664ERGO    R4 9353   7.091  15.608   8.481 -0.0499  0.1960  0.0849
  664ERGO    R5 9354   7.293  15.686   8.503 -0.0423  0.1750  0.0828
  664ERGO    C1 9355   7.230  15.767   8.135 -0.1632  0.4847  0.1680
  664ERGO    C2 9356   7.300  15.834   7.796 -0.1811  0.0208  0.0395
  665ERGO   ROH 9357   3.099   8.018   6.316  0.1010 -0.1678 -0.0269
  665ERGO    R1 9358   3.200   8.179   6.526  0.1601 -0.1465 -0.0716
  665ERGO    R2 9359   3.076   8.197   6.772  0.0865  0.0787 -0.1236
  665ERGO    R3 9360   3.322   8.125   6.865 -0.0037 -0.0798 -0.0006
  665ERGO    R4 9361   3.156   8.149   7.105 -0.0651  0.2196 -0.0660
  665ERGO    R5 9362   3.346   8.248   7.069  0.0365  0.0305 -0.0698
  665ERGO    C1 9363   3.432   8.054   7.386 -0.2381  0.1529  0.0829
  665ERGO    C2 9364   3.574   8.014   7.788  0.0608 -0.2475 -0.1295
  666ERGO   ROH 9365   4.393   8.469   6.481  0.2807 -0.1519 -0.0883
  666ERGO    R1 9366   4.325   8.572   6.736  0.2491 -0.0298 -0.1444
  666ERGO    R2 9367   4.205   8.417   6.932 -0.0169  0.1270 -0.1704
  666ERGO    R3 9368   4.415   8.503   7.082 -0.0021 -0.0576 -0.0841
  666ERGO    R4 9369   4.219   8.409   7.277 -0.1653  0.1442 -0.1637
  666ERGO    R5 9370   4.315   8.604   7.274  0.0161  0.0501 -0.1370
  666ERGO    C1 9371   4.425   8.484   7.619 -0.2379 -0.0191 -0.0787
  666ERGO    C2 9372   4.580   8.417   7.859  0.1163 -0.1951  0.0837
  667ERGO   ROH 9373  11.829   0.977  10.049 -0.3008 -0.1048  0.0787
  667ERGO    R1 9374  11.769   1.011   9.774 -0.1232 -0.0973  0.0400
  667ERGO    R2 9375  11.850   1.233   9.630 -0.2693  0.0420  0.1717
  667ERGO    R3 9376  11.957   1.046   9.465  0.0854  0.2148  0.1963
  667ERGO    R4 9377  11.862   1.258   9.286 -0.2583  0.0457  0.1717
  667ERGO    R5 9378  11.813   1.046   9.274  0.1111 -0.0468  0.1734
  667ERGO    C1 9379  11.970   1.097   8.930  0.0810  0.2102  0.1948
  667ERGO    C2 9380  12.000   1.050   8.572  0.2305  0.0125  0.0512
  668ERGO   ROH 9381   8.654   3.224   6.342 -0.1504 -0.0308  0.0464
  668ERGO    R1 9382   8.744   3.285   6.604 -0.0584 -0.1339  0.0385
  668ERGO    R2 9383   8.588   3.242   6.828 -0.1150  0.1033  0.0426
  668ERGO    R3 9384   8.805   3.100   6.911 -0.3083 -0.1956  0.0549
  668ERGO    R4 9385   8.686   3.207   7.158  0.0427  0.3296  0.0225
  668ERGO    R5 9386   8.893   3.229   7.093  0.0517 -0.1232 -0.1567
  668ERGO    C1 9387   8.946   3.054   7.428 -0.0472  0.1808  0.0223
  668ERGO    C2 9388   9.131   2.796   7.689 -0.0683 -0.0360 -0.3029
  669ERGO   ROH 9389  13.011   4.580   9.997 -0.3265 -0.2224  0.0735
  669ERGO    R1 9390  12.794   4.644   9.827 -0.2404 -0.1532 -0.0134
  669ERGO    R2 9391  12.558   4.751   9.921 -0.2723 -0.1304 -0.0980
  669ERGO    R3 9392  12.609   4.943   9.736 -0.1474 -0.1040 -0.0347
  669ERGO    R4 9393  12.327   4.982   9.807 -0.0651  0.1830  0.1060
  669ERGO    R5 9394  12.408   4.956   9.607 -0.1901  0.1823  0.0629
  669ERGO    C1 9395  12.241   5.297   9.568  0.1728  0.3902  0.2844
  669ERGO    C2 9396  12.197   5.541   9.357 -0.0108  0.1682  0.2152
  670ERGO   ROH 9397  17.449   6.911  10.185  0.0471  0.0210  0.0706
  670ERGO    R1 9398  17.472   6.857   9.908  0.1049 -0.0466  0.0873
  670ERGO    R2 9399  17.266   6.747   9.760  0.0980  0.0084  0.0486
  670ERGO    R3 9400  17.304   6.966   9.603  0.2369 -0.0377  0.0182
  670ERGO    R4 9401  17.185   6.768   9.424 -0.0783  0.0853  0.0950
  670ERGO    R5 9402  17.370   6.877   9.391  0.0172 -0.1125 -0.0182
  670ERGO    C1 9403  17.175   6.986   9.082 -0.0506  0.0868  0.0936
  670ERGO    C2 9404  17.115   7.214   8.784  0.3512 -0.0054  0.1351
  671ERGO   ROH 9405   5.362  11.153   6.496  0.2045  0.1499  0.2101
  671ERGO    R1 9406   5.253  10.963   6.675  0.0122  0.0581  0.0004
  671ERGO    R2 9407   5.389  10.875   6.900 -0.0792 -0.3207 -0.0877
  671ERGO    R3 9408   5.163  10.954   7.028 -0.0070 -0.2370 -0.0092
  671ERGO    R4 9409   5.299  10.780   7.220 -0.0170 -0.3118 -0.0670
  671ERGO    R5 9410   5.094  10.761   7.151 -0.0481 -0.2204 -0.0044
  671ERGO    C1 9411   5.034  10.799   7.526  0.0871 -0.2280  0.0187
  671ERGO    C2 9412   5.096  10.862   7.860 -0.1723 -0.0299  0.2002
  672ERGO   ROH 9413   5.877   5.954   9.729 -0.0518  0.0431  0.0132
  672ERGO    R1 9414   5.828   5.793   9.502 -0.1576 -0.0251  0.0826
  672ERGO    R2 9415   5.588   5.662   9.460 -0.2588  0.1396  0.1231
  672ERGO    R3 9416   5.595   5.793   9.222 -0.1353  0.0291  0.0651
  672ERGO    R4 9417   5.408   5.571   9.180 -0.0682 -0.0174  0.0497
  672ERGO    R5 9418   5.583   5.619   9.058 -0.0039 -0.0455  0.1365
  672ERGO    C1 9419   5.310   5.641   8.793  0.1588 -0.2126 -0.0477
  672ERGO    C2 9420   5.285   5.580   8.498  0.1842  0.1954 -0.0816
  673ERGO   ROH 9421   3.349   4.263   9.897  0.4841  0.0839  0.0332
  673ERGO    R1 9422   3.457   4.095   9.696  0.3211  0.0364 -0.0160
  673ERGO    R2 9423   3.304   3.995   9.488  0.1671  0.0407  0.0946
  673ERGO    R3 9424   3.499   4.108   9.335  0.0917 -0.0197 -0.0467
  673ERGO    R4 9425   3.337   3.950   9.147  0.1162 -0.2664  0.1279
  673ERGO    R5 9426   3.553   3.938   9.175  0.1293 -0.1508  0.0998
  673ERGO    C1 9427   3.538   4.029   8.805  0.0158 -0.5018  0.0145
  673ERGO    C2 9428   3.652   4.015   8.534  0.1433 -0.3393  0.1941
  674ERGO   ROH 9429  17.409   8.683   6.273 -0.1210  0.0072  0.1371
  674ERGO    R1 9430  17.425   8.650   6.554 -0.0291  0.0624  0.1396
  674ERGO    R2 9431  17.663   8.663   6.692  0.0521 -0.1461  0.0307
  674ERGO    R3 9432  17.531   8.851   6.839  0.3060  0.0296  0.0410
  674ERGO    R4 9433  17.667   8.683   7.037  0.0026 -0.2239  0.0353
  674ERGO    R5 9434  17.454   8.732   7.032  0.0769  0.1062 -0.0026
  674ERGO    C1 9435  17.544   8.870   7.376  0.2124 -0.1043  0.0477
  674ERGO    C2 9436  17.610   8.986   7.793  0.1114  0.1647 -0.1425
  675PSPI    C1 9437   6.491  13.268   5.138  0.0681  0.0480  0.0189
  675PSPI    C2 9438   6.110  13.152   5.173  0.1202 -0.1254  0.0251
  675PSPI    C3 9439   6.253  13.266   4.817 -0.0415  0.3190  0.0962
  675PSPI   PO4 9440   6.591  13.409   5.467 -0.2997  0.3538  0.2344
  675PSPI   GL1 9441   6.450  13.574   5.874  0.1232 -0.0376 -0.3399
  675PSPI   GL2 9442   6.269  13.422   6.112  0.0069 -0.2977  0.0350
  675PSPI   C1A 9443   6.457  13.987   6.048  0.1723 -0.2341  0.0901
  675PSPI   C2A 9444   6.348  14.306   6.258 -0.1264  0.1696  0.0662
  675PSPI   C3A 9445   6.109  14.431   6.641 -0.1073 -0.1343  0.2174
  675PSPI   C4A 9446   5.825  14.239   6.919 -0.1641  0.0766 -0.0969
  675PSPI   C1B 9447   6.226  13.555   6.425  0.2201  0.0196  0.2932
  675PSPI   C2B 9448   6.304  13.405   6.760 -0.4900 -0.4475  0.3998
  675PSPI   C3B 9449   6.584  13.626   6.919  0.2056  0.0868 -0.0398
  675PSPI   C4B 9450   6.812  13.933   7.051 -0.1275  0.1759 -0.1386
  676PSPI    C1 9451  15.664  13.561   5.423  0.1258  0.1695  0.1394
  676PSPI    C2 9452  15.800  13.569   5.047 -0.1020 -0.0874  0.0483
  676PSPI    C3 9453  15.741  13.219   5.232 -0.1536  0.0331  0.2642
  676PSPI   PO4 9454  15.799  13.775   5.539  0.0697  0.0695  0.1638
  676PSPI   GL1 9455  15.544  14.132   5.756  0.4734 -0.0066  0.4036
  676PSPI   GL2 9456  15.215  14.002   5.802  0.0895  0.1662 -0.0939
  676PSPI   C1A 9457  15.314  14.316   6.178 -0.4043 -0.1022 -0.2003
  676PSPI   C2A 9458  15.248  14.427   6.571 -0.1556 -0.1716 -0.1353
  676PSPI   C3A 9459  14.954  14.502   6.823 -0.0916 -0.3434 -0.2934
  676PSPI   C4A 9460  15.071  14.859   7.087  0.0733  0.0677 -0.0359
  676PSPI   C1B 9461  14.927  13.962   6.249  0.2250  0.1812 -0.2434
  676PSPI   C2B 9462  14.909  14.024   6.756  0.1289 -0.2316  0.1304
  676PSPI   C3B 9463  14.627  13.672   6.928 -0.0966  0.1610  0.3119
  676PSPI   C4B 9464  14.274  13.400   6.798  0.1361 -0.1211 -0.1631
  677PSPI    C1 9465   6.768   1.188   5.529  0.2536  0.0992 -0.0849
  677PSPI    C2 9466   6.929   1.380   5.217  0.2123  0.0107 -0.1610
  677PSPI    C3 9467   6.930   0.981   5.228  0.2943  0.0144 -0.0052
  677PSPI   PO4 9468   6.857   1.329   5.735  0.1080  0.1717 -0.2121
  677PSPI   GL1 9469   6.831   1.569   6.131  0.1183  0.0512 -0.0396
  677PSPI   GL2 9470   6.545   1.595   6.022 -0.1465 -0.0918 -0.2297
  677PSPI   C1A 9471   6.777   1.587   6.640  0.0302  0.1747  0.2473
  677PSPI   C2A 9472   6.817   1.566   7.092 -0.2286  0.1124 -0.2003
  677PSPI   C3A 9473   6.584   1.646   7.461  0.1288 -0.3660  0.0538
  677PSPI   C4A 9474   6.364   1.663   7.796  0.2740 -0.2722  0.3018
  677PSPI   C1B 9475   6.351   1.706   6.407 -0.3003  0.1921 -0.2020
  677PSPI   C2B 9476   6.344   1.880   6.734  0.0707 -0.2314 -0.2130
  677PSPI   C3B 9477   6.581   2.047   7.172 -0.1238  0.1542  0.1403
  677PSPI   C4B 9478   6.941   2.006   7.470  0.0125  0.0536 -0.1788
  678PSPI    C1 9479   5.399   9.770   5.859 -0.2330  0.1101  0.0695
  678PSPI    C2 9480   5.595  10.054   5.656  0.1801 -0.3207 -0.1547
  678PSPI    C3 9481   5.254   9.902   5.510 -0.1221  0.1501  0.0380
  678PSPI   PO4 9482   5.379   9.805   6.045 -0.0975  0.2194 -0.0609
  678PSPI   GL1 9483   5.145   9.799   6.340  0.1800  0.1310 -0.2619
  678PSPI   GL2 9484   4.780   9.936   6.161  0.2035 -0.2585  0.2214
  678PSPI   C1A 9485   5.249   9.884   6.734 -0.0853  0.3300  0.0383
  678PSPI   C2A 9486   5.639   9.882   7.012  0.0280  0.1727 -0.2146
  678PSPI   C3A 9487   5.975   9.722   7.222 -0.1218  0.0350  0.4001
  678PSPI   C4A 9488   5.953   9.515   7.600 -0.2612  0.1918 -0.3310
  678PSPI   C1B 9489   4.850  10.107   6.579 -0.0308  0.3493 -0.0980
  678PSPI   C2B 9490   4.956  10.151   7.046 -0.0694 -0.2178 -0.0817
  678PSPI   C3B 9491   5.240  10.214   7.403  0.0272  0.2089 -0.1976
  678PSPI   C4B 9492   5.341  10.465   7.736 -0.1716  0.1041  0.5444
  679PSPI    C1 9493  17.450   2.222   5.815 -0.1172 -0.0174  0.2299
  679PSPI    C2 9494  17.424   2.271   6.212 -0.2674  0.1335  0.2026
  679PSPI    C3 9495  17.265   2.544   5.965  0.1892  0.2558  0.0343
  679PSPI   PO4 9496  17.411   1.905   5.796  0.6042 -0.3433 -0.1363
  679PSPI   GL1 9497  17.305   1.684   6.144 -0.3105 -0.0499 -0.0435
  679PSPI   GL2 9498  17.700   1.806   6.220 -0.0182  0.0526 -0.2508
  679PSPI   C1A 9499  17.220   1.719   6.571 -0.0443 -0.1942 -0.0493
  679PSPI   C2A 9500  17.123   1.650   6.951  0.1125  0.1099  0.4050
  679PSPI   C3A 9501  17.084   1.563   7.339  0.1101 -0.0426 -0.0269
  679PSPI   C4A 9502  17.000   1.327   7.819 -0.4541 -0.1723 -0.4781
  679PSPI   C1B 9503  17.633   1.957   6.612 -0.3600  0.0187 -0.5391
  679PSPI   C2B 9504  17.659   1.723   6.915 -0.1659  0.1030 -0.1001
  679PSPI   C3B 9505  17.567   1.474   7.246 -0.5000  0.1548 -0.1493
  679PSPI   C4B 9506  17.730   1.132   7.548  0.2302  0.2532  0.2676
  680PSPI    C1 9507  12.972  15.836   5.203 -0.1798  0.2860 -0.0554
  680PSPI    C2 9508  13.285  15.587   5.188 -0.2689  0.1775 -0.1289
  680PSPI    C3 9509  13.292  15.931   4.983 -0.2002  0.1728 -0.1345
  680PSPI   PO4 9510  12.833  15.832   5.361 -0.0036 -0.0701 -0.0528
  680PSPI   GL1 9511  12.834  15.867   5.830  0.1059  0.0073 -0.3853
  680PSPI   GL2 9512  12.919  15.605   5.950 -0.1357  0.0621 -0.1743
  680PSPI   C1A 9513  12.721  15.903   6.279 -0.1362  0.0356  0.2428
  680PSPI   C2A 9514  12.602  15.829   6.621 -0.2455 -0.0433 -0.0840
  680PSPI   C3A 9515  12.554  15.940   7.045 -0.0198  0.1011 -0.2229
  680PSPI   C4A 9516  12.718  15.642   7.351  0.0652 -0.0256  0.1556
  680PSPI   C1B 9517  13.107  15.520   6.379  0.3902  0.1606 -0.1335
  680PSPI   C2B 9518  12.955  15.373   6.727 -0.0945 -0.1541 -0.1392
  680PSPI   C3B 9519  12.636  15.208   7.040 -0.1228  0.0375 -0.1029
  680PSPI   C4B 9520  12.457  15.077   7.433  0.0399  0.1291  0.1846
  681PSPI    C1 9521  11.264   0.301   5.738 -0.1121  0.0175 -0.1065
  681PSPI    C2 9522  11.578   0.414   5.517 -0.0371  0.2821  0.1289
  681PSPI    C3 9523  11.213   0.399   5.354  0.0839  0.0348 -0.1294
  681PSPI   PO4 9524  11.389   0.094   5.916  0.2394  0.2459 -0.0329
  681PSPI   GL1 9525  11.542  -0.050   6.302  0.3871 -0.3814 -0.2063
  681PSPI   GL2 9526  11.740  -0.316   6.078 -0.0977 -0.3550  0.0043
  681PSPI   C1A 9527  11.128  -0.266   6.449  0.1032 -0.0365 -0.1103
  681PSPI   C2A 9528  10.968  -0.360   6.790 -0.0193 -0.4162  0.2635
  681PSPI   C3A 9529  10.769  -0.518   7.197  0.0748 -0.2360 -0.0551
  681PSPI   C4A 9530  10.503  -0.525   7.554  0.1379 -0.0481 -0.0289
  681PSPI   C1B 9531  11.876  -0.584   6.406 -0.1435  0.1653 -0.0135
  681PSPI   C2B 9532  11.852  -0.671   6.878 -0.1238  0.1212  0.0553
  681PSPI   C3B 9533  11.667  -0.748   7.237  0.0052  0.1135 -0.2207
  681PSPI   C4B 9534  11.413  -1.010   7.549  0.3524  0.3463  0.1795
  682PSPI    C1 9535   2.837   5.127   6.130  0.4763 -0.2011 -0.0479
  682PSPI    C2 9536   2.848   4.928   5.783 -0.1025 -0.1622 -0.0997
  682PSPI    C3 9537   2.870   5.328   5.786 -0.3371 -0.1478 -0.1158
  682PSPI   PO4 9538   2.958   5.053   6.260 -0.0140 -0.0803  0.0324
  682PSPI   GL1 9539   2.855   5.221   6.635  0.0421  0.2391 -0.0075
  682PSPI   GL2 9540   2.970   5.582   6.637 -0.1498  0.2520 -0.1386
  682PSPI   C1A 9541   2.970   4.868   6.898 -0.1024  0.0203  0.1165
  682PSPI   C2A 9542   3.262   4.683   7.083 -0.0715  0.0205 -0.0092
  682PSPI   C3A 9543   3.415   4.309   7.226  0.1293 -0.0965 -0.2613
  682PSPI   C4A 9544   3.227   4.321   7.559  0.2295 -0.0013 -0.0131
  682PSPI   C1B 9545   2.861   5.470   7.043  0.0681 -0.0156  0.0476
  682PSPI   C2B 9546   2.934   5.508   7.435 -0.2251  0.1256 -0.0935
  682PSPI   C3B 9547   3.263   5.335   7.704 -0.2348 -0.3800 -0.3554
  682PSPI   C4B 9548   3.605   5.547   7.607  0.1647  0.2101  0.2236
  683PSPI    C1 9549   8.848   0.994   5.127 -0.0855 -0.1338 -0.0553
  683PSPI    C2 9550   9.046   0.650   5.076  0.0406 -0.0574 -0.0878
  683PSPI    C3 9551   8.682   0.697   4.917 -0.0188 -0.2108  0.0003
  683PSPI   PO4 9552   8.780   1.036   5.429  0.0026  0.1530 -0.0264
  683PSPI   GL1 9553   8.361   1.133   5.661  0.0273  0.2046  0.3147
  683PSPI   GL2 9554   8.300   0.803   5.618 -0.0515 -0.0451  0.2710
  683PSPI   C1A 9555   8.272   1.334   6.047  0.0063 -0.1876  0.1167
  683PSPI   C2A 9556   8.522   1.619   6.142 -0.0367  0.1330  0.0284
  683PSPI   C3A 9557   8.838   1.634   6.326 -0.1764 -0.2575  0.1433
  683PSPI   C4A 9558   9.200   1.952   6.361  0.0142 -0.4756  0.0031
  683PSPI   C1B 9559   8.340   0.516   5.991 -0.1078 -0.0539  0.2607
  683PSPI   C2B 9560   8.360   0.346   6.487  0.1157  0.1160 -0.2732
  683PSPI   C3B 9561   8.404   0.173   6.834  0.1940  0.0447 -0.0035
  683PSPI   C4B 9562   8.306   0.034   7.200 -0.2643  0.0473  0.1752
  684PSPI    C1 9563   0.241   5.481   5.237 -0.0892  0.0418 -0.0523
  684PSPI    C2 9564  -0.030   5.234   5.077  0.0444 -0.0769 -0.0973
  684PSPI    C3 9565   0.261   5.386   4.849 -0.1474  0.2750 -0.1141
  684PSPI   PO4 9566   0.244   5.332   5.539 -0.2213  0.3375  0.0133
  684PSPI   GL1 9567   0.418   5.422   6.037 -0.0806 -0.0360  0.1550
  684PSPI   GL2 9568   0.436   5.634   6.224  0.0388 -0.1968  0.1086
  684PSPI   C1A 9569   0.299   5.201   6.408  0.0094  0.1362  0.1319
  684PSPI   C2A 9570   0.125   5.031   6.701  0.0078  0.2096  0.2458
  684PSPI   C3A 9571   0.300   4.966   7.025  0.0546  0.0517  0.3342
  684PSPI   C4A 9572   0.273   5.116   7.390 -0.0096  0.0981  0.0371
  684PSPI   C1B 9573   0.406   5.653   6.638  0.0200  0.0110 -0.0775
  684PSPI   C2B 9574   0.384   5.465   7.034 -0.1809  0.1169  0.4536
  684PSPI   C3B 9575   0.559   5.550   7.466 -0.1385 -0.2844 -0.2468
  684PSPI   C4B 9576   0.972   5.565   7.462  0.0086  0.0359  0.4459
  685PSPI    C1 9577  12.604  17.081   5.558  0.0781 -0.0181  0.0275
  685PSPI    C2 9578  12.856  16.780   5.480  0.0511 -0.1152  0.3022
  685PSPI    C3 9579  12.941  17.150   5.354 -0.0129 -0.2676 -0.2150
  685PSPI   PO4 9580  12.357  16.992   5.610 -0.1685 -0.0832  0.2428
  685PSPI   GL1 9581  12.171  16.754   5.974  0.0014 -0.2096 -0.0514
  685PSPI   GL2 9582  12.217  17.162   6.042 -0.0771  0.0006  0.2152
  685PSPI   C1A 9583  11.981  16.522   6.369 -0.2182  0.0972  0.1696
  685PSPI   C2A 9584  11.792  16.191   6.514  0.3154 -0.1735  0.0938
  685PSPI   C3A 9585  11.327  15.978   6.356 -0.4215 -0.0494  0.1247
  685PSPI   C4A 9586  11.187  15.578   6.324  0.0621 -0.1700  0.1061
  685PSPI   C1B 9587  12.158  17.515   6.236 -0.1426  0.1320  0.2094
  685PSPI   C2B 9588  12.341  17.704   6.586  0.3458 -0.0333 -0.3428
  685PSPI   C3B 9589  12.264  17.589   7.014  0.3062 -0.0553  0.0127
  685PSPI   C4B 9590  11.971  17.342   7.405  0.1586 -0.2238 -0.2412
  686PSPI    C1 9591  13.108  11.721   5.196  0.1242  0.0366 -0.0093
  686PSPI    C2 9592  13.151  11.363   5.024 -0.1069  0.0276 -0.0508
  686PSPI    C3 9593  13.425  11.647   4.964 -0.1069 -0.0252 -0.3117
  686PSPI   PO4 9594  13.076  11.612   5.517 -0.1901  0.1752  0.0734
  686PSPI   GL1 9595  13.152  11.380   5.908 -0.1233  0.1365 -0.1201
  686PSPI   GL2 9596  13.336  11.244   6.059 -0.0748 -0.2493 -0.0603
  686PSPI   C1A 9597  13.084  11.667   6.315  0.1868 -0.1226 -0.3227
  686PSPI   C2A 9598  13.354  11.793   6.733  0.4337 -0.1938  0.0507
  686PSPI   C3A 9599  13.834  11.957   6.800  0.2340  0.2241  0.0481
  686PSPI   C4A 9600  13.978  12.389   6.893  0.0658  0.1431 -0.6319
  686PSPI   C1B 9601  13.248  11.242   6.580 -0.1133 -0.0653 -0.1840
  686PSPI   C2B 9602  13.219  11.343   7.043  0.1620  0.0736 -0.1426
  686PSPI   C3B 9603  13.545  11.706   7.157  0.2145 -0.3563 -0.3008
  686PSPI   C4B 9604  13.783  12.122   7.266 -0.1241 -0.1924 -0.3258
  687PSPI    C1 9605   2.734  10.614   5.504  0.0878 -0.0669 -0.1689
  687PSPI    C2 9606   2.895  10.966   5.404 -0.3656  0.1054 -0.3175
  687PSPI    C3 9607   2.917  10.657   5.151  0.1248 -0.0106 -0.1429
  687PSPI   PO4 9608   2.833  10.642   5.784  0.2560 -0.0011  0.2006
  687PSPI   GL1 9609   3.037  10.744   6.277 -0.0660 -0.0816  0.2410
  687PSPI   GL2 9610   2.873  10.458   6.254 -0.0239  0.0652  0.0552
  687PSPI   C1A 9611   3.263  10.929   6.672 -0.0736  0.1587  0.0062
  687PSPI   C2A 9612   3.429  11.050   7.044 -0.0562 -0.1549  0.2069
  687PSPI   C3A 9613   3.314  11.054   7.428 -0.0202 -0.0671  0.0758
  687PSPI   C4A 9614   2.887  11.151   7.597  0.0302  0.3104 -0.2878
  687PSPI   C1B 9615   2.708  10.247   6.563 -0.1446  0.0648  0.0266
  687PSPI   C2B 9616   2.550  10.179   6.897  0.2480  0.2273 -0.2037
  687PSPI   C3B 9617   2.243  10.138   7.190  0.0424  0.1429 -0.2523
  687PSPI   C4B 9618   1.996   9.926   7.528 -0.0752 -0.1465 -0.3061
  688PSPI    C1 9619   0.296   4.081   6.075  0.0227 -0.0963  0.0211
  688PSPI    C2 9620   0.690   4.034   6.025 -0.0027 -0.1129 -0.1690
  688PSPI    C3 9621   0.438   3.745   5.912 -0.0589 -0.1811  0.1236
  688PSPI   PO4 9622   0.221   4.076   6.314  0.0677 -0.0448 -0.0922
  688PSPI   GL1 9623   0.260   4.233   6.669 -0.3038  0.2310 -0.1237
  688PSPI   GL2 9624   0.315   4.520   6.556  0.0235  0.3198  0.0222
  688PSPI   C1A 9625   0.181   4.507   7.086  0.1951  0.1509 -0.2856
  688PSPI   C2A 9626   0.186   4.641   7.506  0.1380  0.2219  0.3549
  688PSPI   C3A 9627   0.126   4.948   7.758  0.3178  0.3861  0.2194
  688PSPI   C4A 9628   0.091   5.102   8.217 -0.0134 -0.0556 -0.2889
  688PSPI   C1B 9629   0.632   4.537   6.839  0.1465  0.0156 -0.0884
  688PSPI   C2B 9630   0.711   4.667   7.292 -0.1957 -0.1269 -0.1862
  688PSPI   C3B 9631   0.619   4.843   7.709  0.1065 -0.0180 -0.2726
  688PSPI   C4B 9632   0.490   4.612   8.076 -0.2371  0.0240  0.0671
  689PSPI    C1 9633  10.313   9.442   5.432 -0.0661  0.0444 -0.0001
  689PSPI    C2 9634  10.275   9.237   5.773 -0.0552 -0.3368 -0.2230
  689PSPI    C3 9635  10.158   9.074   5.427  0.1377 -0.0416 -0.4325
  689PSPI   PO4 9636  10.459   9.638   5.512 -0.4260 -0.3027  0.3452
  689PSPI   GL1 9637  10.465   9.675   5.886 -0.2473 -0.5591  0.1918
  689PSPI   GL2 9638  10.626   9.432   6.038  0.1571  0.1696 -0.0258
  689PSPI   C1A 9639  10.225   9.724   6.229  0.0848  0.2907 -0.1055
  689PSPI   C2A 9640  10.160   9.736   6.594  0.0338 -0.1264  0.1573
  689PSPI   C3A 9641  10.148   9.825   6.943  0.2252  0.0275  0.2804
  689PSPI   C4A 9642  10.173   9.811   7.365 -0.3779  0.2812 -0.3175
  689PSPI   C1B 9643  10.636   9.570   6.539  0.1888  0.0707 -0.1555
  689PSPI   C2B 9644  10.587   9.614   6.939 -0.2106  0.2724 -0.0254
  689PSPI   C3B 9645  10.757   9.709   7.388 -0.0131  0.0336  0.2578
  689PSPI   C4B 9646  10.964   9.904   7.625  0.0426  0.2650 -0.0951
  690PSPI    C1 9647  11.063   4.240   5.638  0.2465  0.1425  0.0373
  690PSPI    C2 9648  11.247   4.172   5.290 -0.1690 -0.0326 -0.1550
  690PSPI    C3 9649  10.849   4.142   5.315 -0.1490  0.0253  0.3265
  690PSPI   PO4 9650  11.147   4.435   5.799 -0.1105 -0.1378  0.1158
  690PSPI   GL1 9651  10.893   4.726   5.990  0.2505  0.3072 -0.1845
  690PSPI   GL2 9652  11.114   5.029   6.120  0.3979 -0.0580 -0.2022
  690PSPI   C1A 9653  10.693   4.603   6.380  0.0019 -0.0478  0.1857
  690PSPI   C2A 9654  10.391   4.458   6.636  0.0097 -0.2746  0.2932
  690PSPI   C3A 9655  10.382   4.224   7.008 -0.0025  0.2619  0.2163
  690PSPI   C4A 9656  10.551   4.126   7.340  0.0608  0.1674 -0.0386
  690PSPI   C1B 9657  10.729   5.173   6.284  0.3455  0.0460 -0.0487
  690PSPI   C2B 9658  10.558   5.354   6.634  0.1323 -0.1409  0.1430
  690PSPI   C3B 9659  10.670   5.634   6.923  0.3351  0.1679 -0.0985
  690PSPI   C4B 9660  10.544   5.963   7.114  0.2580  0.0660 -0.2089
  691PSPI    C1 9661  15.067  16.108   5.273  0.0274  0.0414 -0.0612
  691PSPI    C2 9662  15.358  16.316   5.095  0.2206 -0.1663  0.0073
  691PSPI    C3 9663  15.371  15.916   5.097  0.0788 -0.1711  0.2506
  691PSPI   PO4 9664  15.075  16.223   5.543 -0.2408 -0.0531 -0.1347
  691PSPI   GL1 9665  14.861  16.250   5.959  0.1750 -0.2383 -0.0375
  691PSPI   GL2 9666  14.659  15.929   6.065  0.4083  0.0147 -0.0457
  691PSPI   C1A 9667  14.723  16.395   6.292 -0.0530 -0.0708 -0.1452
  691PSPI   C2A 9668  14.714  16.348   6.703  0.2667 -0.1499  0.0941
  691PSPI   C3A 9669  14.572  16.073   6.956  0.1803  0.3822 -0.3323
  691PSPI   C4A 9670  14.215  16.131   7.161  0.1632 -0.0506 -0.2120
  691PSPI   C1B 9671  14.510  15.951   6.446  0.0851  0.0876 -0.0498
  691PSPI   C2B 9672  14.180  15.809   6.677 -0.0837 -0.2813  0.0830
  691PSPI   C3B 9673  13.849  15.818   6.983 -0.1598  0.0103  0.0685
  691PSPI   C4B 9674  13.809  16.082   7.421 -0.1466 -0.1021 -0.1650
  692PSPI    C1 9675  14.402   1.342   5.873 -0.1252 -0.0641 -0.1033
  692PSPI    C2 9676  14.367   0.956   5.772 -0.0915 -0.0371 -0.2199
  692PSPI    C3 9677  14.568   1.208   5.535 -0.0949  0.0479 -0.1333
  692PSPI   PO4 9678  14.482   1.364   6.034  0.0636  0.0987 -0.2492
  692PSPI   GL1 9679  14.492   0.940   6.242 -0.1939 -0.0015  0.1605
  692PSPI   GL2 9680  14.760   0.645   6.304 -0.2412  0.1297 -0.0753
  692PSPI   C1A 9681  14.266   0.957   6.585  0.3787 -0.1415  0.1550
  692PSPI   C2A 9682  14.237   1.216   6.912  0.3726 -0.1369  0.0919
  692PSPI   C3A 9683  14.382   1.573   7.039 -0.1233  0.1986 -0.0979
  692PSPI   C4A 9684  14.719   1.629   7.373  0.0959  0.0891 -0.0406
  692PSPI   C1B 9685  14.688   0.626   6.751 -0.2451  0.0955  0.0541
  692PSPI   C2B 9686  14.961   0.553   7.064 -0.0792 -0.2021 -0.4189
  692PSPI   C3B 9687  15.159   0.509   7.450  0.1553  0.0865 -0.1291
  692PSPI   C4B 9688  15.164   0.517   7.867 -0.1070  0.1774  0.0891
  693PSPI    C1 9689   5.286   8.406   6.181  0.0636  0.0928  0.3115
  693PSPI    C2 9690   5.229   8.802   6.185  0.0066  0.0989 -0.2763
  693PSPI    C3 9691   5.076   8.581   5.889  0.1555 -0.3472 -0.0287
  693PSPI   PO4 9692   5.410   8.358   6.387 -0.0129  0.2899  0.0075
  693PSPI   GL1 9693   5.519   8.655   6.686  0.0705  0.1717 -0.1399
  693PSPI   GL2 9694   5.564   8.923   6.662  0.0085 -0.1333 -0.1116
  693PSPI   C1A 9695   5.303   8.478   6.980 -0.1922  0.0168  0.3565
  693PSPI   C2A 9696   5.293   8.616   7.422  0.0995  0.1670 -0.2197
  693PSPI   C3A 9697   5.426   8.278   7.742  0.0266 -0.1775  0.0616
  693PSPI   C4A 9698   5.685   8.317   8.078 -0.2317 -0.0583 -0.0652
  693PSPI   C1B 9699   5.631   8.933   7.147 -0.0288 -0.3353 -0.2849
  693PSPI   C2B 9700   5.789   8.636   7.550 -0.0911  0.0468  0.1938
  693PSPI   C3B 9701   6.156   8.548   7.814  0.0384  0.2066  0.0096
  693PSPI   C4B 9702   6.547   8.402   8.018 -0.0635 -0.0678  0.2270
  694PSPI    C1 9703   4.372  16.212   5.647 -0.1279  0.1377 -0.0895
  694PSPI    C2 9704   4.529  16.422   5.949 -0.0352  0.1424 -0.1407
  694PSPI    C3 9705   4.169  16.518   5.806 -0.0492  0.1841 -0.0777
  694PSPI   PO4 9706   4.328  16.007   5.709 -0.1605  0.3084  0.1978
  694PSPI   GL1 9707   4.491  15.830   6.062 -0.0677  0.0500 -0.0674
  694PSPI   GL2 9708   4.296  16.084   6.230  0.1897  0.0996  0.5822
  694PSPI   C1A 9709   4.433  15.507   6.425 -0.2806  0.3135 -0.0515
  694PSPI   C2A 9710   4.331  15.404   6.843 -0.4869 -0.0588 -0.2266
  694PSPI   C3A 9711   4.121  15.391   7.297 -0.0306 -0.0535  0.1136
  694PSPI   C4A 9712   4.077  15.162   7.698 -0.3233 -0.1713 -0.1887
  694PSPI   C1B 9713   4.557  16.063   6.524 -0.2676  0.1693 -0.3180
  694PSPI   C2B 9714   4.679  15.900   6.843 -0.0941  0.1109 -0.0598
  694PSPI   C3B 9715   4.807  15.951   7.295  0.0348 -0.0556  0.0111
  694PSPI   C4B 9716   5.136  16.156   7.559 -0.1222  0.0333 -0.0065
  695POPI    C1 9717  17.460  18.205   5.249  0.1351 -0.1063 -0.1427
  695POPI    C2 9718  17.374  17.816   5.281  0.2137 -0.1394 -0.3214
  695POPI    C3 9719  17.118  18.063   5.098  0.1346 -0.0946 -0.1526
  695POPI   PO4 9720  17.527  18.302   5.507 -0.0930  0.0317  0.2408
  695POPI   GL1 9721  17.452  18.297   5.927  0.0999  0.1176  0.0179
  695POPI   GL2 9722  17.675  18.097   5.990 -0.0400 -0.3875  0.1256
  695POPI   C1A 9723  17.304  18.023   6.318 -0.2105 -0.0458 -0.3444
  695POPI   D2A 9724  17.314  17.945   6.751  0.2162 -0.2170 -0.0290
  695POPI   C3A 9725  17.331  17.700   7.135 -0.3000  0.0829 -0.1198
  695POPI   C4A 9726  17.616  17.710   7.508 -0.1112  0.2661  0.1305
  695POPI   C1B 9727  17.687  18.385   6.383 -0.0939  0.1870  0.0475
  695POPI   C2B 9728  17.711  18.342   6.814 -0.1780 -0.0426  0.2400
  695POPI   C3B 9729  18.073  18.346   7.075  0.0953 -0.2370 -0.1536
  695POPI   C4B 9730  17.986  18.114   7.418 -0.1959  0.0333  0.1144
  696POPI    C1 9731  11.753   2.532   6.021 -0.0287 -0.0238 -0.0248
  696POPI    C2 9732  11.940   2.254   5.803 -0.2036 -0.1286 -0.0433
  696POPI    C3 9733  12.144   2.568   5.944 -0.0630 -0.1229 -0.2545
  696POPI   PO4 9734  11.622   2.320   6.212  0.2420  0.1229  0.0451
  696POPI   GL1 9735  11.703   2.125   6.579 -0.2743 -0.1082  0.0373
  696POPI   GL2 9736  11.331   2.196   6.689  0.2368  0.0455 -0.2456
  696POPI   C1A 9737  11.714   2.002   6.952  0.0378 -0.3714  0.3228
  696POPI   D2A 9738  11.673   1.861   7.377  0.0481 -0.1120  0.3950
  696POPI   C3A 9739  11.858   1.988   7.780 -0.0509  0.0504  0.1005
  696POPI   C4A 9740  12.250   2.138   8.025  0.0946  0.1967  0.0062
  696POPI   C1B 9741  11.175   2.027   7.046  0.0724  0.0721 -0.1496
  696POPI   C2B 9742  11.084   1.935   7.391  0.0996  0.0053 -0.0280
  696POPI   C3B 9743  10.972   1.984   7.816 -0.0505 -0.1715 -0.2619
  696POPI   C4B 9744  11.079   1.962   8.282 -0.2763 -0.1434  0.4825
  697POPI    C1 9745  16.931   6.823   5.984  0.2742  0.0082 -0.0586
  697POPI    C2 9746  17.016   7.209   5.920 -0.1606  0.0587 -0.3735
  697POPI    C3 9747  17.090   6.938   5.635  0.3758 -0.1375 -0.0612
  697POPI   PO4 9748  16.707   6.804   6.223 -0.1472 -0.1344  0.0766
  697POPI   GL1 9749  16.732   6.846   6.708  0.1811  0.0889  0.1496
  697POPI   GL2 9750  16.421   6.865   6.657  0.1128  0.4951  0.1697
  697POPI   C1A 9751  16.731   6.964   7.104 -0.0974  0.1951  0.3112
  697POPI   D2A 9752  16.830   7.001   7.548  0.0018 -0.1653 -0.0302
  697POPI   C3A 9753  16.917   6.938   7.954 -0.1453 -0.1262  0.0848
  697POPI   C4A 9754  17.168   6.875   8.344 -0.0238 -0.0403  0.3325
  697POPI   C1B 9755  16.253   7.011   7.046  0.3668  0.2386  0.1185
  697POPI   C2B 9756  16.356   7.105   7.497 -0.2011  0.1229 -0.0799
  697POPI   C3B 9757  16.129   7.450   7.720  0.1002 -0.1575 -0.2006
  697POPI   C4B 9758  15.916   7.598   8.005  0.0854 -0.0379  0.1711
  698POPI    C1 9759   9.740   9.456   5.346  0.1366  0.0081  0.1343
  698POPI    C2 9760   9.695   9.741   5.069  0.0013  0.0039  0.1515
  698POPI    C3 9761   9.944   9.436   5.002  0.1274  0.1126  0.1224
  698POPI   PO4 9762   9.447   9.406   5.362 -0.2275  0.1407 -0.1718
  698POPI   GL1 9763   9.206   9.282   5.765  0.1110 -0.0775 -0.2059
  698POPI   GL2 9764   8.956   9.155   5.836 -0.0447 -0.0354 -0.1180
  698POPI   C1A 9765   9.480   9.395   6.092  0.0036 -0.1585  0.1735
  698POPI   D2A 9766   9.733   9.602   6.325 -0.0814 -0.0686  0.0770
  698POPI   C3A 9767   9.704   9.526   6.769 -0.1282 -0.3348 -0.1482
  698POPI   C4A 9768   9.759   9.653   7.282  0.0649  0.0774  0.0934
  698POPI   C1B 9769   9.030   9.206   6.225 -0.0120 -0.0397  0.0429
  698POPI   C2B 9770   9.415   9.172   6.517  0.1436 -0.4400 -0.0937
  698POPI   C3B 9771   9.669   9.031   6.896  0.2342  0.1352 -0.3452
  698POPI   C4B 9772   9.643   9.131   7.386  0.0814 -0.1450 -0.2462
  699POPI    C1 9773  12.433   7.483   5.758  0.0546 -0.0450  0.0072
  699POPI    C2 9774  12.248   7.744   5.518  0.1374 -0.0167 -0.0260
  699POPI    C3 9775  12.269   7.358   5.415 -0.0062 -0.0414  0.0348
  699POPI   PO4 9776  12.639   7.579   5.834 -0.0823  0.1832 -0.0609
  699POPI   GL1 9777  12.845   7.747   6.267  0.0949 -0.1676  0.0308
  699POPI   GL2 9778  12.515   7.755   6.277 -0.0861  0.1009  0.3223
  699POPI   C1A 9779  13.110   7.379   6.377 -0.0590  0.2200 -0.0184
  699POPI   D2A 9780  13.013   6.976   6.551  0.2405  0.0979  0.3201
  699POPI   C3A 9781  13.355   6.694   6.545 -0.4563  0.1797  0.0247
  699POPI   C4A 9782  13.549   6.351   6.813 -0.0329  0.2573 -0.0226
  699POPI   C1B 9783  12.495   7.947   6.607  0.1425 -0.3148  0.0237
  699POPI   C2B 9784  12.381   8.063   7.127  0.3107 -0.0446 -0.1147
  699POPI   C3B 9785  12.358   8.277   7.543  0.0340 -0.1818  0.5465
  699POPI   C4B 9786  12.301   8.407   7.876 -0.0530  0.2496  0.4355
  700POPI    C1 9787   7.098  15.285   5.116  0.0673  0.1146  0.1631
  700POPI    C2 9788   7.117  15.678   5.190 -0.1934  0.1391  0.1122
  700POPI    C3 9789   7.377  15.509   4.937  0.0634  0.2358  0.3062
  700POPI   PO4 9790   7.114  15.149   5.406 -0.3094 -0.1627  0.2718
  700POPI   GL1 9791   7.227  15.446   5.917 -0.0481 -0.1908 -0.1486
  700POPI   GL2 9792   7.317  15.113   5.917 -0.0757  0.0004  0.0743
  700POPI   C1A 9793   7.287  15.262   6.390 -0.1049  0.0320  0.1112
  700POPI   D2A 9794   7.256  15.401   6.705  0.3476  0.1076 -0.0502
  700POPI   C3A 9795   7.528  15.315   6.995  0.2748  0.1814 -0.0429
  700POPI   C4A 9796   7.839  15.202   7.154 -0.0820 -0.0342 -0.2733
  700POPI   C1B 9797   6.886  15.118   6.138  0.1297  0.2915 -0.2445
  700POPI   C2B 9798   6.784  15.277   6.606  0.2684  0.2772 -0.0855
  700POPI   C3B 9799   6.754  15.620   7.013 -0.3372  0.2918  0.0821
  700POPI   C4B 9800   6.514  16.026   6.986  0.3144 -0.0007 -0.3000
  701POPI    C1 9801   6.528   2.584   5.402  0.0426 -0.1680  0.0207
  701POPI    C2 9802   6.281   2.360   5.181 -0.0746  0.1235 -0.1484
  701POPI    C3 9803   6.446   2.689   5.025  0.0733  0.1723  0.1061
  701POPI   PO4 9804   6.339   2.667   5.622 -0.1344  0.2856  0.0963
  701POPI   GL1 9805   6.241   2.672   6.024 -0.0828 -0.1105  0.0759
  701POPI   GL2 9806   5.907   2.608   6.060 -0.1697  0.0658  0.1270
  701POPI   C1A 9807   6.191   2.564   6.566  0.0310  0.0640  0.1185
  701POPI   D2A 9808   6.102   2.321   6.919  0.1331  0.1459 -0.1190
  701POPI   C3A 9809   6.213   2.565   7.227 -0.1734 -0.1189  0.2435
  701POPI   C4A 9810   6.226   2.774   7.668 -0.1753 -0.0677  0.0769
  701POPI   C1B 9811   5.696   2.614   6.463 -0.1812 -0.2882  0.0659
  701POPI   C2B 9812   5.584   2.266   6.716 -0.0135  0.0672  0.1837
  701POPI   C3B 9813   5.662   1.907   6.889  0.0919  0.0714 -0.2439
  701POPI   C4B 9814   5.709   1.493   7.059 -0.1075  0.0884 -0.2550
  702POPI    C1 9815   4.975   9.098   5.839  0.0140  0.0821  0.0387
  702POPI    C2 9816   5.198   9.328   6.078  0.0986 -0.0007  0.0402
  702POPI    C3 9817   5.372   9.108   5.793  0.0198 -0.0743  0.0485
  702POPI   PO4 9818   4.779   9.008   5.979  0.0783  0.0555  0.0948
  702POPI   GL1 9819   4.772   8.804   6.341  0.2243  0.0728 -0.0767
  702POPI   GL2 9820   4.623   8.946   6.564  0.0402  0.1270 -0.2316
  702POPI   C1A 9821   5.084   8.980   6.601 -0.0950  0.1857  0.1479
  702POPI   D2A 9822   5.100   8.903   7.063 -0.0243 -0.0401  0.1922
  702POPI   C3A 9823   5.149   9.112   7.348 -0.0650 -0.0443 -0.1385
  702POPI   C4A 9824   5.013   9.199   7.869 -0.1420  0.1656  0.1514
  702POPI   C1B 9825   4.569   8.976   6.976 -0.2032 -0.1845 -0.1105
  702POPI   C2B 9826   4.546   9.029   7.384 -0.0600 -0.1724 -0.3007
  702POPI   C3B 9827   4.488   9.172   7.776  0.0292 -0.2065 -0.0136
  702POPI   C4B 9828   4.264   9.258   8.162  0.0002  0.1043  0.1536
  703POPI    C1 9829   1.136  13.159   5.357  0.0649  0.1107 -0.1442
  703POPI    C2 9830   0.976  13.197   4.992 -0.3600 -0.0347  0.0201
  703POPI    C3 9831   1.049  12.833   5.142  0.2634  0.0287 -0.1022
  703POPI   PO4 9832   1.129  13.362   5.445 -0.0824 -0.2275  0.0579
  703POPI   GL1 9833   1.059  13.394   5.965  0.1375 -0.0529  0.0439
  703POPI   GL2 9834   1.001  13.190   6.293  0.3295 -0.2022  0.2736
  703POPI   C1A 9835   0.801  13.644   6.160 -0.0226  0.0520  0.1416
  703POPI   D2A 9836   0.851  13.903   6.423  0.1477  0.0496  0.2169
  703POPI   C3A 9837   0.671  14.044   6.786  0.2043 -0.0754 -0.0410
  703POPI   C4A 9838   0.366  14.451   6.872 -0.1784  0.1778  0.0661
  703POPI   C1B 9839   0.965  13.112   6.669  0.0263 -0.1093 -0.1983
  703POPI   C2B 9840   1.027  13.121   7.074  0.0674  0.1837 -0.0945
  703POPI   C3B 9841   0.822  12.948   7.300  0.0282  0.0171  0.0404
  703POPI   C4B 9842   0.559  12.838   7.663  0.1328  0.1220  0.0836
  704POPI    C1 9843  16.432   3.949   6.003  0.0196 -0.2731  0.0065
  704POPI    C2 9844  16.308   4.192   5.710 -0.0421 -0.0052  0.2495
  704POPI    C3 9845  16.612   3.939   5.646 -0.1128 -0.0140 -0.0701
  704POPI   PO4 9846  16.158   3.877   6.139  0.0161  0.2439  0.0653
  704POPI   GL1 9847  15.999   3.644   6.509 -0.0468 -0.0809 -0.0668
  704POPI   GL2 9848  15.784   3.629   6.536  0.1675  0.1267  0.0588
  704POPI   C1A 9849  16.028   3.765   6.986  0.1096 -0.2181 -0.0394
  704POPI   D2A 9850  16.088   3.772   7.373 -0.2112 -0.6139 -0.0904
  704POPI   C3A 9851  15.730   4.012   7.704 -0.4025 -0.2919  0.0504
  704POPI   C4A 9852  15.742   4.257   8.226 -0.2858 -0.1625 -0.0960
  704POPI   C1B 9853  15.731   3.331   6.931 -0.1028  0.4438  0.3423
  704POPI   C2B 9854  15.703   3.290   7.358 -0.3480  0.1461 -0.1176
  704POPI   C3B 9855  15.839   3.271   7.763 -0.3733  0.0448 -0.2712
  704POPI   C4B 9856  15.978   3.044   8.076  0.1865 -0.0668  0.1635
  705POPI    C1 9857   5.319   1.457   5.433  0.0602  0.0630  0.1942
  705POPI    C2 9858   5.099   1.789   5.399  0.0918  0.0513 -0.1628
  705POPI    C3 9859   4.948   1.437   5.284  0.1208 -0.0330  0.0538
  705POPI   PO4 9860   5.366   1.391   5.747 -0.0958  0.1251  0.0122
  705POPI   GL1 9861   5.393   1.329   6.176  0.2484  0.0814 -0.2405
  705POPI   GL2 9862   5.507   1.642   6.186 -0.1494 -0.1018  0.0540
  705POPI   C1A 9863   5.616   1.053   6.539 -0.0502 -0.0302  0.3182
  705POPI   D2A 9864   5.477   1.097   6.891  0.2216  0.1641  0.4632
  705POPI   C3A 9865   5.431   0.875   7.142 -0.1330 -0.1053  0.2113
  705POPI   C4A 9866   5.224   0.578   7.334 -0.2277  0.1569  0.0715
  705POPI   C1B 9867   5.333   1.593   6.600  0.0821  0.3692  0.0425
  705POPI   C2B 9868   5.241   1.481   7.032 -0.0763 -0.1112  0.2048
  705POPI   C3B 9869   5.428   1.319   7.442  0.1559 -0.0444  0.1581
  705POPI   C4B 9870   5.382   0.918   7.650  0.0610  0.0104  0.1766
  706POPI    C1 9871  14.340  17.303   5.688 -0.0723  0.1212  0.1541
  706POPI    C2 9872  14.315  17.686   5.801 -0.1067  0.1483  0.0556
  706POPI    C3 9873  14.364  17.594   5.415 -0.2165  0.0499  0.0643
  706POPI   PO4 9874  14.468  17.157   5.843  0.0312  0.0949  0.1636
  706POPI   GL1 9875  14.438  17.353   6.270  0.1820  0.0658 -0.2129
  706POPI   GL2 9876  14.099  17.364   6.147 -0.0117 -0.1102 -0.0057
  706POPI   C1A 9877  14.208  17.252   6.634 -0.2107 -0.2398 -0.1395
  706POPI   D2A 9878  13.911  17.110   6.836  0.0300 -0.0555 -0.2375
  706POPI   C3A 9879  13.883  17.152   7.243 -0.2361 -0.1581  0.2943
  706POPI   C4A 9880  13.905  17.207   7.620 -0.0652 -0.2986  0.0943
  706POPI   C1B 9881  13.852  17.007   6.354 -0.0518  0.0439 -0.1175
  706POPI   C2B 9882  13.635  16.814   6.611 -0.0857  0.0678 -0.0415
  706POPI   C3B 9883  13.515  16.790   6.983  0.1279 -0.0269  0.0177
  706POPI   C4B 9884  13.508  16.908   7.414  0.2190 -0.0156  0.1464
  707POPI    C1 9885   0.002   8.404   6.055  0.0662 -0.0884 -0.0353
  707POPI    C2 9886   0.260   8.576   5.803  0.0639 -0.2127 -0.1236
  707POPI    C3 9887  -0.037   8.350   5.661 -0.1535  0.0086 -0.0281
  707POPI   PO4 9888   0.206   8.431   6.298 -0.1984  0.2117  0.1004
  707POPI   GL1 9889   0.499   8.514   6.539 -0.2732  0.1073 -0.2343
  707POPI   GL2 9890   0.878   8.528   6.607  0.2566 -0.0119 -0.1093
  707POPI   C1A 9891   0.476   8.316   6.942 -0.2855  0.0807 -0.0946
  707POPI   D2A 9892   0.593   8.075   7.226 -0.0861 -0.0716  0.0841
  707POPI   C3A 9893   0.651   8.079   7.644 -0.0393 -0.1286 -0.0635
  707POPI   C4A 9894   0.636   7.909   8.116  0.0013  0.2065 -0.0677
  707POPI   C1B 9895   1.088   8.295   6.984 -0.1574  0.2101 -0.0856
  707POPI   C2B 9896   1.150   8.529   7.453  0.0325  0.0415 -0.1081
  707POPI   C3B 9897   0.991   8.514   7.804  0.0320 -0.0629  0.0084
  707POPI   C4B 9898   0.681   8.426   8.073  0.2871 -0.0900 -0.2053
  708POPI    C1 9899   2.657   0.242   5.325  0.5496  0.2433 -0.1040
  708POPI    C2 9900   2.663  -0.089   5.100  0.0784 -0.0441  0.2857
  708POPI    C3 9901   2.577   0.264   4.934  0.1123 -0.1900 -0.0495
  708POPI   PO4 9902   2.658   0.046   5.616  0.1119 -0.0687 -0.1923
  708POPI   GL1 9903   2.833  -0.060   6.028 -0.1588 -0.0931 -0.2461
  708POPI   GL2 9904   3.129   0.054   6.177 -0.2394  0.1397  0.0753
  708POPI   C1A 9905   2.893  -0.528   6.186 -0.1473 -0.2980  0.1146
  708POPI   D2A 9906   2.961  -1.093   6.286  0.0559 -0.0614 -0.0504
  708POPI   C3A 9907   2.736  -1.233   6.735  0.0500  0.0882  0.0786
  708POPI   C4A 9908   2.770  -1.141   7.103 -0.0885  0.0400 -0.0333
  708POPI   C1B 9909   3.225   0.192   6.589 -0.2000 -0.0708  0.1441
  708POPI   C2B 9910   2.887   0.293   6.787 -0.1122 -0.1763  0.0054
  708POPI   C3B 9911   2.694   0.336   7.135  0.0235  0.2441 -0.0726
  708POPI   C4B 9912   2.499   0.215   7.472  0.0322  0.0857  0.0499
  709POPI    C1 9913   2.454  13.541   5.537 -0.0510 -0.0413 -0.0147
  709POPI    C2 9914   2.383  13.915   5.659  0.0240  0.0447 -0.2309
  709POPI    C3 9915   2.078  13.674   5.566 -0.0349 -0.0260  0.1317
  709POPI   PO4 9916   2.596  13.423   5.741  0.0437 -0.0613  0.0787
  709POPI   GL1 9917   2.718  13.438   6.143  0.1662  0.3743 -0.0991
  709POPI   GL2 9918   2.756  13.631   6.458 -0.0435 -0.0614  0.0200
  709POPI   C1A 9919   3.030  13.122   6.329  0.3107 -0.2175 -0.1121
  709POPI   D2A 9920   3.080  12.768   6.679 -0.0567 -0.0706 -0.2117
  709POPI   C3A 9921   3.530  12.680   6.912 -0.3139  0.0767 -0.0936
  709POPI   C4A 9922   4.013  12.575   7.038  0.0552 -0.1535  0.0720
  709POPI   C1B 9923   2.882  13.330   6.823 -0.2206  0.3623  0.0341
  709POPI   C2B 9924   3.025  13.058   7.093  0.1776 -0.1678  0.1561
  709POPI   C3B 9925   3.070  13.031   7.478 -0.0199 -0.0970  0.0563
  709POPI   C4B 9926   3.180  12.869   7.881 -0.0293 -0.0676 -0.1303
  710POPI    C1 9927   0.987   8.874   5.773 -0.1992 -0.2593 -0.0423
  710POPI    C2 9928   0.592   8.923   5.740 -0.1986 -0.1371  0.1195
  710POPI    C3 9929   0.840   9.147   5.520 -0.2175 -0.1705  0.0639
  710POPI   PO4 9930   1.061   8.955   6.037 -0.1031 -0.0265  0.0002
  710POPI   GL1 9931   1.122   9.272   6.347 -0.2691  0.0187  0.0518
  710POPI   GL2 9932   0.882   9.031   6.564 -0.0567 -0.0963  0.1087
  710POPI   C1A 9933   1.378   9.366   6.590  0.1207  0.1419  0.1721
  710POPI   D2A 9934   1.351   9.154   6.974 -0.0585 -0.0537  0.1811
  710POPI   C3A 9935   1.082   8.810   6.977  0.0581 -0.1299  0.1850
  710POPI   C4A 9936   0.661   8.744   7.061  0.2060 -0.1532  0.2162
  710POPI   C1B 9937   0.924   9.355   6.848 -0.3865 -0.1483  0.3167
  710POPI   C2B 9938   0.633   9.417   7.187  0.0416  0.1757 -0.1671
  710POPI   C3B 9939   0.374   9.157   7.398 -0.1913 -0.0408 -0.0206
  710POPI   C4B 9940   0.609   8.927   7.823 -0.1733 -0.0073 -0.0069
  711POPI    C1 9941  18.125  11.383   5.387  0.4581  0.2561 -0.1458
  711POPI    C2 9942  18.184  11.232   5.022  0.0005 -0.0343 -0.1070
  711POPI    C3 9943  17.893  11.500   5.083  0.1627  0.1146  0.0201
  711POPI   PO4 9944  18.322  11.467   5.593  0.0788  0.0815  0.0379
  711POPI   GL1 9945  18.224  11.514   6.009  0.0801  0.0447  0.1200
  711POPI   GL2 9946  18.410  11.164   5.976  0.2205  0.0011 -0.0808
  711POPI   C1A 9947  17.990  11.308   6.308 -0.0146  0.2314 -0.0323
  711POPI   D2A 9948  17.610  11.176   6.512 -0.0843  0.2333 -0.1941
  711POPI   C3A 9949  17.293  11.420   6.691  0.1229  0.1994  0.0789
  711POPI   C4A 9950  17.157  11.566   7.119 -0.0178 -0.1138 -0.2349
  711POPI   C1B 9951  18.452  11.205   6.509  0.3453  0.1330  0.1829
  711POPI   C2B 9952  18.498  11.170   6.965  0.1649 -0.0791 -0.0502
  711POPI   C3B 9953  18.595  11.291   7.410 -0.1065  0.1212  0.0544
  711POPI   C4B 9954  18.595  11.708   7.768 -0.0071 -0.0636 -0.0090
  712POPI    C1 9955   1.641  11.518   5.362  0.0265  0.1529  0.2593
  712POPI    C2 9956   1.790  11.888   5.334  0.1092  0.1162  0.2108
  712POPI    C3 9957   1.607  11.722   5.020  0.1756  0.0718  0.1953
  712POPI   PO4 9958   1.465  11.511   5.568  0.1843 -0.0864 -0.1255
  712POPI   GL1 9959   1.340  11.568   6.074 -0.2035 -0.0687  0.1429
  712POPI   GL2 9960   1.592  11.790   6.122  0.4532 -0.1680 -0.2220
  712POPI   C1A 9961   1.225  11.719   6.491 -0.0636 -0.2412  0.0898
  712POPI   D2A 9962   1.431  11.627   6.891 -0.0652  0.1418 -0.3968
  712POPI   C3A 9963   1.362  11.885   7.166  0.2028 -0.1057 -0.1360
  712POPI   C4A 9964   0.906  12.000   7.384  0.1547 -0.0459  0.0138
  712POPI   C1B 9965   1.785  11.839   6.479  0.0596 -0.0593  0.2075
  712POPI   C2B 9966   1.814  11.969   6.962  0.2008 -0.0019  0.0289
  712POPI   C3B 9967   1.828  12.174   7.376 -0.2071 -0.4225 -0.2519
  712POPI   C4B 9968   1.754  12.601   7.522 -0.1162  0.2242  0.2330
  713POPI    C1 9969   1.808   8.257   6.162 -0.2601  0.2103  0.4508
  713POPI    C2 9970   1.753   8.650   6.211 -0.0318  0.2760  0.2074
  713POPI    C3 9971   2.122   8.505   6.156 -0.1507  0.0724 -0.0782
  713POPI   PO4 9972   1.564   8.098   6.095 -0.0511 -0.0849  0.1884
  713POPI   GL1 9973   1.162   8.060   6.423  0.0262  0.1187  0.0096
  713POPI   GL2 9974   1.399   8.337   6.543  0.1982  0.2219 -0.1286
  713POPI   C1A 9975   1.318   7.845   6.798 -0.2793  0.3909  0.1040
  713POPI   D2A 9976   1.488   7.661   7.186 -0.2817  0.3075 -0.0151
  713POPI   C3A 9977   1.143   7.460   7.404 -0.0977  0.3053 -0.0458
  713POPI   C4A 9978   0.862   7.586   7.733 -0.1239 -0.0579 -0.2293
  713POPI   C1B 9979   1.600   8.716   6.831  0.1631 -0.0513 -0.0043
  713POPI   C2B 9980   1.533   8.788   7.238 -0.1957  0.1050  0.0400
  713POPI   C3B 9981   1.488   9.155   7.552  0.3186 -0.0627 -0.1417
  713POPI   C4B 9982   1.234   9.250   7.902  0.1960  0.2478  0.1754
  714POPI    C1 9983   0.963   1.279   5.850  0.0053 -0.0541  0.0028
  714POPI    C2 9984   0.889   1.672   5.832  0.0692 -0.0423 -0.0079
  714POPI    C3 9985   0.848   1.446   5.505  0.1760 -0.0185 -0.0381
  714POPI   PO4 9986   1.218   1.323   5.997 -0.1961  0.0487 -0.2998
  714POPI   GL1 9987   1.563   1.395   6.302 -0.0976 -0.3032 -0.3074
  714POPI   GL2 9988   1.450   1.602   6.590 -0.0815  0.1336  0.1288
  714POPI   C1A 9989   1.548   1.092   6.657  0.2330 -0.0841 -0.2438
  714POPI   D2A 9990   1.686   1.206   7.044 -0.0982  0.0822 -0.3821
  714POPI   C3A 9991   1.500   0.909   7.438  0.0175 -0.5051 -0.0216
  714POPI   C4A 9992   1.446   0.780   7.801 -0.0061  0.0698  0.3338
  714POPI   C1B 9993   1.836   1.603   6.741 -0.1093  0.1548  0.1087
  714POPI   C2B 9994   2.006   1.963   6.989  0.0636 -0.2598  0.0357
  714POPI   C3B 9995   2.381   1.916   7.095 -0.0526  0.0254 -0.0331
  714POPI   C4B 9996   2.723   1.844   7.504 -0.0954  0.1545 -0.1471
  715POPI    C1 9997   1.814   9.844   5.610  0.2321 -0.0758  0.0490
  715POPI    C2 9998   1.679  10.188   5.457 -0.1211 -0.1561  0.1715
  715POPI    C3 9999   2.066  10.148   5.547 -0.0492  0.1553  0.0150
  715POPI   PO410000   1.611   9.805   5.871 -0.0675 -0.1455 -0.2619
  715POPI   GL110001   1.317   9.740   6.226  0.0589 -0.0656 -0.1287
  715POPI   GL210002   1.551  10.119   6.242  0.0699  0.1356 -0.2403
  715POPI   C1A10003   1.295   9.951   6.657 -0.0513 -0.4491  0.2024
  715POPI   D2A10004   1.355   9.630   6.996 -0.1749  0.1507  0.0229
  715POPI   C3A10005   1.133   9.447   7.424 -0.0868 -0.5597  0.1237
  715POPI   C4A10006   1.001   9.069   7.444  0.1877  0.1930 -0.0657
  715POPI   C1B10007   1.737  10.345   6.473  0.0282 -0.3472  0.2235
  715POPI   C2B10008   2.111  10.502   6.821 -0.3197 -0.1956  0.0621
  715POPI   C3B10009   2.331  10.710   7.188  0.0466  0.1578 -0.0881
  715POPI   C4B10010   2.657  10.725   7.423  0.0514  0.1156  0.0113
  716POPI    C110011  16.046   5.220   5.798  0.1440 -0.1262  0.1306
  716POPI    C210012  15.915   5.012   5.482  0.1995  0.0089  0.0177
  716POPI    C310013  15.671   5.080   5.792  0.0802  0.0486 -0.0839
  716POPI   PO410014  16.213   5.139   5.988 -0.1141 -0.2996 -0.1250
  716POPI   GL110015  16.222   5.004   6.394  0.2191 -0.2488  0.2903
  716POPI   GL210016  16.131   5.127   6.625  0.0440  0.2877  0.4759
  716POPI   C1A10017  16.547   4.660   6.632 -0.1470  0.1476  0.0263
  716POPI   D2A10018  16.975   4.704   6.512 -0.0577 -0.1709  0.3211
  716POPI   C3A10019  17.337   4.378   6.672  0.0483 -0.0565 -0.0877
  716POPI   C4A10020  17.685   4.625   6.881  0.1487 -0.0519  0.0462
  716POPI   C1B10021  16.356   5.228   6.944  0.0227 -0.1282  0.2047
  716POPI   C2B10022  16.562   5.569   7.053 -0.0313 -0.0155 -0.1109
  716POPI   C3B10023  16.446   5.726   7.423 -0.1031  0.0118 -0.0782
  716POPI   C4B10024  16.531   5.786   7.832 -0.0449  0.1207  0.1525
  717POPI    C110025   9.938  16.503   5.133  0.1248 -0.0419  0.1503
  717POPI    C210026  10.121  16.731   4.860 -0.2702 -0.3289 -0.3734
  717POPI    C310027   9.763  16.838   5.004 -0.0189 -0.1253  0.1264
  717POPI   PO410028  10.142  16.429   5.433  0.0595  0.2559  0.0131
  717POPI   GL110029  10.067  16.557   5.779 -0.2319  0.0254  0.2075
  717POPI   GL210030  10.290  16.228   5.828 -0.2161  0.1961 -0.4405
  717POPI   C1A10031   9.878  16.315   6.137 -0.0484 -0.1163  0.1571
  717POPI   D2A10032   9.953  16.501   6.617 -0.0556  0.2571  0.1299
  717POPI   C3A10033   9.630  16.370   6.966 -0.0020  0.0982 -0.0473
  717POPI   C4A10034   9.456  16.069   7.232 -0.1047  0.3079  0.1893
  717POPI   C1B10035  10.296  16.165   6.318  0.1395  0.0551 -0.1799
  717POPI   C2B10036  10.404  16.268   6.752 -0.3733 -0.2953  0.0703
  717POPI   C3B10037  10.283  16.371   7.079  0.0857  0.2112 -0.0900
  717POPI   C4B10038  10.484  16.330   7.486  0.1364 -0.1496 -0.2273
  718POPI    C110039   9.096  15.099   5.469 -0.0392  0.2554  0.0009
  718POPI    C210040   9.369  15.328   5.651  0.0308  0.0561  0.1513
  718POPI    C310041   9.464  15.133   5.315  0.0721 -0.0091  0.2006
  718POPI   PO410042   8.866  15.232   5.421 -0.1458 -0.0416  0.0010
  718POPI   GL110043   8.577  15.208   5.789  0.0045 -0.0264 -0.5061
  718POPI   GL210044   8.812  15.030   5.922  0.0327  0.0155  0.0157
  718POPI   C1A10045   8.695  15.362   6.259 -0.3424  0.0443 -0.0993
  718POPI   D2A10046   8.861  15.428   6.624  0.3032  0.0348 -0.0158
  718POPI   C3A10047   8.684  15.210   7.042  0.1858  0.0670 -0.0382
  718POPI   C4A10048   8.336  14.933   7.224  0.0267 -0.0521  0.3186
  718POPI   C1B10049   8.963  14.672   6.134 -0.0938 -0.1416 -0.1375
  718POPI   C2B10050   9.002  14.478   6.555  0.0853 -0.1566  0.0732
  718POPI   C3B10051   9.034  14.245   6.901  0.2771  0.1440  0.0366
  718POPI   C4B10052   9.160  14.354   7.256 -0.0954  0.2167  0.1710
  719POPI    C110053   6.881  11.513   5.757 -0.0571  0.0906 -0.0664
  719POPI    C210054   6.952  11.795   5.482 -0.0545  0.2217  0.0673
  719POPI    C310055   6.666  11.522   5.420 -0.0841  0.2778 -0.0452
  719POPI   PO410056   6.851  11.606   5.918  0.0398  0.1738  0.1126
  719POPI   GL110057   6.654  11.844   6.202  0.5049 -0.1815  0.1119
  719POPI   GL210058   6.886  11.846   6.414 -0.2153  0.2499 -0.0107
  719POPI   C1A10059   6.318  11.838   6.441  0.2124 -0.0756  0.1096
  719POPI   D2A10060   6.049  11.547   6.668  0.0944 -0.1026  0.0612
  719POPI   C3A10061   6.116  11.747   7.107 -0.3540  0.2223 -0.0913
  719POPI   C4A10062   6.232  11.657   7.547  0.0474 -0.2348  0.0047
  719POPI   C1B10063   7.019  11.800   6.778 -0.2067 -0.2212  0.0664
  719POPI   C2B10064   7.158  11.829   7.238  0.0167  0.3063  0.3981
  719POPI   C3B10065   7.029  11.805   7.595 -0.1189  0.2331 -0.1291
  719POPI   C4B10066   6.706  11.711   7.794  0.1066 -0.0197  0.1063
  720POPI    C110067   7.032   8.575   6.050  0.1424  0.3670 -0.1094
  720POPI    C210068   6.730   8.836   6.019 -0.0744  0.1330 -0.0051
  720POPI    C310069   6.890   8.675   5.690 -0.1778  0.1298 -0.0541
  720POPI   PO410070   7.147   8.626   6.286 -0.2805 -0.0822 -0.2446
  720POPI   GL110071   7.246   8.421   6.665  0.1982 -0.0107 -0.1082
  720POPI   GL210072   7.487   8.299   6.545  0.2423 -0.0604  0.0129
  720POPI   C1A10073   7.434   8.691   7.031  0.0919 -0.0638 -0.0568
  720POPI   D2A10074   7.544   8.627   7.402  0.1013 -0.0780  0.0250
  720POPI   C3A10075   7.552   8.246   7.751 -0.2569 -0.0775  0.1900
  720POPI   C4A10076   7.616   7.940   7.938 -0.2097  0.0816 -0.4040
  720POPI   C1B10077   7.800   8.343   6.907 -0.2777 -0.0103  0.0147
  720POPI   C2B10078   7.898   8.288   7.279 -0.0868 -0.3266  0.0391
  720POPI   C3B10079   8.134   8.217   7.634 -0.0573 -0.2335  0.0095
  720POPI   C4B10080   8.444   8.046   7.825 -0.0512 -0.2654  0.2644
  721POPI    C110081  18.152   4.083   5.771  0.2550  0.0539  0.2754
  721POPI    C210082  18.515   4.064   5.604  0.0439  0.1085 -0.2073
  721POPI    C310083  18.303   4.402   5.583 -0.0062  0.1026  0.1432
  721POPI   PO410084  18.174   4.061   6.002  0.0349  0.1833  0.3313
  721POPI   GL110085  17.949   4.121   6.469 -0.3124 -0.3765  0.0268
  721POPI   GL210086  18.244   4.324   6.500  0.1782  0.4685  0.1920
  721POPI   C1A10087  17.721   4.050   6.825 -0.2177  0.0482  0.0562
  721POPI   D2A10088  17.661   3.808   7.153 -0.0323  0.1691 -0.1963
  721POPI   C3A10089  17.792   4.041   7.559  0.2346 -0.0244 -0.4727
  721POPI   C4A10090  17.883   4.260   8.000  0.0406  0.3660 -0.1995
  721POPI   C1B10091  18.154   4.352   7.040  0.0548  0.2817 -0.0216
  721POPI   C2B10092  18.304   4.263   7.465  0.1128  0.0903  0.0070
  721POPI   C3B10093  18.587   4.220   7.743 -0.3164  0.3184 -0.0510
  721POPI   C4B10094  18.862   4.064   8.119 -0.0909 -0.1551 -0.0406
  722POPI    C110095  17.260   7.625   6.326 -0.2206 -0.1712 -0.1995
  722POPI    C210096  17.342   7.664   5.937 -0.0152 -0.0190 -0.1426
  722POPI    C310097  17.483   7.349   6.140  0.1448  0.0651 -0.1216
  722POPI   PO410098  17.045   7.708   6.402  0.2197 -0.3294 -0.0195
  722POPI   GL110099  16.902   7.938   6.738  0.1647  0.0959 -0.0436
  722POPI   GL210100  17.267   7.787   6.833  0.1320  0.0672 -0.3075
  722POPI   C1A10101  16.805   7.929   7.241 -0.1972  0.0611 -0.0116
  722POPI   D2A10102  16.838   7.942   7.648 -0.3286 -0.0448  0.0755
  722POPI   C3A10103  16.681   8.228   8.012 -0.4090 -0.1191 -0.2163
  722POPI   C4A10104  16.342   8.515   7.870 -0.1206  0.2472  0.0942
  722POPI   C1B10105  17.329   7.835   7.348 -0.0250  0.0043 -0.2434
  722POPI   C2B10106  17.290   7.979   7.812 -0.2240  0.0202 -0.0340
  722POPI   C3B10107  17.490   7.683   8.014 -0.2077 -0.0884  0.3486
  722POPI   C4B10108  17.808   7.655   8.381  0.2420  0.0234  0.2237
  723POPI    C110109   5.127   5.106   5.792 -0.1627  0.1860 -0.0414
  723POPI    C210110   4.743   5.002   5.838 -0.0736 -0.1156  0.0421
  723POPI    C310111   5.023   4.720   5.791  0.1319  0.1045 -0.0791
  723POPI   PO410112   5.139   5.294   5.985  0.1578 -0.1880 -0.2622
  723POPI   GL110113   5.070   5.093   6.337  0.2311 -0.3605 -0.1163
  723POPI   GL210114   4.779   5.116   6.468  0.1140  0.3770  0.1915
  723POPI   C1A10115   5.116   4.900   6.755  0.2797 -0.1939 -0.1631
  723POPI   D2A10116   5.075   4.416   6.913 -0.1196 -0.1461 -0.1172
  723POPI   C3A10117   4.707   4.261   6.994 -0.1060  0.0912  0.0029
  723POPI   C4A10118   4.264   4.135   6.945 -0.1516 -0.1451 -0.4722
  723POPI   C1B10119   4.657   5.276   6.793  0.2867 -0.1356 -0.3233
  723POPI   C2B10120   4.419   5.210   7.167  0.0167  0.1604  0.2783
  723POPI   C3B10121   4.430   5.098   7.537  0.0284 -0.2700  0.0501
  723POPI   C4B10122   4.238   5.022   7.971 -0.0526  0.1628 -0.4148
  724POPI    C110123   9.449  17.710   5.086 -0.0180  0.0014  0.0226
  724POPI    C210124   9.556  17.341   4.976 -0.1406 -0.0272 -0.0021
  724POPI    C310125   9.528  17.630   4.702 -0.0566 -0.0023  0.0153
  724POPI   PO410126   9.332  17.693   5.359  0.0339  0.1146  0.1821
  724POPI   GL110127   9.484  17.913   5.719  0.3544  0.3323  0.0048
  724POPI   GL210128   9.361  18.163   5.728 -0.1786 -0.3154  0.5572
  724POPI   C1A10129   9.223  17.652   6.001 -0.0270  0.1380  0.2175
  724POPI   D2A10130   9.185  17.375   6.343 -0.3653 -0.2551 -0.2997
  724POPI   C3A10131   9.498  17.174   6.708  0.0813  0.1145  0.5965
  724POPI   C4A10132   9.644  16.871   6.976  0.0382 -0.1630 -0.2515
  724POPI   C1B10133   9.316  18.112   6.171  0.1922 -0.1604 -0.0951
  724POPI   C2B10134   9.311  18.036   6.621  0.2825  0.4384  0.2153
  724POPI   C3B10135   9.619  18.051   7.073  0.0131 -0.0857 -0.0253
  724POPI   C4B10136   9.922  18.068   7.411  0.0998  0.0102 -0.3372
  725POPI    C110137   5.750   8.962   6.187 -0.0128  0.0009 -0.1041
  725POPI    C210138   5.960   8.954   5.846  0.1141 -0.1350 -0.0237
  725POPI    C310139   5.642   8.715   5.892  0.2424 -0.2948  0.0445
  725POPI   PO410140   5.737   9.194   6.239 -0.1976  0.1604 -0.0847
  725POPI   GL110141   5.490   9.489   6.498  0.1018 -0.2373  0.3522
  725POPI   GL210142   5.826   9.656   6.522  0.0700  0.3790 -0.1780
  725POPI   C1A10143   5.318   9.433   6.900  0.1461  0.2751 -0.1186
  725POPI   D2A10144   5.256   9.701   7.280  0.0319 -0.0550  0.1293
  725POPI   C3A10145   5.255   9.531   7.688 -0.0491 -0.2966  0.2682
  725POPI   C4A10146   5.593   9.437   7.930  0.3259 -0.2705  0.0459
  725POPI   C1B10147   5.813   9.383   6.953  0.2749  0.0489  0.1499
  725POPI   C2B10148   5.582   9.362   7.373  0.1625  0.2025 -0.0611
  725POPI   C3B10149   5.561   9.035   7.623 -0.2867  0.0375 -0.0983
  725POPI   C4B10150   5.375   8.793   7.946  0.2989 -0.1333  0.0284
  726POPI    C110151   9.535   3.666   5.735 -0.1310  0.0445 -0.0120
  726POPI    C210152   9.478   3.535   5.361  0.0189 -0.2774  0.0740
  726POPI    C310153   9.689   3.870   5.426 -0.0870 -0.1684 -0.1326
  726POPI   PO410154   9.487   3.359   5.912  0.0045 -0.0998  0.1549
  726POPI   GL110155   9.298   3.332   6.391  0.0608 -0.3040  0.2616
  726POPI   GL210156   9.609   3.156   6.364  0.2730 -0.1483 -0.2135
  726POPI   C1A10157   9.286   3.347   6.815 -0.1530 -0.0704  0.4583
  726POPI   D2A10158   9.210   3.658   7.023  0.2499 -0.0553 -0.1704
  726POPI   C3A10159   9.101   3.542   7.479 -0.1209 -0.2377 -0.1072
  726POPI   C4A10160   8.812   3.670   7.867 -0.3497  0.0763 -0.1050
  726POPI   C1B10161   9.869   2.845   6.579  0.0326  0.0148  0.1491
  726POPI   C2B10162   9.986   2.373   6.767 -0.5192  0.0167 -0.1957
  726POPI   C3B10163  10.216   2.224   7.128 -0.0048  0.0372 -0.1731
  726POPI   C4B10164  10.189   2.116   7.486  0.0527  0.4058 -0.0904
  727POPI    C110165   1.935   4.740   5.737  0.1596  0.1117 -0.0939
  727POPI    C210166   1.587   4.931   5.785 -0.0783 -0.3744  0.2038
  727POPI    C310167   1.679   4.769   5.431 -0.0924 -0.1352  0.0881
  727POPI   PO410168   2.039   4.778   6.095  0.1221 -0.0226  0.1316
  727POPI   GL110169   1.945   4.759   6.477  0.4569  0.1400 -0.1468
  727POPI   GL210170   1.784   5.062   6.455 -0.0500  0.1209  0.0801
  727POPI   C1A10171   1.980   4.739   6.933  0.2129  0.1835  0.0783
  727POPI   D2A10172   2.145   4.616   7.291 -0.3487 -0.0756 -0.1512
  727POPI   C3A10173   2.439   4.724   7.581  0.2978 -0.0071  0.1634
  727POPI   C4A10174   2.908   4.686   7.417 -0.1858  0.0148  0.0716
  727POPI   C1B10175   1.842   5.224   6.854 -0.0834  0.2299 -0.1191
  727POPI   C2B10176   1.940   5.336   7.236 -0.1514 -0.0637  0.3588
  727POPI   C3B10177   2.050   5.058   7.543 -0.1761 -0.0180 -0.0900
  727POPI   C4B10178   2.108   4.901   7.935  0.1061 -0.1128  0.2787
  728POPI    C110179  14.089   1.775   5.849 -0.0094 -0.0049  0.4478
  728POPI    C210180  14.482   1.843   5.818 -0.0150 -0.0322  0.3166
  728POPI    C310181  14.221   2.101   5.658 -0.0476 -0.0754  0.2999
  728POPI   PO410182  14.085   1.715   6.091  0.4477  0.0770 -0.2572
  728POPI   GL110183  14.154   1.406   6.393  0.1110 -0.0152 -0.2206
  728POPI   GL210184  14.344   1.654   6.506  0.1186 -0.1326 -0.3482
  728POPI   C1A10185  13.724   1.341   6.698  0.2009  0.0328  0.1809
  728POPI   D2A10186  13.609   1.224   7.058 -0.2177  0.0859  0.0568
  728POPI   C3A10187  13.820   0.883   7.201 -0.2281  0.0909 -0.1894
  728POPI   C4A10188  13.911   0.638   7.564  0.1526  0.1794 -0.1587
  728POPI   C1B10189  14.629   1.879   6.714  0.0844 -0.0994 -0.0268
  728POPI   C2B10190  14.902   1.982   7.077 -0.0851  0.1024 -0.0117
  728POPI   C3B10191  14.959   2.018   7.555  0.1189  0.1912  0.1400
  728POPI   C4B10192  14.870   1.990   8.058 -0.2235  0.1438 -0.3651
  729POPI    C110193  12.195  14.025   5.285  0.1853 -0.0675 -0.2599
  729POPI    C210194  11.886  13.774   5.239  0.1352 -0.0669  0.0528
  729POPI    C310195  12.257  13.651   5.156  0.0634 -0.0972 -0.2342
  729POPI   PO410196  12.072  14.135   5.631  0.7716 -0.0008 -0.3345
  729POPI   GL110197  12.303  14.175   5.963 -0.0278  0.2008 -0.0778
  729POPI   GL210198  12.227  13.908   6.167  0.1056 -0.4501 -0.1453
  729POPI   C1A10199  12.215  14.421   6.372  0.3031  0.1280  0.2657
  729POPI   D2A10200  12.280  14.469   6.794 -0.0892 -0.2244  0.0364
  729POPI   C3A10201  12.448  14.533   7.199 -0.1695  0.1089 -0.1174
  729POPI   C4A10202  12.317  14.585   7.644 -0.0086  0.0994 -0.1730
  729POPI   C1B10203  12.329  13.972   6.570  0.1386 -0.1076  0.0044
  729POPI   C2B10204  12.179  13.922   7.023  0.1530  0.0666  0.1758
  729POPI   C3B10205  12.310  14.061   7.454  0.1663 -0.2464  0.3682
  729POPI   C4B10206  12.116  14.137   7.828  0.0017  0.0485 -0.2014
  730POPI    C110207   4.710   1.604   5.675 -0.2389 -0.3197  0.1091
  730POPI    C210208   5.010   1.646   5.935 -0.3378 -0.0471  0.1818
  730POPI    C310209   4.913   1.283   5.800  0.1151 -0.1250  0.0473
  730POPI   PO410210   4.408   1.603   5.853 -0.1141 -0.2548 -0.0203
  730POPI   GL110211   4.391   1.567   6.303 -0.0538  0.2618  0.0911
  730POPI   GL210212   4.715   1.646   6.364  0.2477 -0.0983  0.1583
  730POPI   C1A10213   4.157   1.657   6.731 -0.0618 -0.2890  0.0727
  730POPI   D2A10214   4.235   1.711   7.236 -0.0434 -0.0215 -0.0538
  730POPI   C3A10215   4.082   1.649   7.660  0.1004 -0.4458 -0.1468
  730POPI   C4A10216   4.284   1.665   8.039  0.1281 -0.0177  0.0426
  730POPI   C1B10217   4.693   1.466   6.755  0.2660 -0.1536 -0.3404
  730POPI   C2B10218   4.597   1.405   7.091 -0.0665  0.0043 -0.1286
  730POPI   C3B10219   4.432   1.200   7.489 -0.2070 -0.1537  0.0260
  730POPI   C4B10220   4.569   1.093   7.921  0.2262 -0.0240  0.2333
  731POPI    C110221  15.959  10.451   5.518 -0.3105 -0.0834 -0.3758
  731POPI    C210222  15.960  10.768   5.762  0.3359 -0.1932 -0.2180
  731POPI    C310223  15.924  10.820   5.367  0.1112  0.0475 -0.1683
  731POPI   PO410224  16.043  10.173   5.667 -0.0857 -0.0838  0.2447
  731POPI   GL110225  15.895   9.925   5.964 -0.2127  0.0556  0.0152
  731POPI   GL210226  15.604  10.081   5.963  0.0421 -0.3726 -0.0025
  731POPI   C1A10227  16.077   9.886   6.390  0.0501  0.2602 -0.1374
  731POPI   D2A10228  16.391   9.630   6.532 -0.2763 -0.0897  0.0488
  731POPI   C3A10229  16.227   9.446   6.907  0.2784  0.0778 -0.1201
  731POPI   C4A10230  16.082   9.087   6.907 -0.0106  0.0183  0.0196
  731POPI   C1B10231  15.311   9.780   6.235  0.1749  0.3194  0.0967
  731POPI   C2B10232  15.157   9.674   6.661 -0.0328 -0.0516 -0.0597
  731POPI   C3B10233  14.781   9.615   6.984  0.0830  0.0928  0.0040
  731POPI   C4B10234  14.831   9.686   7.432 -0.0281 -0.0984  0.1294
  732POPI    C110235  17.481   0.532   5.612 -0.0197 -0.1122 -0.0826
  732POPI    C210236  17.852   0.629   5.726 -0.1015  0.0124  0.0835
  732POPI    C310237  17.685   0.811   5.411 -0.0023 -0.0842 -0.0263
  732POPI   PO410238  17.456   0.325   5.822  0.3138  0.0354  0.0871
  732POPI   GL110239  17.200   0.200   6.235 -0.0008 -0.1401  0.2841
  732POPI   GL210240  17.217   0.562   6.394 -0.0398  0.0926  0.0044
  732POPI   C1A10241  17.235  -0.007   6.644 -0.1026  0.0543  0.0709
  732POPI   D2A10242  17.276  -0.168   7.074 -0.0135 -0.0517  0.2468
  732POPI   C3A10243  17.482  -0.232   7.382 -0.0942  0.2801  0.0246
  732POPI   C4A10244  17.665  -0.214   7.830 -0.0309 -0.0445 -0.0072
  732POPI   C1B10245  17.112   0.509   6.771 -0.1493 -0.3343 -0.0616
  732POPI   C2B10246  17.269   0.461   7.199  0.0174 -0.2402 -0.1061
  732POPI   C3B10247  17.532   0.642   7.431 -0.1365  0.2464 -0.0877
  732POPI   C4B10248  17.927   0.707   7.187  0.1975 -0.0842  0.0670
  733POPI    C110249  17.977   9.841   5.772 -0.0349  0.2592 -0.0514
  733POPI    C210250  17.625   9.940   5.610 -0.1500 -0.2488 -0.1288
  733POPI    C310251  17.831   9.628   5.467  0.2040 -0.1238  0.0936
  733POPI   PO410252  17.940   9.892   6.034 -0.2045  0.0013 -0.0984
  733POPI   GL110253  18.080   9.695   6.321  0.0452 -0.0398  0.0393
  733POPI   GL210254  18.078   9.470   6.336 -0.1976 -0.1209 -0.1577
  733POPI   C1A10255  18.133   9.595   6.808  0.0842  0.1005 -0.1764
  733POPI   D2A10256  18.220   9.715   7.111  0.2050 -0.1031 -0.2775
  733POPI   C3A10257  18.273   9.517   7.464  0.3069  0.2328 -0.3255
  733POPI   C4A10258  18.627   9.366   7.780 -0.0001 -0.0243  0.1476
  733POPI   C1B10259  17.879   9.235   6.604 -0.0529 -0.0516  0.4364
  733POPI   C2B10260  17.835   9.150   7.033  0.2950 -0.1728 -0.0331
  733POPI   C3B10261  17.837   9.253   7.489  0.0930 -0.0338 -0.1096
  733POPI   C4B10262  17.514   9.550   7.787 -0.0138 -0.0951 -0.3610
  734POPI    C110263  14.058  13.678   5.722  0.2593  0.4855 -0.0803
  734POPI    C210264  13.871  13.750   5.376 -0.0088 -0.1250 -0.0753
  734POPI    C310265  13.660  13.644   5.698  0.2989 -0.2605  0.0854
  734POPI   PO410266  14.234  13.505   5.738 -0.0467  0.0176 -0.1256
  734POPI   GL110267  14.241  13.250   5.971 -0.0254  0.1169  0.2327
  734POPI   GL210268  14.099  13.397   6.216 -0.0519  0.0396 -0.2511
  734POPI   C1A10269  14.537  13.159   6.258 -0.2253 -0.3680  0.0913
  734POPI   D2A10270  14.784  13.200   6.714 -0.0954 -0.2393  0.0694
  734POPI   C3A10271  14.585  13.086   7.044  0.4041 -0.1696 -0.2012
  734POPI   C4A10272  14.457  12.964   7.491 -0.2968 -0.0877 -0.4636
  734POPI   C1B10273  13.853  13.302   6.485 -0.1441  0.0934 -0.1872
  734POPI   C2B10274  13.749  13.440   6.844 -0.2312 -0.3908  0.2301
  734POPI   C3B10275  13.666  13.716   7.208 -0.1608  0.2277  0.1052
  734POPI   C4B10276  13.747  14.086   7.255  0.1344 -0.1770 -0.0637
  735POPI    C110277   4.586  10.391   5.831 -0.0461 -0.0784 -0.0306
  735POPI    C210278   4.450  10.537   5.484 -0.0587  0.1651  0.0751
  735POPI    C310279   4.198  10.478   5.789 -0.0605 -0.1167  0.0219
  735POPI   PO410280   4.738  10.553   5.976 -0.3103  0.0361 -0.0255
  735POPI   GL110281   4.909  10.591   6.396 -0.1657  0.5081 -0.0174
  735POPI   GL210282   4.837  10.728   6.726  0.3356  0.0166  0.1497
  735POPI   C1A10283   5.238  10.417   6.752  0.1268 -0.0778  0.0867
  735POPI   D2A10284   5.643  10.314   6.830  0.1491 -0.1617 -0.0396
  735POPI   C3A10285   5.695  10.332   7.277  0.0602  0.4310 -0.2068
  735POPI   C4A10286   5.743  10.051   7.568 -0.0478 -0.0795  0.0855
  735POPI   C1B10287   4.687  10.529   7.160 -0.1670 -0.2318  0.2496
  735POPI   C2B10288   4.765  10.365   7.596 -0.3909 -0.4589 -0.0341
  735POPI   C3B10289   4.946  10.289   8.037  0.0321  0.1274 -0.0181
  735POPI   C4B10290   5.256   9.961   8.029 -0.4689  0.0008  0.0409
  736POPI    C110291  15.102   7.365   6.020 -0.0174 -0.0446 -0.0945
  736POPI    C210292  14.749   7.199   5.933 -0.0484  0.0574 -0.1644
  736POPI    C310293  14.977   7.348   5.641  0.0399  0.0170 -0.1163
  736POPI   PO410294  15.181   7.181   6.263 -0.1676  0.0865 -0.0854
  736POPI   GL110295  15.203   7.167   6.732 -0.0232 -0.1450 -0.0805
  736POPI   GL210296  15.454   7.384   6.677 -0.3630 -0.0421 -0.1170
  736POPI   C1A10297  14.798   7.166   6.965  0.0138  0.1209 -0.0866
  736POPI   D2A10298  14.424   7.257   7.046  0.2717 -0.0412 -0.2468
  736POPI   C3A10299  14.231   7.223   7.458  0.1991  0.1130  0.2267
  736POPI   C4A10300  13.929   7.394   7.570  0.1118  0.2289 -0.2427
  736POPI   C1B10301  15.427   7.539   7.107 -0.2091 -0.0813  0.0621
  736POPI   C2B10302  15.259   7.876   7.383 -0.0285  0.2646 -0.0243
  736POPI   C3B10303  14.946   8.080   7.636 -0.1518 -0.3279  0.2413
  736POPI   C4B10304  14.888   8.418   7.850 -0.0615 -0.0145  0.0093
  737POPI    C110305  12.802   1.957   5.935  0.1429 -0.2583 -0.0566
  737POPI    C210306  12.423   1.894   5.822  0.1122 -0.1103 -0.0379
  737POPI    C310307  12.710   1.940   5.546  0.0227  0.3404 -0.0632
  737POPI   PO410308  12.674   1.895   6.241  0.0746 -0.2273 -0.3341
  737POPI   GL110309  12.634   1.448   6.452  0.2472  0.0290 -0.1799
  737POPI   GL210310  12.651   1.021   6.274 -0.0765  0.0400 -0.2018
  737POPI   C1A10311  12.637   1.536   6.927 -0.1888 -0.0806  0.0255
  737POPI   D2A10312  12.664   1.577   7.339  0.2015  0.1404  0.0262
  737POPI   C3A10313  12.914   1.929   7.526 -0.3017  0.0757  0.2016
  737POPI   C4A10314  13.211   1.973   7.815  0.0728 -0.0731  0.2403
  737POPI   C1B10315  12.586   0.663   6.532 -0.0541 -0.2271 -0.2440
  737POPI   C2B10316  12.218   0.563   6.831 -0.3524  0.3090  0.1027
  737POPI   C3B10317  12.225   0.672   7.205  0.0229 -0.0180 -0.4303
  737POPI   C4B10318  12.244   0.676   7.720  0.0942  0.0318 -0.0305
  738POPI    C110319   0.070  14.010   5.719  0.0168  0.0283  0.1870
  738POPI    C210320   0.119  14.191   5.365 -0.0993  0.0009  0.1566
  738POPI    C310321   0.409  13.959   5.512  0.0705  0.2483  0.2182
  738POPI   PO410322   0.015  14.253   5.886 -0.1869  0.2345  0.2635
  738POPI   GL110323   0.339  14.347   6.085 -0.0959 -0.1173  0.0936
  738POPI   GL210324   0.495  14.117   6.065  0.0815  0.2056 -0.2140
  738POPI   C1A10325   0.561  14.463   6.424  0.0547 -0.3068  0.1271
  738POPI   D2A10326   0.883  14.773   6.568  0.0067  0.0453  0.3106
  738POPI   C3A10327   1.052  14.668   6.923 -0.2891  0.0793  0.2462
  738POPI   C4A10328   1.037  14.668   7.301 -0.0771  0.0019  0.1721
  738POPI   C1B10329   0.293  13.909   6.468  0.2087  0.3212  0.0601
  738POPI   C2B10330   0.229  13.968   6.884  0.0724  0.0097 -0.0227
  738POPI   C3B10331   0.339  13.873   7.327 -0.1744 -0.0881  0.0873
  738POPI   C4B10332   0.271  13.843   7.704 -0.0654  0.1541 -0.0619
  739POPI    C110333  15.801   7.737   5.774  0.0068 -0.0916  0.0256
  739POPI    C210334  15.476   7.968   5.732 -0.0281 -0.1198  0.1379
  739POPI    C310335  15.447   7.572   5.685 -0.0278 -0.1313  0.2325
  739POPI   PO410336  15.902   7.784   6.048 -0.1540 -0.1360  0.1785
  739POPI   GL110337  15.914   7.710   6.506 -0.1048 -0.1168  0.2651
  739POPI   GL210338  16.079   7.457   6.654  0.2180  0.1468 -0.2326
  739POPI   C1A10339  15.720   7.935   6.895 -0.0132  0.2121  0.3072
  739POPI   D2A10340  15.688   8.235   7.266  0.1419 -0.0814  0.1497
  739POPI   C3A10341  15.878   8.467   7.556  0.0851 -0.0702 -0.4845
  739POPI   C4A10342  15.913   8.854   7.934  0.0985 -0.0004 -0.0326
  739POPI   C1B10343  15.942   7.529   7.168 -0.2264  0.0173 -0.0562
  739POPI   C2B10344  15.785   7.679   7.477 -0.4117 -0.0743  0.0423
  739POPI   C3B10345  15.604   7.985   7.783  0.0298 -0.1390 -0.1885
  739POPI   C4B10346  15.395   8.275   7.649  0.0217  0.1526 -0.0316
  740POPI    C110347  12.002   3.194   5.957  0.1812 -0.0798 -0.0378
  740POPI    C210348  11.976   2.948   5.642 -0.1813 -0.0657 -0.0234
  740POPI    C310349  11.913   3.341   5.595  0.1966  0.0004 -0.0092
  740POPI   PO410350  11.937   3.010   6.173  0.2861 -0.1405  0.1045
  740POPI   GL110351  11.564   2.778   6.411 -0.0995  0.3422  0.2737
  740POPI   GL210352  11.534   3.142   6.433 -0.5485  0.5347  0.1894
  740POPI   C1A10353  11.455   2.807   6.805  0.0006 -0.3371 -0.5432
  740POPI   D2A10354  11.309   2.830   7.284 -0.0033  0.3167 -0.1759
  740POPI   C3A10355  11.008   3.126   7.372  0.3590  0.1186 -0.0053
  740POPI   C4A10356  10.869   3.140   7.726  0.3032 -0.0557  0.2512
  740POPI   C1B10357  11.364   3.347   6.800  0.0363 -0.2978  0.0828
  740POPI   C2B10358  11.560   3.461   7.294 -0.1644 -0.1909  0.0980
  740POPI   C3B10359  11.484   3.550   7.687 -0.0298 -0.1236  0.1790
  740POPI   C4B10360  11.378   3.894   7.985  0.0942  0.1474  0.1262
  741POPI    C110361   8.963  13.391   5.279 -0.0536  0.0293  0.0940
  741POPI    C210362   9.342  13.282   5.211 -0.1230 -0.1791  0.0319
  741POPI    C310363   9.108  13.393   4.906 -0.1436 -0.1526  0.0572
  741POPI   PO410364   8.866  13.283   5.440  0.4121 -0.0902 -0.1494
  741POPI   GL110365   8.701  13.574   5.794 -0.0358 -0.0810  0.0191
  741POPI   GL210366   8.425  13.731   5.843  0.1193 -0.3564 -0.2163
  741POPI   C1A10367   8.881  13.614   6.230  0.0821 -0.2146 -0.0494
  741POPI   D2A10368   8.724  13.623   6.622  0.1827 -0.2013  0.1378
  741POPI   C3A10369   8.806  13.791   6.976 -0.1051  0.0501 -0.2800
  741POPI   C4A10370   8.786  13.978   7.321 -0.3578 -0.1636 -0.1042
  741POPI   C1B10371   8.413  13.881   6.203 -0.3127 -0.0982  0.0849
  741POPI   C2B10372   8.175  13.698   6.485  0.2916 -0.0003  0.1751
  741POPI   C3B10373   7.732  13.547   6.461  0.1607  0.4066 -0.2825
  741POPI   C4B10374   7.375  13.866   6.311 -0.2695 -0.2701 -0.2836
  742POPS   CNO10375   1.790   0.732   5.910 -0.1771  0.0766  0.2160
  742POPS   PO410376   2.095   0.384   5.706  0.0719  0.2569 -0.0164
  742POPS   GL110377   2.183   0.470   6.151  0.2388  0.2407 -0.0470
  742POPS   GL210378   2.350   0.683   6.335 -0.0969  0.3948  0.0054
  742POPS   C1A10379   1.871   0.547   6.528  0.1382  0.2574  0.1939
  742POPS   D2A10380   1.649   0.648   6.970  0.0285 -0.3348  0.0206
  742POPS   C3A10381   1.277   0.701   6.817 -0.2262  0.2917 -0.1559
  742POPS   C4A10382   0.921   0.647   6.771 -0.0390  0.3835 -0.0073
  742POPS   C1B10383   2.347   0.486   6.701  0.1871  0.2226 -0.0991
  742POPS   C2B10384   2.361   0.036   6.930  0.1673 -0.2931  0.2138
  742POPS   C3B10385   2.149  -0.071   7.283  0.4098 -0.1172  0.0821
  742POPS   C4B10386   1.813  -0.314   7.342  0.3205 -0.1384  0.1148
  743POPS   CNO10387   0.881  12.340   5.726 -0.0167  0.0556 -0.2409
  743POPS   PO410388   0.889  12.864   5.735  0.0185 -0.3926  0.2310
  743POPS   GL110389   0.595  12.886   6.033 -0.1378 -0.0639 -0.0941
  743POPS   GL210390   0.536  13.204   6.118 -0.1405  0.1409 -0.2660
  743POPS   C1A10391   0.512  12.963   6.516 -0.0590  0.4251  0.1047
  743POPS   D2A10392   0.487  13.053   6.873 -0.1086 -0.0843 -0.0659
  743POPS   C3A10393   0.216  12.964   7.221  0.0589  0.1905  0.2394
  743POPS   C4A10394   0.038  12.582   7.493  0.2605 -0.0760  0.0738
  743POPS   C1B10395   0.604  13.409   6.553  0.1107 -0.2757 -0.2728
  743POPS   C2B10396   0.625  13.590   6.959  0.0057  0.1193  0.2489
  743POPS   C3B10397   0.567  13.355   7.261 -0.0847 -0.2418 -0.3367
  743POPS   C4B10398   0.449  13.371   7.699 -0.0729  0.1202 -0.6110
  744POPS   CNO10399  10.238   0.426   4.976 -0.0496  0.0723 -0.1688
  744POPS   PO410400  10.352   0.597   5.462  0.0282 -0.2630  0.6266
  744POPS   GL110401  10.236   0.309   5.839  0.4261  0.2056  0.5323
  744POPS   GL210402  10.330  -0.054   5.854  0.0112 -0.0771  0.0249
  744POPS   C1A10403  10.293   0.350   6.252 -0.1061  0.0756 -0.1960
  744POPS   D2A10404  10.564   0.637   6.428  0.3473  0.2084 -0.2239
  744POPS   C3A10405  10.711   0.983   6.627  0.0990  0.2867  0.1418
  744POPS   C4A10406  11.005   1.044   6.932 -0.0112  0.3752 -0.0035
  744POPS   C1B10407  10.320  -0.361   6.226  0.0460 -0.1405  0.0007
  744POPS   C2B10408   9.963  -0.543   6.558 -0.2677 -0.0978  0.0559
  744POPS   C3B10409   9.675  -0.806   6.674  0.1537 -0.0628  0.2899
  744POPS   C4B10410   9.275  -0.936   6.904  0.0378  0.0848 -0.2922
  745POPS   CNO10411   0.582  18.110   5.448 -0.2041  0.0992  0.0150
  745POPS   PO410412   0.697  18.546   5.507  0.1059 -0.0136 -0.2674
  745POPS   GL110413   0.741  18.235   5.926  0.3485 -0.1318 -0.1074
  745POPS   GL210414   1.016  18.085   5.924 -0.0357  0.1387  0.0304
  745POPS   C1A10415   0.742  18.278   6.307  0.0165 -0.1593  0.1299
  745POPS   D2A10416   1.091  18.152   6.609  0.3706  0.1033 -0.1428
  745POPS   C3A10417   0.986  18.064   7.065 -0.1505 -0.0876 -0.0880
  745POPS   C4A10418   0.972  18.112   7.526 -0.0342  0.0462 -0.0584
  745POPS   C1B10419   0.947  17.815   6.202  0.1275 -0.2461  0.0437
  745POPS   C2B10420   0.706  17.814   6.483  0.1544  0.0807  0.0815
  745POPS   C3B10421   0.597  17.774   6.929 -0.0237  0.1521 -0.0601
  745POPS   C4B10422   0.456  17.820   7.276  0.0119  0.1473  0.0097
  746POPS   CNO10423   3.505   8.412   6.281  0.0818  0.2396 -0.2799
  746POPS   PO410424   4.020   8.269   6.103  0.2215 -0.0891 -0.1086
  746POPS   GL110425   3.931   8.175   6.545  0.0367 -0.1972 -0.3273
  746POPS   GL210426   3.973   7.871   6.564  0.0112  0.0891  0.0539
  746POPS   C1A10427   3.863   8.098   7.010 -0.1870 -0.0372  0.1569
  746POPS   D2A10428   3.952   8.019   7.384  0.2943 -0.0473 -0.2921
  746POPS   C3A10429   4.066   8.217   7.756 -0.0527  0.0505 -0.0259
  746POPS   C4A10430   4.048   7.945   8.089  0.2357  0.3879 -0.1447
  746POPS   C1B10431   4.135   7.581   6.846  0.2105 -0.2134  0.2796
  746POPS   C2B10432   4.457   7.382   7.107 -0.3739  0.2827 -0.0498
  746POPS   C3B10433   4.408   7.478   7.546  0.1930  0.1963  0.1187
  746POPS   C4B10434   4.411   7.528   8.022  0.4232  0.3591 -0.1312
  747POPS   CNO10435   9.672  16.128   5.630 -0.1217  0.2598  0.0178
  747POPS   PO410436   9.481  16.015   5.267 -0.0604  0.0804 -0.0107
  747POPS   GL110437   9.273  15.845   5.725 -0.1466 -0.2586  0.2025
  747POPS   GL210438   8.977  15.562   5.802  0.1510  0.0700 -0.2347
  747POPS   C1A10439   9.002  16.019   6.048 -0.0495  0.0223 -0.0424
  747POPS   D2A10440   8.999  15.856   6.381  0.4775 -0.1607 -0.2873
  747POPS   C3A10441   8.796  16.124   6.709  0.1919 -0.4502  0.2893
  747POPS   C4A10442   8.448  16.086   6.961  0.1565 -0.1147 -0.1791
  747POPS   C1B10443   9.193  15.421   6.128  0.0956 -0.3740  0.1319
  747POPS   C2B10444   9.399  15.567   6.571  0.0734  0.2963  0.3368
  747POPS   C3B10445   9.569  15.635   6.937 -0.3233  0.1335 -0.3781
  747POPS   C4B10446   9.385  15.625   7.414  0.3279 -0.1414  0.1282
  748POPS   CNO10447   2.502  15.214   5.538 -0.1395 -0.1247 -0.0559
  748POPS   PO410448   2.869  15.109   5.559 -0.0405  0.2838 -0.1554
  748POPS   GL110449   2.718  14.849   5.944 -0.0600  0.2403 -0.3181
  748POPS   GL210450   2.673  15.076   6.070 -0.0408  0.0631 -0.1954
  748POPS   C1A10451   2.517  14.608   6.320  0.3009  0.0665  0.0183
  748POPS   D2A10452   2.635  14.276   6.656 -0.0312  0.1838 -0.0456
  748POPS   C3A10453   2.516  14.368   7.128 -0.0803  0.0466 -0.2173
  748POPS   C4A10454   2.465  14.789   7.265  0.0452 -0.0194 -0.0559
  748POPS   C1B10455   2.694  15.102   6.523 -0.1700 -0.0824  0.1560
  748POPS   C2B10456   2.829  15.133   6.951  0.4882  0.3657 -0.2152
  748POPS   C3B10457   2.815  15.133   7.403 -0.1236  0.4195  0.2881
  748POPS   C4B10458   2.920  15.091   7.783  0.0785  0.0852 -0.0554
  749POPS   CNO10459   0.286   5.813   5.680  0.1346  0.0078 -0.2549
  749POPS   PO410460  -0.087   5.960   5.761  0.2411  0.0518  0.0364
  749POPS   GL110461  -0.047   5.930   6.161 -0.1268 -0.0420 -0.1784
  749POPS   GL210462  -0.061   5.603   6.320  0.1408 -0.3415  0.0782
  749POPS   C1A10463   0.053   5.979   6.603 -0.0063 -0.0402 -0.0409
  749POPS   D2A10464   0.172   5.975   6.958  0.0667  0.0401  0.1779
  749POPS   C3A10465  -0.035   6.111   7.247  0.1032 -0.0930  0.1395
  749POPS   C4A10466   0.233   6.131   7.550 -0.0873  0.0269 -0.0091
  749POPS   C1B10467  -0.049   5.513   6.788  0.2198  0.0381  0.0079
  749POPS   C2B10468  -0.076   5.287   7.153 -0.0115  0.1926 -0.0525
  749POPS   C3B10469  -0.034   5.476   7.498  0.1971  0.0660 -0.1526
  749POPS   C4B10470   0.012   5.505   7.884 -0.1118  0.0127 -0.1039
  750POPS   CNO10471   7.936   8.640   5.573  0.0655  0.0031 -0.2228
  750POPS   PO410472   7.943   8.383   5.808  0.0629 -0.0083  0.2239
  750POPS   GL110473   8.124   8.331   6.203  0.1197 -0.2138  0.1817
  750POPS   GL210474   8.004   8.525   6.443 -0.1484  0.2556 -0.0731
  750POPS   C1A10475   8.575   8.301   6.379 -0.0027 -0.3239  0.2858
  750POPS   D2A10476   8.806   8.443   6.768  0.0408  0.0761  0.2381
  750POPS   C3A10477   9.010   8.353   7.171 -0.1404  0.0375  0.1731
  750POPS   C4A10478   9.308   8.204   7.548 -0.0456  0.2199 -0.1899
  750POPS   C1B10479   8.319   8.668   6.737 -0.1555  0.0023  0.2694
  750POPS   C2B10480   8.634   8.855   7.013  0.4493 -0.1368  0.1133
  750POPS   C3B10481   8.901   8.886   7.365  0.1119 -0.1139 -0.1830
  750POPS   C4B10482   9.184   8.696   7.571  0.0203 -0.3163  0.2168
  751POPS   CNO10483   7.435  13.250   5.550  0.3210  0.5117 -0.2256
  751POPS   PO410484   7.032  13.258   5.743 -0.1569 -0.1031 -0.0410
  751POPS   GL110485   6.989  13.170   6.153 -0.2093  0.0100  0.0570
  751POPS   GL210486   6.692  13.286   6.235 -0.0605  0.0886  0.0178
  751POPS   C1A10487   6.977  12.827   6.470  0.1670  0.1646 -0.1147
  751POPS   D2A10488   7.130  12.669   6.834 -0.0166  0.1172  0.1252
  751POPS   C3A10489   7.067  12.720   7.253 -0.0417 -0.1161 -0.3306
  751POPS   C4A10490   7.339  12.579   7.696 -0.2113 -0.5624 -0.2355
  751POPS   C1B10491   6.781  13.240   6.658  0.1025  0.0759 -0.2223
  751POPS   C2B10492   7.049  13.166   6.955 -0.0174 -0.1387 -0.4635
  751POPS   C3B10493   7.135  13.175   7.528  0.3303  0.0630 -0.0740
  751POPS   C4B10494   7.153  13.434   7.845  0.0957 -0.2393  0.1834
  752POPS   CNO10495   3.980   9.070   5.932 -0.4002  0.0318 -0.0086
  752POPS   PO410496   3.562   9.155   5.949 -0.1059  0.1220  0.1669
  752POPS   GL110497   3.601   8.982   6.314  0.2153  0.1492  0.0816
  752POPS   GL210498   3.255   8.949   6.447 -0.1438 -0.2276 -0.1622
  752POPS   C1A10499   3.759   9.084   6.689 -0.0821 -0.1666 -0.0096
  752POPS   D2A10500   4.000   8.960   6.938 -0.0903  0.1754  0.0822
  752POPS   C3A10501   4.087   9.044   7.294 -0.1277 -0.0945  0.0691
  752POPS   C4A10502   4.053   9.189   7.589  0.1791 -0.0174  0.3209
  752POPS   C1B10503   3.508   8.593   6.767 -0.1054 -0.1414  0.2200
  752POPS   C2B10504   3.769   8.605   7.179 -0.0439  0.1617  0.0587
  752POPS   C3B10505   3.902   8.676   7.627  0.0751  0.2042 -0.0801
  752POPS   C4B10506   4.112   8.822   7.905  0.2684 -0.1202  0.0895
  753POPS   CNO10507  17.085  13.075   6.030 -0.0210 -0.1889  0.0486
  753POPS   PO410508  17.304  13.047   5.696  0.0371  0.0447  0.3270
  753POPS   GL110509  17.509  12.803   6.031 -0.0908 -0.0713  0.2492
  753POPS   GL210510  17.630  13.042   6.195 -0.0617 -0.1811  0.0983
  753POPS   C1A10511  17.547  12.600   6.421 -0.1289  0.0008  0.0970
  753POPS   D2A10512  17.270  12.485   6.714 -0.0318  0.3704  0.1597
  753POPS   C3A10513  17.140  12.862   7.018  0.0381 -0.1600  0.0633
  753POPS   C4A10514  16.818  13.173   7.087  0.0745 -0.1418  0.1283
  753POPS   C1B10515  17.479  13.171   6.497  0.2374  0.0595  0.1898
  753POPS   C2B10516  17.508  13.108   6.854 -0.1281 -0.1254 -0.3070
  753POPS   C3B10517  17.459  13.180   7.295 -0.3601  0.2966  0.0798
  753POPS   C4B10518  17.146  13.339   7.515  0.0270 -0.2784 -0.3446
  754POPS   CNO10519   7.698  17.098   5.204  0.1380  0.1450  0.0319
  754POPS   PO410520   7.351  17.344   5.225  0.0715  0.3333 -0.1735
  754POPS   GL110521   7.424  17.353   5.666  0.0582  0.0856  0.2755
  754POPS   GL210522   7.235  17.113   5.837 -0.1050  0.0733 -0.1902
  754POPS   C1A10523   7.654  17.320   6.042 -0.0521 -0.0677 -0.2968
  754POPS   D2A10524   8.001  17.006   6.167  0.0286 -0.0115  0.0418
  754POPS   C3A10525   8.121  17.107   6.661 -0.2097  0.0813  0.0135
  754POPS   C4A10526   8.521  17.334   6.754  0.4444  0.1197  0.5073
  754POPS   C1B10527   7.538  16.872   6.144 -0.0730  0.1141  0.0904
  754POPS   C2B10528   7.684  16.671   6.493  0.3073 -0.0297 -0.2416
  754POPS   C3B10529   7.596  16.612   6.836 -0.0846  0.1083  0.4135
  754POPS   C4B10530   7.301  16.598   7.153  0.4554  0.1773 -0.2561
  755POPS   CNO10531   6.051  12.356   5.652 -0.3383 -0.0223  0.0092
  755POPS   PO410532   6.452  12.480   5.740 -0.1021 -0.0459 -0.1027
  755POPS   GL110533   6.243  12.598   6.114  0.1360 -0.0102 -0.0289
  755POPS   GL210534   6.100  12.782   6.077 -0.2961 -0.0946 -0.1861
  755POPS   C1A10535   6.491  12.880   6.408 -0.0927 -0.0053 -0.0483
  755POPS   D2A10536   6.615  12.762   6.851 -0.1492 -0.0177  0.2135
  755POPS   C3A10537   6.583  13.183   7.109  0.1370 -0.1937  0.0499
  755POPS   C4A10538   6.668  13.368   7.604  0.1169 -0.0816  0.1472
  755POPS   C1B10539   6.022  13.055   6.400  0.1807 -0.1048 -0.1642
  755POPS   C2B10540   6.105  12.934   6.794  0.1942 -0.0595  0.3621
  755POPS   C3B10541   6.263  12.845   7.275 -0.2821  0.0864  0.0015
  755POPS   C4B10542   6.591  12.582   7.399  0.0485 -0.2267  0.2346
  756POPS   CNO10543  14.198  11.439   5.039  0.0843 -0.0689 -0.2481
  756POPS   PO410544  14.416  11.589   5.382 -0.0164 -0.0397  0.2660
  756POPS   GL110545  14.407  11.777   5.783  0.1311 -0.3486 -0.4203
  756POPS   GL210546  14.622  11.760   6.075  0.2358 -0.0088 -0.0486
  756POPS   C1A10547  14.149  11.625   6.261 -0.0125  0.2368 -0.1829
  756POPS   D2A10548  14.282  11.868   6.607 -0.1608 -0.1945  0.1368
  756POPS   C3A10549  14.671  12.052   6.595 -0.5431  0.2255 -0.2206
  756POPS   C4A10550  14.845  12.132   7.099  0.0507 -0.0088 -0.0182
  756POPS   C1B10551  14.996  11.774   6.376 -0.3025  0.1123  0.0732
  756POPS   C2B10552  15.077  11.812   6.747 -0.1526  0.2052  0.0984
  756POPS   C3B10553  15.131  11.672   7.157 -0.0166 -0.1059  0.1681
  756POPS   C4B10554  15.321  11.327   7.451 -0.1800 -0.1333  0.0261
  757POPS   CNO10555   0.864  14.665   5.358  0.0336 -0.1700  0.0344
  757POPS   PO410556   0.837  14.198   5.518 -0.1576  0.0551  0.4491
  757POPS   GL110557   0.926  14.376   5.859 -0.0920  0.3796  0.1652
  757POPS   GL210558   0.873  14.703   5.911 -0.2863 -0.1870  0.0973
  757POPS   C1A10559   1.038  14.381   6.305 -0.0940  0.1313  0.1475
  757POPS   D2A10560   1.160  14.219   6.698  0.1244  0.1601  0.1751
  757POPS   C3A10561   1.061  14.217   7.053 -0.0512  0.2907 -0.1122
  757POPS   C4A10562   0.651  14.273   7.238 -0.2059  0.1867 -0.1913
  757POPS   C1B10563   1.186  14.877   6.054 -0.1942  0.1034  0.3987
  757POPS   C2B10564   1.371  15.079   6.353 -0.1206  0.2759  0.0398
  757POPS   C3B10565   1.314  15.412   6.655 -0.0317 -0.2648  0.0212
  757POPS   C4B10566   1.518  15.796   6.765  0.3423  0.0472 -0.0229
  758POPS   CNO10567   9.311  12.875   4.903  0.0941 -0.1825  0.0833
  758POPS   PO410568   9.250  12.595   5.158  0.1129 -0.0004  0.3075
  758POPS   GL110569   9.317  12.286   5.445  0.2347  0.1358 -0.0709
  758POPS   GL210570   9.429  12.467   5.715  0.1117  0.5530  0.0211
  758POPS   C1A10571   9.301  11.959   5.863  0.2099  0.1124 -0.1796
  758POPS   D2A10572   9.393  12.120   6.195 -0.0819 -0.0572 -0.3449
  758POPS   C3A10573   9.221  12.439   6.338 -0.1430 -0.3329  0.0322
  758POPS   C4A10574   9.333  12.815   6.568  0.0045 -0.2431 -0.1853
  758POPS   C1B10575   9.430  12.833   6.086  0.0720 -0.1416  0.1110
  758POPS   C2B10576   9.578  13.257   6.176 -0.2401  0.1212  0.0082
  758POPS   C3B10577   9.319  13.561   6.439  0.5034 -0.1813  0.0689
  758POPS   C4B10578   9.150  13.932   6.597  0.0658 -0.1045  0.3618
  759POPS   CNO10579  16.756  18.408   5.181  0.0981  0.1266 -0.2680
  759POPS   PO410580  16.539  18.604   5.577 -0.3062  0.1059 -0.1016
  759POPS   GL110581  16.590  18.530   6.122 -0.0743 -0.0185  0.4690
  759POPS   GL210582  16.869  18.279   6.167  0.1302  0.1179  0.0895
  759POPS   C1A10583  16.776  18.727   6.516 -0.3005  0.0666 -0.1156
  759POPS   D2A10584  16.633  18.566   6.898 -0.1991 -0.0493  0.3107
  759POPS   C3A10585  16.948  18.556   7.275  0.0287  0.3943  0.0278
  759POPS   C4A10586  17.032  18.748   7.594 -0.2704  0.0752  0.1421
  759POPS   C1B10587  16.786  18.151   6.663  0.1261 -0.1759  0.5299
  759POPS   C2B10588  16.872  18.035   6.991  0.0828 -0.2858 -0.1426
  759POPS   C3B10589  17.004  18.001   7.373 -0.1219 -0.0362 -0.1034
  759POPS   C4B10590  17.160  17.957   7.731 -0.1621 -0.2355  0.0699
  760POPS   CNO10591  12.435   5.851   5.926  0.0569 -0.0536 -0.0680
  760POPS   PO410592  12.092   5.689   5.752  0.0543 -0.0318 -0.0799
  760POPS   GL110593  11.992   5.460   6.123  0.1593  0.1586 -0.2931
  760POPS   GL210594  11.683   5.543   6.242  0.3600 -0.1771 -0.0930
  760POPS   C1A10595  11.937   5.227   6.581 -0.1298  0.2423  0.0871
  760POPS   D2A10596  11.652   4.961   6.735  0.1463 -0.1284 -0.1477
  760POPS   C3A10597  11.567   5.196   7.193 -0.1266  0.2341  0.3326
  760POPS   C4A10598  11.271   5.263   7.474 -0.0804  0.0834  0.2388
  760POPS   C1B10599  11.433   5.269   6.406  0.2290 -0.2620  0.1614
  760POPS   C2B10600  11.184   5.017   6.604  0.0245  0.1632 -0.0852
  760POPS   C3B10601  10.778   4.866   6.777  0.0193 -0.0428  0.0697
  760POPS   C4B10602  10.517   4.769   7.045  0.2100  0.2781 -0.0637
  761POPS   CNO10603   9.551   1.100   5.398 -0.2677  0.3318  0.1011
  761POPS   PO410604   9.501   0.698   5.333 -0.2026 -0.1332  0.0784
  761POPS   GL110605   9.175   0.713   5.589 -0.1562 -0.0179 -0.2179
  761POPS   GL210606   9.370   0.937   5.887  0.2142 -0.1392 -0.2649
  761POPS   C1A10607   8.875   0.551   5.887  0.0635 -0.1357  0.0201
  761POPS   D2A10608   8.794   0.392   6.308  0.0835  0.1350  0.3352
  761POPS   C3A10609   8.850   0.412   6.798 -0.0315  0.0094 -0.4740
  761POPS   C4A10610   8.756   0.284   7.216 -0.2473  0.0390  0.2992
  761POPS   C1B10611   9.221   0.682   6.167  0.2279  0.4230 -0.1376
  761POPS   C2B10612   9.344   0.591   6.646  0.3667 -0.0595 -0.1162
  761POPS   C3B10613   9.187   0.524   7.166 -0.4000  0.0350 -0.1660
  761POPS   C4B10614   9.104   0.388   7.528  0.4140  0.1055  0.1988
  762POPS   CNO10615   8.230   0.468   5.188  0.0783  0.0574 -0.5347
  762POPS   PO410616   8.250  -0.011   5.355  0.0765 -0.1783  0.0113
  762POPS   GL110617   8.272  -0.123   5.716  0.0761  0.1363  0.2434
  762POPS   GL210618   8.526   0.045   5.768  0.2028 -0.0485  0.0865
  762POPS   C1A10619   8.408  -0.468   5.999 -0.1307 -0.0105 -0.0116
  762POPS   D2A10620   8.420  -0.687   6.401 -0.0373  0.1402  0.1063
  762POPS   C3A10621   8.867  -0.634   6.763  0.0576 -0.3676 -0.4247
  762POPS   C4A10622   9.133  -0.466   7.171  0.5749  0.3886  0.0798
  762POPS   C1B10623   8.399  -0.015   6.174 -0.1222  0.0417 -0.2248
  762POPS   C2B10624   8.585  -0.116   6.468 -0.0522  0.0514 -0.2663
  762POPS   C3B10625   8.700  -0.239   6.944 -0.0455 -0.1762  0.0048
  762POPS   C4B10626   8.615  -0.332   7.378  0.0176  0.0868  0.0531
  763POPS   CNO10627   7.841  10.682   5.112  0.0314  0.0685 -0.0810
  763POPS   PO410628   8.104  10.589   5.482 -0.1931 -0.1169  0.3405
  763POPS   GL110629   8.135  10.656   5.942  0.2036  0.1087 -0.0636
  763POPS   GL210630   8.079  10.411   6.138  0.2945  0.1725 -0.1199
  763POPS   C1A10631   8.510  10.569   6.253 -0.4890  0.2621 -0.0680
  763POPS   D2A10632   8.689  10.673   6.610 -0.1057  0.2445  0.3971
  763POPS   C3A10633   8.844  11.085   6.424  0.2470 -0.0133  0.2921
  763POPS   C4A10634   9.048  11.406   6.647  0.1343  0.2322  0.0081
  763POPS   C1B10635   8.185  10.496   6.594  0.2044  0.2523 -0.1736
  763POPS   C2B10636   8.448  10.454   6.994  0.0444 -0.0880  0.0652
  763POPS   C3B10637   8.694  10.335   7.383  0.0311  0.0303 -0.0076
  763POPS   C4B10638   8.710  10.397   7.836 -0.0990  0.0613  0.4375
  764POPS   CNO10639   6.820  16.482   4.775  0.2513 -0.0856 -0.0222
  764POPS   PO410640   7.239  16.575   4.874  0.1277  0.1469  0.0289
  764POPS   GL110641   7.021  16.174   5.113 -0.3132  0.1720  0.0401
  764POPS   GL210642   7.014  16.309   5.498  0.0701  0.2283  0.3316
  764POPS   C1A10643   6.712  15.911   5.478 -0.0670 -0.1726 -0.2776
  764POPS   D2A10644   6.448  15.970   5.821  0.1409 -0.2597  0.3044
  764POPS   C3A10645   6.145  15.677   5.724 -0.1447 -0.0757 -0.2859
  764POPS   C4A10646   5.969  15.331   5.908 -0.3547 -0.0506 -0.3175
  764POPS   C1B10647   7.169  16.543   5.917  0.0590 -0.0115 -0.4823
  764POPS   C2B10648   7.099  16.732   6.283 -0.0588 -0.0473 -0.2139
  764POPS   C3B10649   7.161  16.843   6.729 -0.0084 -0.2611  0.1062
  764POPS   C4B10650   7.423  17.054   7.020  0.0262  0.1225  0.1209
  765POPS   CNO10651  16.292   8.973   5.669  0.0136  0.1962  0.1910
  765POPS   PO410652  15.899   8.785   5.872 -0.2725  0.2218  0.0139
  765POPS   GL110653  15.628   8.952   6.171  0.1251 -0.0242 -0.1456
  765POPS   GL210654  15.752   8.663   6.376  0.0535 -0.0530  0.0120
  765POPS   C1A10655  15.666   9.064   6.633 -0.1120  0.2380  0.1239
  765POPS   D2A10656  15.639   9.367   7.029  0.0698 -0.0612 -0.0316
  765POPS   C3A10657  15.549   9.422   7.482 -0.2698 -0.3255 -0.2898
  765POPS   C4A10658  15.520   9.205   8.009 -0.3811  0.0158 -0.3709
  765POPS   C1B10659  16.067   8.620   6.685 -0.1228 -0.0622 -0.1485
  765POPS   C2B10660  16.096   8.653   7.120 -0.0653  0.0270  0.2139
  765POPS   C3B10661  16.260   8.835   7.408 -0.1980  0.0033 -0.1065
  765POPS   C4B10662  16.337   9.085   7.692 -0.1305 -0.0157 -0.2987
  766POPS   CNO10663   7.085   6.500   5.716  0.2523  0.2577  0.0842
  766POPS   PO410664   7.366   6.605   5.977  0.0711 -0.0339  0.0720
  766POPS   GL110665   7.440   6.324   6.359  0.0643  0.0414 -0.1025
  766POPS   GL210666   7.274   6.583   6.499 -0.0227  0.2216 -0.2693
  766POPS   C1A10667   7.561   6.258   6.700  0.1671 -0.2709 -0.0734
  766POPS   D2A10668   7.746   6.187   7.168  0.1033  0.2840 -0.1008
  766POPS   C3A10669   7.652   6.312   7.541  0.0421  0.1323  0.1225
  766POPS   C4A10670   7.589   6.514   7.934 -0.0738 -0.0350 -0.0916
  766POPS   C1B10671   7.384   6.582   7.015 -0.2773 -0.4890  0.2339
  766POPS   C2B10672   7.378   6.724   7.423 -0.0504 -0.0359  0.0407
  766POPS   C3B10673   6.958   6.745   7.615  0.1127  0.1260  0.1928
  766POPS   C4B10674   7.190   7.086   7.882 -0.0249 -0.1598  0.1013
  767POPS   CNO10675  16.037  16.320   5.512  0.0304  0.1845  0.0595
  767POPS   PO410676  15.719  16.093   5.413  0.1592 -0.1021 -0.0641
  767POPS   GL110677  15.506  16.050   5.813 -0.1614 -0.1480 -0.0442
  767POPS   GL210678  15.677  15.764   6.024  0.1029  0.0975  0.1428
  767POPS   C1A10679  15.451  16.310   6.234  0.2897 -0.2176  0.2142
  767POPS   D2A10680  15.387  16.308   6.658  0.0042 -0.0068  0.1674
  767POPS   C3A10681  15.392  16.606   7.039  0.0799  0.0870  0.1772
  767POPS   C4A10682  15.279  16.683   7.514  0.1268  0.1021  0.0864
  767POPS   C1B10683  15.608  15.899   6.493  0.2417  0.0724 -0.0424
  767POPS   C2B10684  15.625  15.671   6.858  0.1672  0.1936 -0.0278
  767POPS   C3B10685  15.587  15.582   7.346 -0.0363  0.4956  0.1673
  767POPS   C4B10686  15.669  15.658   7.729 -0.0241  0.2077 -0.3287
  768POPS   CNO10687  17.222  16.638   5.497  0.0979  0.0851 -0.0376
  768POPS   PO410688  17.104  16.300   5.692  0.0048 -0.0473  0.2773
  768POPS   GL110689  17.212  16.240   6.160 -0.1319 -0.0599  0.1521
  768POPS   GL210690  17.062  16.454   6.314 -0.0256 -0.3122 -0.0060
  768POPS   C1A10691  17.294  16.111   6.580  0.0159  0.1294  0.0457
  768POPS   D2A10692  17.333  15.986   7.016  0.0508  0.1853  0.0055
  768POPS   C3A10693  17.373  16.289   7.209 -0.1527  0.3662  0.4194
  768POPS   C4A10694  17.515  16.385   7.635 -0.0512  0.0397  0.2688
  768POPS   C1B10695  17.266  16.589   6.700 -0.1860 -0.4341 -0.0657
  768POPS   C2B10696  17.370  16.782   7.116 -0.0316 -0.1214  0.1028
  768POPS   C3B10697  17.203  16.808   7.476 -0.1256  0.0629 -0.0076
  768POPS   C4B10698  17.084  16.583   7.721 -0.2156  0.1752 -0.1770
  769POPS   CNO10699   3.817  12.145   5.802  0.1214 -0.1724  0.3000
  769POPS   PO410700   3.784  12.623   5.985  0.4331  0.0882  0.3161
  769POPS   GL110701   3.624  12.340   6.361 -0.1539 -0.1944 -0.0665
  769POPS   GL210702   3.744  11.965   6.286  0.1409 -0.0774  0.2447
  769POPS   C1A10703   3.695  12.245   6.762 -0.4671  0.0962  0.2052
  769POPS   D2A10704   3.638  12.195   7.172 -0.0877  0.0389  0.0741
  769POPS   C3A10705   3.491  11.836   7.297  0.2310  0.1188 -0.3077
  769POPS   C4A10706   3.286  11.515   7.552 -0.0775 -0.1476 -0.0081
  769POPS   C1B10707   3.374  11.853   6.694 -0.0232  0.0194 -0.0105
  769POPS   C2B10708   3.391  11.542   6.942 -0.0514 -0.0321 -0.0540
  769POPS   C3B10709   3.032  11.340   7.177 -0.3253 -0.0105  0.0757
  769POPS   C4B10710   2.525  11.168   7.243 -0.2048  0.0092  0.0086
  770POPS   CNO10711  16.767  12.250   5.508 -0.1691  0.2624  0.0880
  770POPS   PO410712  16.366  12.201   5.463  0.0759  0.4349  0.0340
  770POPS   GL110713  16.281  12.040   5.811 -0.0239  0.1673  0.0790
  770POPS   GL210714  16.125  12.334   6.097 -0.3636  0.1124 -0.2251
  770POPS   C1A10715  16.028  11.641   6.058 -0.0896 -0.0065 -0.3102
  770POPS   D2A10716  15.844  11.432   6.388 -0.3627 -0.1648  0.2774
  770POPS   C3A10717  15.874  11.722   6.710 -0.0149  0.0837  0.5179
  770POPS   C4A10718  15.815  11.946   6.954 -0.0240  0.1276 -0.0096
  770POPS   C1B10719  16.207  12.050   6.390  0.0950 -0.0265 -0.2243
  770POPS   C2B10720  16.556  11.917   6.635 -0.1170 -0.2590 -0.1038
  770POPS   C3B10721  16.763  11.889   7.066  0.2410 -0.1040  0.2791
  770POPS   C4B10722  16.687  11.878   7.505  0.2201  0.0033  0.1423
  771POPS   CNO10723   5.267  17.307   5.316  0.0241  0.4091  0.1398
  771POPS   PO410724   5.066  17.611   5.362 -0.1562  0.0241 -0.1634
  771POPS   GL110725   5.102  17.536   5.753  0.1378  0.0619 -0.0851
  771POPS   GL210726   5.003  17.866   5.909 -0.0808 -0.5018  0.0034
  771POPS   C1A10727   5.204  17.311   6.121  0.1521  0.0474  0.0729
  771POPS   D2A10728   5.172  17.219   6.531  0.0230 -0.4963 -0.1187
  771POPS   C3A10729   4.932  17.497   6.747 -0.1159  0.0576  0.0604
  771POPS   C4A10730   4.932  17.546   7.157  0.0100  0.1097 -0.4577
  771POPS   C1B10731   5.049  17.704   6.327 -0.0370 -0.2609  0.1302
  771POPS   C2B10732   5.310  17.927   6.563 -0.0988  0.1112 -0.0764
  771POPS   C3B10733   5.255  18.030   7.021 -0.1451 -0.0115 -0.1554
  771POPS   C4B10734   5.122  17.994   7.360  0.2012  0.0881  0.1031
  772POPS   CNO10735   6.653   4.948   5.632  0.3109  0.1837  0.0325
  772POPS   PO410736   6.924   5.059   5.944  0.3388  0.0734  0.0184
  772POPS   GL110737   6.700   5.139   6.328 -0.2761  0.3770  0.3650
  772POPS   GL210738   6.427   5.083   6.572  0.3061  0.3145 -0.2642
  772POPS   C1A10739   6.913   5.028   6.815  0.1108 -0.2700 -0.1574
  772POPS   D2A10740   7.434   4.928   6.890 -0.4428  0.1211 -0.2245
  772POPS   C3A10741   7.747   5.211   6.953  0.1575 -0.0445 -0.1199
  772POPS   C4A10742   8.108   4.934   6.851 -0.3609 -0.1209  0.1437
  772POPS   C1B10743   6.442   5.190   7.060 -0.0833  0.1865 -0.0734
  772POPS   C2B10744   6.442   5.411   7.400 -0.0777 -0.1428  0.0552
  772POPS   C3B10745   6.297   5.487   7.777 -0.0468 -0.1613 -0.0643
  772POPS   C4B10746   6.053   5.554   8.128 -0.3847  0.0410  0.0937
  773POPS   CNO10747   4.458   3.429   5.815 -0.1079 -0.0900  0.2400
  773POPS   PO410748   4.831   3.392   6.161 -0.2961  0.1316  0.1087
  773POPS   GL110749   4.791   3.496   6.545 -0.4704  0.0388  0.0855
  773POPS   GL210750   4.480   3.757   6.689  0.0289 -0.0344  0.3637
  773POPS   C1A10751   4.986   3.383   6.899 -0.0977  0.1200  0.2455
  773POPS   D2A10752   4.973   3.327   7.384 -0.0671 -0.1958 -0.3243
  773POPS   C3A10753   5.391   3.268   7.585  0.2626  0.0153 -0.0940
  773POPS   C4A10754   5.416   2.979   7.949  0.1784 -0.1991  0.0911
  773POPS   C1B10755   4.660   3.673   7.148  0.1598 -0.3865  0.0351
  773POPS   C2B10756   4.770   3.833   7.580  0.1584  0.0505  0.1286
  773POPS   C3B10757   4.503   3.844   7.906 -0.0286 -0.2074 -0.0518
  773POPS   C4B10758   4.522   3.962   8.331 -0.1409  0.3899 -0.0713
  774POPS   CNO10759   9.280  14.744   4.978  0.2702  0.3333 -0.1220
  774POPS   PO410760   9.511  14.619   5.167 -0.2077  0.1140  0.1261
  774POPS   GL110761   9.789  14.496   5.560 -0.1731 -0.2033 -0.1515
  774POPS   GL210762   9.664  14.861   5.855  0.1800 -0.3840 -0.0835
  774POPS   C1A10763   9.653  14.291   5.885 -0.2351 -0.0666  0.1874
  774POPS   D2A10764   9.468  14.579   6.264  0.5676  0.2270  0.1268
  774POPS   C3A10765   9.352  14.987   6.264 -0.2990  0.1747 -0.0223
  774POPS   C4A10766   9.080  15.034   6.470  0.0224  0.1705 -0.1368
  774POPS   C1B10767   9.975  14.636   6.143  0.2766 -0.2295  0.3104
  774POPS   C2B10768  10.051  14.356   6.572  0.1779 -0.0639  0.2099
  774POPS   C3B10769   9.990  14.153   6.879 -0.1854 -0.0364  0.1466
  774POPS   C4B10770   9.995  13.961   7.344  0.0951 -0.6663  0.1100
  775POPS   CNO10771   0.474  16.361   5.663  0.0048  0.1317  0.2878
  775POPS   PO410772   0.704  16.799   5.583  0.0189 -0.0096  0.0310
  775POPS   GL110773   0.819  16.626   5.923  0.2450 -0.1965  0.0998
  775POPS   GL210774   0.595  16.804   6.036 -0.0647 -0.0777 -0.2995
  775POPS   C1A10775   0.837  16.646   6.395 -0.0661  0.1749  0.3056
  775POPS   D2A10776   0.751  16.605   6.811 -0.1755 -0.2149 -0.1009
  775POPS   C3A10777   0.900  16.286   7.141 -0.2013 -0.1590  0.0650
  775POPS   C4A10778   1.076  16.058   7.432 -0.2390 -0.2627  0.0917
  775POPS   C1B10779   0.488  16.930   6.469  0.0971  0.6104 -0.1629
  775POPS   C2B10780   0.426  16.975   6.894  0.0682 -0.1523 -0.1769
  775POPS   C3B10781   0.622  17.161   7.356  0.1222 -0.0585 -0.0326
  775POPS   C4B10782   0.780  17.194   7.802  0.3256  0.0053  0.0376
  776POPS   CNO10783  10.670   5.509   5.772  0.1321  0.1781  0.1652
  776POPS   PO410784  10.233   5.543   5.595  0.0916  0.1710 -0.1670
  776POPS   GL110785  10.236   5.352   6.027 -0.0775 -0.2317  0.0969
  776POPS   GL210786   9.989   5.272   6.224 -0.1096 -0.2077 -0.0435
  776POPS   C1A10787  10.540   5.623   6.260 -0.0539  0.3538 -0.1716
  776POPS   D2A10788  10.322   5.915   6.512  0.0170  0.2593 -0.1288
  776POPS   C3A10789  10.065   6.012   6.924  0.4088  0.3717  0.1762
  776POPS   C4A10790  10.139   5.957   7.383 -0.3840  0.0573 -0.1637
  776POPS   C1B10791  10.027   5.458   6.605  0.0766 -0.2819  0.1947
  776POPS   C2B10792  10.213   5.539   6.980 -0.1164 -0.0021  0.1418
  776POPS   C3B10793  10.295   5.530   7.452  0.1155  0.0835  0.1642
  776POPS   C4B10794  10.734   5.438   7.737 -0.0121  0.0837 -0.3260
  777POPS   CNO10795   5.780  12.702   5.258  0.2051  0.1452 -0.1396
  777POPS   PO410796   5.660  12.640   5.681  0.0271  0.0919 -0.0212
  777POPS   GL110797   5.639  12.539   6.142 -0.1240  0.0324 -0.3287
  777POPS   GL210798   5.849  12.335   6.236 -0.1704  0.0042  0.1998
  777POPS   C1A10799   5.490  12.910   6.436 -0.1606 -0.1253  0.2499
  777POPS   D2A10800   5.666  13.167   6.757 -0.0113  0.3130  0.3062
  777POPS   C3A10801   5.981  13.237   7.166  0.1111  0.3556 -0.0287
  777POPS   C4A10802   6.178  13.392   7.546 -0.0426  0.1543 -0.1133
  777POPS   C1B10803   5.826  12.583   6.597 -0.3257  0.1948  0.1788
  777POPS   C2B10804   5.620  12.715   6.892  0.0833  0.2540 -0.0073
  777POPS   C3B10805   5.489  13.030   7.254  0.3111 -0.2453 -0.2820
  777POPS   C4B10806   5.734  13.161   7.647 -0.2998 -0.0703 -0.0257
  778POPS   CNO10807  10.630  16.011   5.502 -0.0415  0.0340  0.0874
  778POPS   PO410808  10.813  16.372   5.514  0.3604 -0.0790 -0.1817
  778POPS   GL110809  10.720  16.413   5.993  0.0877  0.1097 -0.3103
  778POPS   GL210810  10.551  16.664   6.052  0.0245 -0.1541 -0.1123
  778POPS   C1A10811  10.900  16.458   6.487  0.0789  0.3352  0.1913
  778POPS   D2A10812  10.861  16.334   6.971  0.2047  0.1460  0.1497
  778POPS   C3A10813  11.020  16.500   7.282 -0.0272  0.3385 -0.0285
  778POPS   C4A10814  10.958  16.708   7.659  0.2459 -0.1763  0.2621
  778POPS   C1B10815  10.489  16.735   6.489 -0.0124 -0.1314  0.0568
  778POPS   C2B10816  10.224  16.803   6.831  0.0670  0.4587  0.2055
  778POPS   C3B10817  10.083  16.814   7.319 -0.0887  0.1600 -0.0434
  778POPS   C4B10818  10.014  16.443   7.598 -0.0657 -0.2161 -0.1330
  779POPS   CNO10819   0.575   4.550   6.093  0.1517 -0.1594  0.0615
  779POPS   PO410820   1.071   4.415   6.118 -0.2437 -0.1680 -0.2444
  779POPS   GL110821   0.982   4.419   6.436 -0.1740  0.0318  0.0237
  779POPS   GL210822   0.756   4.101   6.503 -0.0660 -0.0133  0.2216
  779POPS   C1A10823   1.091   4.608   6.877 -0.1877 -0.3903 -0.2203
  779POPS   D2A10824   1.213   4.672   7.291  0.2205  0.3728  0.1500
  779POPS   C3A10825   1.100   4.627   7.645  0.2277 -0.1631  0.1210
  779POPS   C4A10826   0.979   4.704   8.022 -0.0532 -0.0807 -0.1407
  779POPS   C1B10827   0.642   4.067   7.006 -0.1167  0.2735 -0.0026
  779POPS   C2B10828   0.572   4.206   7.405 -0.1969  0.2170 -0.0426
  779POPS   C3B10829   0.695   4.272   7.759  0.2061 -0.1794  0.0109
  779POPS   C4B10830   0.820   4.276   8.241  0.1603 -0.2280 -0.1863
  780POPS   CNO10831   8.986  12.476   4.730 -0.1122 -0.0868  0.0960
  780POPS   PO410832   9.008  12.138   5.015 -0.3088  0.1492  0.0375
  780POPS   GL110833   8.780  12.219   5.532 -0.3200  0.0745  0.0253
  780POPS   GL210834   8.933  12.406   5.730  0.1142  0.1552 -0.0847
  780POPS   C1A10835   8.775  11.991   5.958  0.0890 -0.3670  0.1740
  780POPS   D2A10836   8.928  11.776   6.390  0.0592 -0.0223 -0.0897
  780POPS   C3A10837   8.733  11.927   6.709 -0.0397 -0.0339  0.1143
  780POPS   C4A10838   8.790  12.201   7.000 -0.2151 -0.1436  0.0125
  780POPS   C1B10839   8.703  12.507   6.106 -0.1820  0.0783 -0.0281
  780POPS   C2B10840   8.809  12.533   6.588  0.0350  0.1129  0.0586
  780POPS   C3B10841   8.952  12.752   7.012  0.2587  0.2202  0.0850
  780POPS   C4B10842   8.745  12.597   7.365 -0.0088  0.1474 -0.1984
  781POPS   CNO10843  18.071  14.536   5.154  0.0857 -0.0507  0.3305
  781POPS   PO410844  18.417  14.633   5.525  0.0598  0.1552  0.2186
  781POPS   GL110845  18.087  14.547   5.918 -0.2782 -0.1202  0.2324
  781POPS   GL210846  17.960  14.190   5.971 -0.3653  0.1035  0.0597
  781POPS   C1A10847  17.915  14.734   6.370  0.1289 -0.2754  0.1453
  781POPS   D2A10848  17.847  14.885   6.683 -0.2520  0.0128  0.0390
  781POPS   C3A10849  18.040  14.758   7.024  0.0477  0.0442  0.2689
  781POPS   C4A10850  18.090  14.513   7.446  0.3123 -0.1259  0.3004
  781POPS   C1B10851  17.835  14.176   6.357 -0.4115 -0.0137  0.1152
  781POPS   C2B10852  17.778  14.317   6.801  0.3465 -0.0609  0.3417
  781POPS   C3B10853  17.568  14.531   7.182 -0.1405 -0.1431  0.1466
  781POPS   C4B10854  17.153  14.615   7.375 -0.0187 -0.0017  0.3352
  782POPS   CNO10855  10.384   0.049   5.320 -0.0046 -0.1026 -0.1268
  782POPS   PO410856   9.932   0.058   5.484  0.0456 -0.0569 -0.1642
  782POPS   GL110857   9.766   0.390   5.627  0.1586  0.1799  0.1676
  782POPS   GL210858   9.474   0.195   5.692  0.1184  0.1939  0.0712
  782POPS   C1A10859   9.751   0.519   6.033 -0.0853  0.0688  0.2368
  782POPS   D2A10860   9.953   0.865   6.247 -0.1605 -0.3255  0.1670
  782POPS   C3A10861  10.205   0.913   6.612  0.0718  0.1850 -0.2443
  782POPS   C4A10862  10.416   0.838   6.942 -0.1982 -0.1545 -0.1382
  782POPS   C1B10863   9.488   0.110   6.111 -0.2439  0.1402 -0.3010
  782POPS   C2B10864   9.638  -0.090   6.598 -0.0957  0.0323 -0.2123
  782POPS   C3B10865  10.025  -0.164   6.904  0.2619 -0.0057 -0.1514
  782POPS   C4B10866  10.349  -0.153   7.232  0.1256 -0.0109 -0.1188
  783POPS   CNO10867  14.697   2.763   5.963 -0.2361  0.3370  0.1399
  783POPS   PO410868  14.280   2.630   6.137 -0.1153 -0.3006  0.4279
  783POPS   GL110869  14.151   2.479   6.513 -0.2157 -0.2383 -0.2054
  783POPS   GL210870  14.036   2.125   6.610 -0.2616 -0.1079 -0.0288
  783POPS   C1A10871  13.893   2.589   6.840 -0.1522  0.0463 -0.1972
  783POPS   D2A10872  13.740   2.651   7.215  0.4467 -0.0427 -0.0220
  783POPS   C3A10873  14.068   2.443   7.491 -0.3924  0.0202  0.0992
  783POPS   C4A10874  14.055   2.341   7.875  0.0796 -0.0455  0.2197
  783POPS   C1B10875  14.149   2.118   6.942 -0.0649 -0.1077 -0.1854
  783POPS   C2B10876  14.457   2.094   7.295  0.1265  0.1952 -0.3352
  783POPS   C3B10877  14.490   1.858   7.700 -0.1195 -0.0683 -0.0337
  783POPS   C4B10878  14.419   1.717   8.071  0.1478 -0.0616 -0.2875
  784POPS   CNO10879  13.522   7.736   5.825 -0.1012 -0.1585 -0.0426
  784POPS   PO410880  13.628   7.300   5.732 -0.2366 -0.0474  0.0814
  784POPS   GL110881  13.662   7.207   6.158 -0.1576 -0.0597 -0.3938
  784POPS   GL210882  13.871   7.471   6.225  0.2412 -0.3198  0.0274
  784POPS   C1A10883  13.551   7.215   6.566  0.0242  0.1272 -0.1131
  784POPS   D2A10884  13.147   7.216   6.924 -0.0968 -0.0506  0.1528
  784POPS   C3A10885  13.119   7.543   7.333 -0.0567 -0.1808  0.3781
  784POPS   C4A10886  12.968   7.639   7.753 -0.1236 -0.3797  0.1620
  784POPS   C1B10887  13.513   7.686   6.467  0.3620  0.1862 -0.1621
  784POPS   C2B10888  13.194   7.728   6.766 -0.0164  0.1489  0.2698
  784POPS   C3B10889  13.181   8.016   7.248  0.1087 -0.0797  0.1265
  784POPS   C4B10890  12.857   8.113   7.520  0.3391  0.1951 -0.0157
  785POPS   CNO10891   7.728  16.629   4.833 -0.1907 -0.3175  0.2282
  785POPS   PO410892   7.970  16.681   5.212 -0.0319  0.2577  0.3336
  785POPS   GL110893   8.119  16.646   5.665  0.0718  0.1060  0.1360
  785POPS   GL210894   7.932  16.507   5.999  0.4601 -0.0116 -0.0207
  785POPS   C1A10895   8.409  16.746   5.999  0.0690  0.1790 -0.0861
  785POPS   D2A10896   8.572  17.044   6.359  0.0854  0.3111 -0.2624
  785POPS   C3A10897   8.752  17.455   6.193  0.1561  0.1606  0.0826
  785POPS   C4A10898   8.870  17.938   6.272 -0.0251  0.0645 -0.2541
  785POPS   C1B10899   8.138  16.516   6.328 -0.2104  0.1115 -0.2090
  785POPS   C2B10900   8.226  16.451   6.744 -0.0711 -0.0368 -0.0856
  785POPS   C3B10901   8.340  16.439   7.313  0.1233 -0.0257 -0.1602
  785POPS   C4B10902   8.258  16.677   7.654 -0.3489 -0.5614 -0.0028
  786POPS   CNO10903   9.159   6.025   5.136  0.0068  0.1664  0.1551
  786POPS   PO410904   9.269   6.273   5.519  0.0266 -0.0055  0.0014
  786POPS   GL110905   9.217   6.334   5.949  0.0106  0.1768  0.2118
  786POPS   GL210906   9.077   6.112   6.198 -0.5402 -0.1179 -0.0182
  786POPS   C1A10907   9.229   6.551   6.341 -0.1516  0.2125 -0.0128
  786POPS   D2A10908   9.132   6.561   6.797  0.1337  0.3293  0.0949
  786POPS   C3A10909   9.308   6.569   7.104 -0.1505  0.0402  0.3350
  786POPS   C4A10910   9.267   6.787   7.640  0.1583  0.1649 -0.1808
  786POPS   C1B10911   9.176   6.036   6.648 -0.0179 -0.0233 -0.0670
  786POPS   C2B10912   9.058   5.924   7.081  0.0665  0.0849  0.2871
  786POPS   C3B10913   9.057   5.774   7.511  0.0274 -0.0697 -0.0231
  786POPS   C4B10914   8.971   5.532   7.720  0.0040  0.4163 -0.1997
  787POPS   CNO10915   1.238   6.900   6.087  0.1877  0.0888 -0.1514
  787POPS   PO410916   1.056   7.183   6.309 -0.0691  0.2350  0.2257
  787POPS   GL110917   1.360   7.342   6.643  0.2091  0.3123  0.0854
  787POPS   GL210918   1.654   7.392   6.692  0.0965  0.2798 -0.1539
  787POPS   C1A10919   1.364   7.172   7.071  0.3390 -0.1851 -0.2002
  787POPS   D2A10920   1.222   6.873   7.273  0.0722 -0.1978  0.2521
  787POPS   C3A10921   1.432   6.591   7.491  0.2336  0.2011  0.0222
  787POPS   C4A10922   1.601   6.174   7.262  0.0785 -0.2381  0.1650
  787POPS   C1B10923   1.907   7.319   7.092  0.1007 -0.3599  0.0481
  787POPS   C2B10924   1.732   7.379   7.509  0.1673 -0.1086  0.0633
  787POPS   C3B10925   1.743   7.695   7.938  0.3475 -0.0357  0.0630
  787POPS   C4B10926   1.840   7.655   8.407  0.0063 -0.1792  0.3951
  788POPS   CNO10927   6.573   6.252   5.863 -0.1658  0.0112  0.2145
  788POPS   PO410928   6.518   5.884   5.667 -0.0918  0.3055  0.1930
  788POPS   GL110929   6.388   5.848   6.096 -0.0525  0.0687 -0.1651
  788POPS   GL210930   6.579   5.669   6.235 -0.1188 -0.0104  0.0418
  788POPS   C1A10931   6.374   6.008   6.578 -0.2870 -0.1029 -0.0407
  788POPS   D2A10932   6.512   6.105   6.920 -0.1690  0.1270  0.0682
  788POPS   C3A10933   6.689   6.024   7.394  0.2690 -0.0707  0.0458
  788POPS   C4A10934   6.679   5.816   7.701 -0.1576  0.3211  0.0588
  788POPS   C1B10935   6.699   5.602   6.662  0.1137 -0.1557 -0.0345
  788POPS   C2B10936   6.737   5.649   7.025 -0.1523 -0.1553  0.4117
  788POPS   C3B10937   7.073   5.747   7.370  0.0130  0.0539  0.1247
  788POPS   C4B10938   7.216   5.766   7.736  0.0956 -0.0927  0.0189
  789POPS   CNO10939   0.603  11.977   5.450  0.2406  0.2503  0.0335
  789POPS   PO410940   0.682  11.884   5.898  0.1258  0.4283 -0.2112
  789POPS   GL110941   0.453  12.044   6.350 -0.1659 -0.0311  0.0711
  789POPS   GL210942   0.513  12.416   6.374 -0.2734  0.0441 -0.1067
  789POPS   C1A10943   0.152  11.899   6.688 -0.3714  0.0538 -0.0369
  789POPS   D2A10944  -0.068  11.789   7.135  0.1143  0.0582  0.0466
  789POPS   C3A10945   0.031  12.097   7.401 -0.0067  0.0857  0.1958
  789POPS   C4A10946  -0.180  12.184   7.813 -0.0813  0.0297  0.2652
  789POPS   C1B10947   0.348  12.476   6.746 -0.1467  0.0060  0.0163
  789POPS   C2B10948   0.445  12.502   7.188 -0.0476  0.1932 -0.2421
  789POPS   C3B10949   0.408  12.288   7.716 -0.1676 -0.0704  0.0045
  789POPS   C4B10950   0.251  12.147   8.042 -0.1038 -0.0781  0.2148
  790POPS   CNO10951   5.329   0.572   5.468 -0.0225 -0.3090  0.0427
  790POPS   PO410952   5.145   0.409   5.826 -0.2701  0.1309  0.1468
  790POPS   GL110953   5.148   0.237   6.147 -0.0052 -0.3877 -0.0858
  790POPS   GL210954   4.869   0.243   6.409 -0.2795  0.2220  0.0532
  790POPS   C1A10955   5.389   0.061   6.474 -0.3793 -0.0720 -0.0113
  790POPS   D2A10956   5.523  -0.094   6.866  0.3870 -0.2047  0.1448
  790POPS   C3A10957   5.303  -0.026   7.356 -0.2590 -0.0941 -0.0872
  790POPS   C4A10958   5.014   0.146   7.569 -0.4111 -0.0917  0.0215
  790POPS   C1B10959   4.711   0.418   6.703 -0.0565  0.1676 -0.1512
  790POPS   C2B10960   4.838   0.355   7.167 -0.0608 -0.2114 -0.2464
  790POPS   C3B10961   4.573   0.308   7.575  0.0280 -0.3171 -0.3455
  790POPS   C4B10962   4.326   0.083   7.836 -0.1272  0.4886  0.1741
  791POPS   CNO10963  12.752   4.212   5.931 -0.2235 -0.1010 -0.1795
  791POPS   PO410964  12.296   4.188   6.111  0.1135 -0.1046  0.1182
  791POPS   GL110965  12.104   3.979   6.405  0.0263 -0.3262 -0.0708
  791POPS   GL210966  12.144   4.243   6.647 -0.2200  0.0389  0.1018
  791POPS   C1A10967  12.252   3.718   6.763 -0.4098 -0.0857 -0.5004
  791POPS   D2A10968  12.036   3.495   7.012 -0.0106 -0.0632  0.2621
  791POPS   C3A10969  12.003   3.524   7.516 -0.3189  0.2278  0.3734
  791POPS   C4A10970  11.909   3.883   7.897  0.1952 -0.0158 -0.3426
  791POPS   C1B10971  12.158   4.123   7.016  0.0471  0.0375  0.3612
  791POPS   C2B10972  12.349   3.900   7.338  0.1642  0.0072 -0.3357
  791POPS   C3B10973  12.394   4.026   7.807  0.1019  0.2502  0.1677
  791POPS   C4B10974  12.250   4.199   8.199  0.5440 -0.0725  0.1323
  792POPS   CNO10975   8.345   5.451   5.827 -0.1847 -0.3905 -0.1253
  792POPS   PO410976   8.529   5.092   5.814 -0.1124 -0.0586 -0.1676
  792POPS   GL110977   8.563   4.826   6.252  0.1982  0.0922 -0.2101
  792POPS   GL210978   8.272   4.899   6.401  0.1601  0.0305 -0.0781
  792POPS   C1A10979   8.609   4.626   6.744 -0.1971 -0.2432  0.0642
  792POPS   D2A10980   8.807   4.605   7.142 -0.0798 -0.0035  0.1024
  792POPS   C3A10981   8.660   4.587   7.498 -0.0494  0.2601 -0.3196
  792POPS   C4A10982   8.336   4.901   7.805 -0.0898 -0.1984  0.0228
  792POPS   C1B10983   8.128   4.454   6.566 -0.0273  0.0191  0.0232
  792POPS   C2B10984   8.146   4.234   6.832 -0.2452 -0.0076  0.0874
  792POPS   C3B10985   8.102   4.018   7.148  0.1545  0.0789  0.3579
  792POPS   C4B10986   7.926   3.684   7.399  0.0474  0.2534  0.3517
  793POPS   CNO10987   3.550   2.299   5.701  0.1193  0.1334  0.0744
  793POPS   PO410988   3.105   2.304   5.765  0.2806 -0.1349  0.2768
  793POPS   GL110989   2.913   2.281   6.168  0.2001  0.2962 -0.0571
  793POPS   GL210990   3.043   2.498   6.356  0.1613  0.0885  0.3862
  793POPS   C1A10991   2.676   2.117   6.529  0.1072 -0.0345 -0.1696
  793POPS   D2A10992   2.288   2.294   6.846 -0.1174  0.2138  0.2715
  793POPS   C3A10993   2.215   2.383   7.207  0.1730  0.0347 -0.0825
  793POPS   C4A10994   2.352   2.194   7.616 -0.0909  0.0571  0.3730
  793POPS   C1B10995   3.197   2.413   6.763 -0.1704  0.3728  0.4476
  793POPS   C2B10996   3.288   2.583   7.239 -0.1080  0.2421 -0.0374
  793POPS   C3B10997   3.473   2.650   7.718  0.1447  0.0511 -0.0123
  793POPS   C4B10998   3.337   2.995   7.969 -0.0546 -0.0363  0.0870
  794POPS   CNO10999   5.795  16.515   5.262 -0.1566  0.1618  0.3121
  794POPS   PO411000   5.433  16.501   5.386  0.2222  0.2306  0.2395
  794POPS   GL111001   5.572  16.297   5.698 -0.0186  0.0380  0.2416
  794POPS   GL211002   5.812  16.530   6.017  0.0554 -0.2277  0.1011
  794POPS   C1A11003   5.946  16.100   5.895  0.0748 -0.1615  0.0029
  794POPS   D2A11004   6.164  15.819   6.187 -0.3048  0.2193  0.0836
  794POPS   C3A11005   6.073  15.806   6.563 -0.2498 -0.4079 -0.1937
  794POPS   C4A11006   6.333  15.493   6.693 -0.0275  0.0080 -0.0580
  794POPS   C1B11007   5.634  16.446   6.461  0.1364 -0.1773  0.1609
  794POPS   C2B11008   5.566  16.583   6.833 -0.3340 -0.1569  0.2133
  794POPS   C3B11009   5.933  16.691   7.101 -0.1438  0.2149 -0.1105
  794POPS   C4B11010   6.323  16.640   7.032  0.1115 -0.2305  0.0622
  795POPS   CNO11011   6.466  17.927   5.240 -0.1302  0.0463  0.2033
  795POPS   PO411012   6.511  17.613   5.316 -0.0231 -0.2777 -0.1044
  795POPS   GL111013   6.601  17.663   5.695  0.0899 -0.0361 -0.0964
  795POPS   GL211014   6.458  17.720   5.956 -0.0062  0.0682 -0.0908
  795POPS   C1A11015   6.883  17.446   6.002  0.0303  0.0335  0.2349
  795POPS   D2A11016   7.017  17.553   6.320  0.0700 -0.1219  0.0243
  795POPS   C3A11017   7.178  17.241   6.425  0.0051  0.1291 -0.1092
  795POPS   C4A11018   7.611  17.140   6.573 -0.0239 -0.1321  0.0631
  795POPS   C1B11019   6.527  17.627   6.320  0.0788 -0.2162  0.0177
  795POPS   C2B11020   6.679  17.517   6.706 -0.1855  0.0938 -0.3436
  795POPS   C3B11021   6.872  17.225   6.863  0.0204 -0.0189  0.3437
  795POPS   C4B11022   6.729  17.002   7.179 -0.1960  0.3370 -0.1789
  796POPS   CNO11023  12.528  12.203   5.484  0.1026  0.1827 -0.1941
  796POPS   PO411024  12.398  11.806   5.637 -0.1184 -0.4541 -0.1689
  796POPS   GL111025  12.716  11.808   5.877 -0.0515 -0.1621 -0.2744
  796POPS   GL211026  12.601  11.591   6.070 -0.1698  0.1367  0.0064
  796POPS   C1A11027  13.054  12.162   6.124 -0.1821 -0.0433  0.1298
  796POPS   D2A11028  13.266  12.154   6.393  0.0811  0.2435 -0.2826
  796POPS   C3A11029  13.369  12.323   6.733  0.0125 -0.0366 -0.1424
  796POPS   C4A11030  13.586  12.659   6.915  0.1714 -0.5479 -0.0840
  796POPS   C1B11031  12.380  11.696   6.415  0.0996 -0.0163  0.0021
  796POPS   C2B11032  12.003  11.581   6.631  0.2413 -0.0103 -0.1026
  796POPS   C3B11033  11.766  11.640   6.970  0.1083 -0.0489  0.0648
  796POPS   C4B11034  11.572  11.676   7.270 -0.1213  0.1612 -0.0716
  797POPS   CNO11035  14.196   5.408   6.667  0.3049 -0.2856 -0.0440
  797POPS   PO411036  13.986   5.683   6.396  0.2744 -0.1704 -0.1802
  797POPS   GL111037  13.653   5.742   6.782 -0.2888 -0.1084  0.1813
  797POPS   GL211038  13.372   5.599   6.704  0.0670 -0.2924 -0.0692
  797POPS   C1A11039  13.639   5.972   7.108  0.0047 -0.0132 -0.1339
  797POPS   D2A11040  13.552   6.090   7.541 -0.0549  0.2111 -0.1008
  797POPS   C3A11041  13.488   6.018   8.007 -0.2473 -0.3729 -0.1420
  797POPS   C4A11042  13.365   5.941   8.430  0.2973  0.1098 -0.0546
  797POPS   C1B11043  13.077   5.852   6.983 -0.1928 -0.4162  0.0430
  797POPS   C2B11044  13.111   6.233   7.314 -0.1531  0.0561  0.0566
  797POPS   C3B11045  13.355   6.471   7.757  0.2907  0.0572  0.1913
  797POPS   C4B11046  13.378   6.881   7.817 -0.0081 -0.0902  0.2528
  798POPS   CNO11047   9.719   4.404   5.450  0.1112 -0.1054  0.3344
  798POPS   PO411048   9.530   4.192   5.892 -0.0337  0.0714 -0.1489
  798POPS   GL111049   9.426   4.391   6.206  0.0704 -0.2705 -0.0104
  798POPS   GL211050   9.472   4.693   6.206  0.0023 -0.2920  0.2080
  798POPS   C1A11051   9.590   4.434   6.619 -0.1129 -0.1301  0.0725
  798POPS   D2A11052   9.929   4.379   6.833  0.1020 -0.0976  0.1647
  798POPS   C3A11053  10.090   4.552   7.176 -0.1579 -0.1359 -0.2396
  798POPS   C4A11054  10.270   4.580   7.471  0.1053 -0.0267 -0.2628
  798POPS   C1B11055   9.749   4.918   6.424 -0.0090  0.0340  0.0842
  798POPS   C2B11056  10.008   4.978   6.869 -0.2709  0.1970  0.2832
  798POPS   C3B11057  10.217   5.100   7.250  0.0250 -0.1592 -0.2357
  798POPS   C4B11058  10.491   5.021   7.600 -0.1157  0.0560 -0.2475
  799POPS   CNO11059  11.815   7.955   5.639  0.1167 -0.1046  0.0487
  799POPS   PO411060  11.439   7.845   5.579  0.1127  0.1461 -0.1978
  799POPS   GL111061  11.599   7.789   6.049  0.0962  0.0727  0.0293
  799POPS   GL211062  11.512   8.075   6.041  0.3004 -0.2237  0.0230
  799POPS   C1A11063  11.603   7.702   6.495 -0.0862  0.2555  0.0221
  799POPS   D2A11064  11.614   7.660   6.919 -0.0123  0.0634 -0.1349
  799POPS   C3A11065  11.580   7.664   7.263  0.0979 -0.2936 -0.1731
  799POPS   C4A11066  11.524   7.429   7.616 -0.0052 -0.2160  0.0381
  799POPS   C1B11067  11.685   8.584   6.135 -0.2081  0.0602  0.1887
  799POPS   C2B11068  11.529   8.935   6.326 -0.1766 -0.1866  0.2383
  799POPS   C3B11069  11.639   9.122   6.719 -0.0879 -0.1006  0.0608
  799POPS   C4B11070  11.784   9.042   7.093 -0.3603 -0.1432 -0.0657
  800POPS   CNO11071  17.146  13.969   5.629  0.2165  0.1608 -0.1957
  800POPS   PO411072  16.824  14.202   5.829 -0.0733  0.0783  0.0708
  800POPS   GL111073  16.882  14.528   6.024  0.1228  0.0339  0.0003
  800POPS   GL211074  16.616  14.699   5.961  0.1166  0.0512 -0.1891
  800POPS   C1A11075  16.894  14.588   6.518 -0.1446  0.2633 -0.1993
  800POPS   D2A11076  16.895  14.571   6.933 -0.0031  0.2412  0.2004
  800POPS   C3A11077  16.699  14.900   7.204 -0.2538  0.0970  0.2126
  800POPS   C4A11078  16.566  15.316   7.333  0.3480  0.2952  0.2528
  800POPS   C1B11079  16.489  14.950   6.368  0.1084  0.1307  0.0140
  800POPS   C2B11080  16.657  15.168   6.720  0.2252 -0.3038 -0.1898
  800POPS   C3B11081  16.589  15.549   6.889  0.0366 -0.1142 -0.1753
  800POPS   C4B11082  16.473  15.921   6.935 -0.1484  0.0916 -0.5025
  801POPS   CNO11083  13.708   6.172   5.602  0.3798  0.1913  0.1762
  801POPS   PO411084  13.976   6.378   5.866 -0.2515 -0.1204  0.1285
  801POPS   GL111085  13.965   6.616   6.314  0.0891 -0.1343  0.4456
  801POPS   GL211086  14.309   6.529   6.451  0.4560 -0.1663 -0.1091
  801POPS   C1A11087  13.907   6.837   6.667 -0.0384  0.0004 -0.0344
  801POPS   D2A11088  13.911   7.033   7.129  0.0403 -0.0488 -0.2871
  801POPS   C3A11089  13.457   7.164   7.353  0.1585  0.1358  0.2146
  801POPS   C4A11090  13.454   7.455   7.692  0.0652  0.1669  0.0129
  801POPS   C1B11091  14.440   6.770   6.788 -0.1565 -0.0157  0.2152
  801POPS   C2B11092  14.329   6.737   7.185 -0.0659  0.3709 -0.1192
  801POPS   C3B11093  14.315   6.757   7.710  0.1043 -0.2227 -0.1940
  801POPS   C4B11094  14.397   6.600   8.169 -0.1400  0.2024 -0.0527
  802POPS   CNO11095   6.163   0.599   5.106 -0.2655 -0.2556  0.1841
  802POPS   PO411096   6.311   0.241   5.326  0.2097 -0.2229 -0.1250
  802POPS   GL111097   6.533   0.235   5.805 -0.0160 -0.0517 -0.2577
  802POPS   GL211098   6.535   0.510   5.915  0.1617  0.0397 -0.3863
  802POPS   C1A11099   6.413   0.125   6.292 -0.1749  0.2960  0.2803
  802POPS   D2A11100   6.459   0.210   6.680 -0.4333 -0.2541 -0.2041
  802POPS   C3A11101   6.294   0.410   6.996  0.2386  0.1996 -0.1173
  802POPS   C4A11102   6.158   0.629   7.401  0.2172 -0.1101  0.1461
  802POPS   C1B11103   6.630   0.615   6.281  0.1526  0.1850  0.1202
  802POPS   C2B11104   6.593   0.720   6.720 -0.0068 -0.0553 -0.1463
  802POPS   C3B11105   6.603   0.806   7.157 -0.0046  0.1076 -0.2776
  802POPS   C4B11106   6.379   1.075   7.451  0.1868  0.2378 -0.0788
  803POPS   CNO11107   6.665   1.788   5.386  0.2155  0.0303  0.1267
  803POPS   PO411108   6.870   1.923   5.819  0.0122  0.1365  0.0669
  803POPS   GL111109   6.988   2.320   6.053 -0.0961 -0.1535  0.2382
  803POPS   GL211110   6.761   2.531   5.893  0.0475 -0.1287  0.0073
  803POPS   C1A11111   7.123   2.556   6.347 -0.0101  0.0800  0.1195
  803POPS   D2A11112   7.429   2.713   6.649  0.2376 -0.0012 -0.0343
  803POPS   C3A11113   7.759   2.665   7.024  0.2964 -0.0801 -0.0113
  803POPS   C4A11114   7.839   2.805   7.468 -0.0490  0.2586 -0.0630
  803POPS   C1B11115   6.650   2.546   6.347 -0.0216  0.1046  0.1028
  803POPS   C2B11116   6.591   2.509   6.872 -0.2670 -0.0885  0.2985
  803POPS   C3B11117   6.722   2.537   7.347  0.0463  0.1716 -0.2727
  803POPS   C4B11118   6.881   2.814   7.644 -0.1374 -0.3676 -0.0611
  804POPS   CNO11119   5.499   4.662   5.497 -0.1518  0.0398  0.0635
  804POPS   PO411120   5.449   4.375   5.901 -0.1029  0.0388  0.0945
  804POPS   GL111121   5.570   4.229   6.285  0.1810 -0.0953 -0.1931
  804POPS   GL211122   5.855   4.226   6.327 -0.1212  0.2666 -0.0314
  804POPS   C1A11123   5.394   4.146   6.617 -0.0066 -0.0759 -0.3500
  804POPS   D2A11124   5.532   4.206   7.068 -0.2560 -0.1809  0.2598
  804POPS   C3A11125   5.433   4.289   7.390  0.2114  0.1065  0.0205
  804POPS   C4A11126   5.016   4.246   7.424 -0.5749 -0.0243  0.0514
  804POPS   C1B11127   5.913   4.298   6.757 -0.2166  0.0799  0.0745
  804POPS   C2B11128   6.029   4.278   7.144 -0.1778  0.1866  0.1851
  804POPS   C3B11129   5.908   4.338   7.596 -0.0726  0.2071  0.1348
  804POPS   C4B11130   5.811   4.646   7.931  0.1917 -0.0626  0.0851
  805POPS   CNO11131  13.961  16.779   5.090  0.0585 -0.0087  0.1369
  805POPS   PO411132  13.759  16.708   5.513 -0.2574 -0.1444 -0.0604
  805POPS   GL111133  13.835  16.518   5.859 -0.1663 -0.1112  0.1164
  805POPS   GL211134  13.728  16.196   5.826  0.1307 -0.1894  0.1037
  805POPS   C1A11135  13.695  16.494   6.238  0.0909 -0.2502 -0.1657
  805POPS   D2A11136  13.344  16.492   6.385 -0.1702  0.0371 -0.0751
  805POPS   C3A11137  13.290  16.386   6.872 -0.0015 -0.2178  0.1498
  805POPS   C4A11138  13.273  16.348   7.346 -0.0149 -0.1983 -0.0228
  805POPS   C1B11139  13.944  16.063   6.280  0.4688 -0.0373  0.1682
  805POPS   C2B11140  13.710  16.219   6.681  0.0829 -0.3740  0.0437
  805POPS   C3B11141  13.830  16.437   7.096 -0.0674  0.1891  0.2382
  805POPS   C4B11142  13.850  16.629   7.456  0.0421 -0.1859 -0.1005
  806POPS   CNO11143  11.221  14.361   5.289 -0.2496 -0.0125 -0.1609
  806POPS   PO411144  11.208  14.693   5.614 -0.1385  0.0032  0.1894
  806POPS   GL111145  11.192  14.654   6.062 -0.1644  0.0270 -0.0054
  806POPS   GL211146  10.924  14.490   6.119 -0.1954 -0.1319  0.0202
  806POPS   C1A11147  11.291  14.464   6.407  0.2499  0.0894  0.1625
  806POPS   D2A11148  11.233  14.252   6.807  0.2632  0.0651  0.1035
  806POPS   C3A11149  10.910  14.292   7.082  0.1094  0.2550 -0.2916
  806POPS   C4A11150  10.913  14.342   7.463  0.2753 -0.0466 -0.1155
  806POPS   C1B11151  10.708  14.167   6.361  0.2697  0.0644  0.0531
  806POPS   C2B11152  10.574  14.131   6.758 -0.0549  0.1760  0.2529
  806POPS   C3B11153  10.456  13.912   7.067 -0.1926  0.0433 -0.1128
  806POPS   C4B11154  10.368  13.644   7.347 -0.0323  0.0985 -0.0199
  807POPS   CNO11155  11.142   6.472   5.332 -0.2665  0.3036 -0.2369
  807POPS   PO411156  11.313   6.477   5.723  0.1460 -0.0128  0.0722
  807POPS   GL111157  11.370   6.232   6.169 -0.2934 -0.0196 -0.1983
  807POPS   GL211158  11.222   6.434   6.471 -0.0699  0.0300  0.0842
  807POPS   C1A11159  11.442   5.972   6.507 -0.1540  0.0033  0.2220
  807POPS   D2A11160  11.198   5.870   6.885  0.1212 -0.1795 -0.0877
  807POPS   C3A11161  11.459   5.740   7.230  0.1191  0.0959 -0.1184
  807POPS   C4A11162  11.694   5.958   7.530 -0.0156 -0.0886  0.0334
  807POPS   C1B11163  11.054   6.382   6.867 -0.0536  0.0982 -0.2099
  807POPS   C2B11164  10.829   6.323   7.228  0.0426 -0.3592 -0.0626
  807POPS   C3B11165  10.649   6.101   7.571 -0.0739  0.0041  0.3484
  807POPS   C4B11166  10.411   5.836   7.846  0.1930  0.2663  0.1405
  808POPS   CNO11167   7.400   5.597   5.683  0.0284 -0.1316  0.0792
  808POPS   PO411168   7.422   5.833   6.055 -0.0234  0.3037  0.3476
  808POPS   GL111169   7.820   5.799   6.279  0.0908 -0.2757  0.0868
  808POPS   GL211170   8.117   5.440   6.370 -0.0064  0.1557 -0.0127
  808POPS   C1A11171   7.711   5.744   6.786 -0.0120  0.0256  0.2628
  808POPS   D2A11172   7.538   5.612   7.107 -0.0389  0.1248  0.1885
  808POPS   C3A11173   7.551   5.413   7.509  0.1275  0.1550  0.1424
  808POPS   C4A11174   7.801   5.205   7.717  0.2211  0.2580 -0.1051
  808POPS   C1B11175   8.143   5.486   6.819  0.0802 -0.0489 -0.1691
  808POPS   C2B11176   8.047   5.686   7.253 -0.2877  0.1224 -0.0444
  808POPS   C3B11177   7.895   5.794   7.647 -0.0593 -0.3042  0.0885
  808POPS   C4B11178   7.644   5.997   7.952  0.4331 -0.0483  0.0443
  809POPS   CNO11179  11.749  12.779   5.135 -0.1147 -0.2894 -0.5842
  809POPS   PO411180  11.549  12.919   5.346  0.0223 -0.0490 -0.4368
  809POPS   GL111181  11.410  13.023   5.816  0.0970  0.1528  0.4397
  809POPS   GL211182  11.503  13.350   5.835  0.4938 -0.2862  0.1276
  809POPS   C1A11183  11.606  13.181   6.273  0.1100  0.1602  0.2756
  809POPS   D2A11184  11.830  13.597   6.343  0.4363 -0.1238 -0.3423
  809POPS   C3A11185  11.901  13.633   6.741 -0.0854 -0.1581  0.1182
  809POPS   C4A11186  11.593  13.515   7.076 -0.1649 -0.0223 -0.0912
  809POPS   C1B11187  10.959  13.307   5.883 -0.0140 -0.0252 -0.5589
  809POPS   C2B11188  10.615  13.168   5.944  0.2265 -0.3792  0.3404
  809POPS   C3B11189  10.519  12.982   6.264  0.1979  0.0325 -0.0002
  809POPS   C4B11190  10.594  12.941   6.712  0.1364 -0.3000 -0.1290
  810POPS   CNO11191  12.465   3.874   5.709 -0.0279  0.1729 -0.3125
  810POPS   PO411192  12.513   3.560   6.072 -0.0774  0.0892  0.1398
  810POPS   GL111193  12.644   3.883   6.278  0.0377 -0.3848 -0.1776
  810POPS   GL211194  12.755   3.663   6.550 -0.0125  0.2035  0.1274
  810POPS   C1A11195  12.779   4.094   6.698 -0.0078  0.2162 -0.1807
  810POPS   D2A11196  12.658   4.375   7.010  0.1076  0.0983  0.1111
  810POPS   C3A11197  12.387   4.389   7.448 -0.0747  0.0837 -0.2525
  810POPS   C4A11198  12.151   4.636   7.695  0.1351  0.1090 -0.0295
  810POPS   C1B11199  12.706   3.658   7.020 -0.0226 -0.2004  0.0040
  810POPS   C2B11200  12.821   4.017   7.274  0.0603 -0.0534 -0.0473
  810POPS   C3B11201  12.992   4.131   7.574 -0.0342 -0.0986 -0.3215
  810POPS   C4B11202  12.891   4.266   7.979 -0.2063  0.1284 -0.2875
  811POPS   CNO11203  15.987   5.758   5.961  0.1204 -0.0274 -0.0263
  811POPS   PO411204  16.229   5.605   6.212 -0.0471  0.1708 -0.1284
  811POPS   GL111205  16.154   5.676   6.614 -0.1539  0.0918 -0.0851
  811POPS   GL211206  16.282   5.918   6.827  0.5116  0.0058 -0.3390
  811POPS   C1A11207  16.005   5.640   7.138  0.0860 -0.0100  0.1341
  811POPS   D2A11208  15.944   5.771   7.478 -0.1378 -0.1803 -0.2176
  811POPS   C3A11209  15.650   5.628   7.804 -0.1150  0.1070 -0.1993
  811POPS   C4A11210  15.642   5.448   8.164 -0.0135  0.1476  0.1063
  811POPS   C1B11211  16.138   6.150   7.177  0.6765 -0.3036 -0.2808
  811POPS   C2B11212  16.220   6.274   7.595 -0.0855 -0.0591 -0.3852
  811POPS   C3B11213  16.115   6.098   7.990  0.1417 -0.1632 -0.1275
  811POPS   C4B11214  16.287   6.081   8.309  0.4547 -0.1523 -0.1530
  812YOPS   CNO11215   0.975   1.570   6.398  0.1083  0.1154  0.4852
  812YOPS   PO411216   0.799   1.927   6.259 -0.3576  0.1509  0.1761
  812YOPS   GL111217   1.064   2.001   6.630  0.3842 -0.0492  0.1425
  812YOPS   GL211218   1.249   2.292   6.703 -0.3552  0.1508 -0.0072
  812YOPS   C1A11219   1.239   2.087   7.111 -0.0351  0.0943 -0.2828
  812YOPS   D2A11220   1.268   2.107   7.548  0.4077  0.0930 -0.1889
  812YOPS   C3A11221   1.174   1.965   7.868 -0.1926  0.0360 -0.2566
  812YOPS   C4A11222   0.788   1.765   8.078  0.1714 -0.2154 -0.0050
  812YOPS   C1B11223   1.541   2.015   6.763  0.1784  0.1461 -0.0546
  812YOPS   C2B11224   1.523   1.686   7.070 -0.0170  0.0958 -0.0751
  812YOPS   D3B11225   1.328   1.363   7.313  0.1862 -0.1944  0.2606
  812YOPS   C4B11226   0.956   1.209   7.278  0.2177 -0.0735 -0.0138
  813YOPS   CNO11227  12.190   8.783   5.298 -0.0612 -0.3529  0.2315
  813YOPS   PO411228  11.899   8.441   5.275  0.2671 -0.1389 -0.0040
  813YOPS   GL111229  11.907   8.589   5.646  0.3277 -0.0429  0.0926
  813YOPS   GL211230  12.069   8.296   5.917  0.0543  0.0203  0.0256
  813YOPS   C1A11231  11.997   8.898   6.005 -0.2790 -0.1977  0.0193
  813YOPS   D2A11232  12.017   9.245   6.296 -0.2326  0.1725  0.1210
  813YOPS   C3A11233  11.912   9.500   6.610 -0.0170 -0.0082  0.0869
  813YOPS   C4A11234  11.971  10.007   6.613  0.2166 -0.1685 -0.4210
  813YOPS   C1B11235  12.271   8.442   6.376  0.0674  0.1355 -0.1066
  813YOPS   C2B11236  12.350   8.464   6.779 -0.0177  0.0754 -0.1280
  813YOPS   D3B11237  12.210   8.549   7.089  0.0499 -0.1047 -0.2613
  813YOPS   C4B11238  11.891   8.469   7.474  0.0902 -0.1039 -0.0759
  814YOPS   CNO11239  17.876   3.565   5.839  0.4862  0.1045  0.0856
  814YOPS   PO411240  17.844   3.668   6.192  0.0874  0.1911 -0.3876
  814YOPS   GL111241  18.075   3.486   6.574  0.1440 -0.1268 -0.0884
  814YOPS   GL211242  18.305   3.774   6.626 -0.0245  0.3266 -0.0667
  814YOPS   C1A11243  17.943   3.422   6.997  0.0590 -0.1063  0.1276
  814YOPS   D2A11244  17.969   3.354   7.522 -0.1475  0.1536 -0.3342
  814YOPS   C3A11245  17.602   3.576   7.696 -0.0034  0.0509 -0.0750
  814YOPS   C4A11246  17.608   3.482   8.099  0.1722 -0.1297  0.1969
  814YOPS   C1B11247  18.175   3.819   7.046  0.0467 -0.0456  0.0997
  814YOPS   C2B11248  18.179   3.811   7.526  0.0149  0.2397  0.2567
  814YOPS   D3B11249  18.222   3.791   7.936 -0.1387  0.1186  0.0164
  814YOPS   C4B11250  18.394   3.996   8.386  0.2317 -0.1934  0.2083
  815YOPS   CNO11251   3.697   7.429   6.136 -0.0369  0.0575  0.2057
  815YOPS   PO411252   4.139   7.350   6.251  0.0698 -0.0165 -0.2880
  815YOPS   GL111253   4.097   7.133   6.601  0.0639 -0.0545 -0.0379
  815YOPS   GL211254   3.759   7.254   6.599 -0.2756 -0.1888  0.2731
  815YOPS   C1A11255   4.248   6.945   6.955 -0.1651  0.0817 -0.1299
  815YOPS   D2A11256   4.228   6.955   7.421  0.1153  0.0685  0.0225
  815YOPS   C3A11257   4.090   7.025   7.853  0.0169 -0.0928  0.2081
  815YOPS   C4A11258   4.090   7.190   8.242 -0.2279  0.0461  0.0171
  815YOPS   C1B11259   3.804   7.200   6.998 -0.1729 -0.1165 -0.1287
  815YOPS   C2B11260   3.949   7.499   7.290 -0.3402 -0.0999 -0.3505
  815YOPS   D3B11261   3.997   7.593   7.764  0.0036  0.2004 -0.0288
  815YOPS   C4B11262   3.710   7.518   8.107 -0.3775  0.0281  0.2718
  816YOPS   CNO11263   3.343   6.505   6.170 -0.1139 -0.2121 -0.0618
  816YOPS   PO411264   2.950   6.819   5.952  0.0258  0.0355  0.0789
  816YOPS   GL111265   2.964   6.784   6.405  0.0992 -0.1131 -0.0651
  816YOPS   GL211266   2.917   7.059   6.460 -0.1665 -0.0477  0.4026
  816YOPS   C1A11267   3.033   6.813   6.902  0.0815 -0.0154  0.0582
  816YOPS   D2A11268   2.916   7.047   7.254 -0.0999  0.3405 -0.2149
  816YOPS   C3A11269   2.658   6.951   7.623 -0.1057  0.2368 -0.0543
  816YOPS   C4A11270   2.632   6.611   8.028 -0.1087 -0.0071  0.0133
  816YOPS   C1B11271   2.550   6.854   6.756 -0.0577  0.1235  0.0985
  816YOPS   C2B11272   2.348   7.074   7.105 -0.0677  0.1419  0.0591
  816YOPS   D3B11273   2.379   7.274   7.423  0.0639 -0.1307  0.2962
  816YOPS   C4B11274   2.092   7.090   7.703 -0.3212  0.2327  0.0063
  817YOPS   CNO11275  12.813  14.797   5.622 -0.0508  0.3510 -0.1163
  817YOPS   PO411276  13.161  14.625   5.605 -0.3249 -0.5200 -0.0231
  817YOPS   GL111277  12.940  14.333   5.857 -0.1988 -0.0407  0.3429
  817YOPS   GL211278  12.979  13.919   5.774  0.0102 -0.1072 -0.0038
  817YOPS   C1A11279  12.724  14.282   6.235 -0.0361 -0.3032  0.0236
  817YOPS   D2A11280  12.713  14.270   6.643 -0.3319  0.1586  0.2847
  817YOPS   C3A11281  12.720  14.107   7.015 -0.0508  0.0713 -0.0817
  817YOPS   C4A11282  12.933  14.307   7.328 -0.3856  0.3924 -0.1284
  817YOPS   C1B11283  13.204  14.016   6.158 -0.2239 -0.0588 -0.0558
  817YOPS   C2B11284  13.496  14.184   6.434  0.2181 -0.1062  0.1677
  817YOPS   D3B11285  13.656  13.977   6.770  0.2408  0.2628 -0.5005
  817YOPS   C4B11286  13.261  13.972   7.188 -0.1312  0.1511  0.1386
  818YOPS   CNO11287   9.728   2.653   5.496 -0.1933  0.0296 -0.0534
  818YOPS   PO411288   9.880   2.380   5.755  0.0956  0.1351  0.0216
  818YOPS   GL111289   9.699   2.376   6.197 -0.1746  0.4245  0.1526
  818YOPS   GL211290   9.947   2.138   6.273  0.2615  0.0315  0.0675
  818YOPS   C1A11291   9.451   2.480   6.510  0.1725 -0.0423  0.0635
  818YOPS   D2A11292   9.228   2.177   6.775 -0.1841 -0.0765 -0.0384
  818YOPS   C3A11293   9.124   2.046   7.185 -0.0129  0.3321  0.1237
  818YOPS   C4A11294   9.171   2.110   7.504 -0.2992 -0.2467 -0.1208
  818YOPS   C1B11295   9.674   1.854   6.697  0.1379 -0.2454 -0.0507
  818YOPS   C2B11296   9.675   2.037   7.190  0.0781 -0.2015 -0.1071
  818YOPS   D3B11297   9.675   2.228   7.577 -0.1624 -0.1026 -0.0277
  818YOPS   C4B11298   9.568   2.579   7.748  0.2864  0.0632 -0.1024
  819YOPS   CNO11299  18.354  18.197   5.111 -0.0236 -0.0483  0.0989
  819YOPS   PO411300  18.532  18.038   5.438  0.1792  0.2625 -0.2537
  819YOPS   GL111301  18.552  17.908   5.807  0.2090  0.0221 -0.1145
  819YOPS   GL211302  18.809  17.925   5.862  0.2448  0.1866 -0.2416
  819YOPS   C1A11303  18.113  17.847   6.163 -0.2092  0.2322  0.1604
  819YOPS   D2A11304  17.678  17.673   6.376 -0.2760 -0.0473 -0.1005
  819YOPS   C3A11305  17.620  17.450   6.748 -0.1318  0.0148  0.3523
  819YOPS   C4A11306  17.616  17.264   7.149  0.2000  0.3111 -0.1624
  819YOPS   C1B11307  18.738  17.659   6.221 -0.0070  0.0596 -0.0786
  819YOPS   C2B11308  18.729  17.427   6.618 -0.2678  0.1707  0.2366
  819YOPS   D3B11309  18.630  17.556   7.026  0.2494 -0.0390  0.1814
  819YOPS   C4B11310  18.618  17.308   7.361  0.0768  0.0445  0.0597
  820YOPS   CNO11311   6.000  14.562   4.970  0.6360  0.0857 -0.2435
  820YOPS   PO411312   5.884  14.696   5.395 -0.0107 -0.0146 -0.0399
  820YOPS   GL111313   5.876  14.832   5.819  0.1859  0.1538  0.2187
  820YOPS   GL211314   5.552  15.135   5.831  0.1704  0.3145 -0.0197
  820YOPS   C1A11315   5.874  14.919   6.263 -0.2792  0.0764  0.3173
  820YOPS   D2A11316   5.831  15.300   6.424 -0.1909  0.3716  0.1370
  820YOPS   C3A11317   5.715  15.479   6.734 -0.2295  0.1943  0.0725
  820YOPS   C4A11318   5.598  15.338   7.126 -0.2540  0.2294 -0.0760
  820YOPS   C1B11319   5.416  15.027   6.294 -0.1611  0.2526 -0.0764
  820YOPS   C2B11320   5.215  14.623   6.364 -0.0494  0.0900 -0.1433
  820YOPS   D3B11321   5.104  14.284   6.465 -0.0726  0.1976  0.4614
  820YOPS   C4B11322   4.852  14.147   6.712 -0.1939 -0.0742 -0.0455
  821YOPS   CNO11323   7.613   2.281   5.963  0.1084 -0.1145 -0.3804
  821YOPS   PO411324   8.029   2.220   5.895  0.0043 -0.0454  0.2233
  821YOPS   GL111325   8.182   2.163   6.347 -0.2502  0.2356  0.0370
  821YOPS   GL211326   7.869   1.994   6.343 -0.1967 -0.0293  0.1205
  821YOPS   C1A11327   8.263   2.303   6.807 -0.2637 -0.1330 -0.2319
  821YOPS   D2A11328   8.162   2.430   7.225 -0.0662  0.0343  0.1667
  821YOPS   C3A11329   8.093   2.245   7.642  0.1178 -0.0766 -0.0771
  821YOPS   C4A11330   8.165   1.803   7.690 -0.0428 -0.2803 -0.0612
  821YOPS   C1B11331   8.299   1.744   6.577  0.0090 -0.1022 -0.0296
  821YOPS   C2B11332   8.432   1.486   6.783 -0.0376  0.0315 -0.0059
  821YOPS   D3B11333   8.848   1.485   6.800 -0.0639 -0.0026 -0.2005
  821YOPS   C4B11334   8.917   1.576   7.329  0.1299  0.1947  0.5895
  822YOPS   CNO11335  16.464  15.051   5.399 -0.0644  0.1414 -0.1459
  822YOPS   PO411336  16.665  15.300   5.738 -0.1414  0.4040 -0.0404
  822YOPS   GL111337  16.307  15.150   5.929  0.0678  0.0409  0.0122
  822YOPS   GL211338  16.166  14.784   5.789  0.1909 -0.0142  0.1922
  822YOPS   C1A11339  15.926  15.315   6.034  0.2601  0.1712 -0.2394
  822YOPS   D2A11340  15.728  15.339   6.389 -0.0197  0.3510 -0.2081
  822YOPS   C3A11341  15.476  15.386   6.520  0.0776 -0.3905  0.2461
  822YOPS   C4A11342  15.190  15.354   6.179  0.0446 -0.0918 -0.3358
  822YOPS   C1B11343  16.006  14.857   6.205  0.0892  0.1722 -0.0946
  822YOPS   C2B11344  15.998  14.962   6.588 -0.1230  0.0430  0.2651
  822YOPS   D3B11345  15.803  15.243   6.976 -0.1217  0.0406  0.1224
  822YOPS   C4B11346  15.346  15.273   6.999  0.0263 -0.0787  0.1220
  823YOPS   CNO11347  14.925   1.050   5.978 -0.1078  0.3561  0.0838
  823YOPS   PO411348  15.282   1.209   5.798  0.0985  0.1728  0.0237
  823YOPS   GL111349  15.505   1.267   6.138 -0.1830  0.0011 -0.1548
  823YOPS   GL211350  15.204   1.114   6.433  0.3256 -0.1301 -0.1517
  823YOPS   C1A11351  15.528   1.453   6.517 -0.0906  0.1196  0.0899
  823YOPS   D2A11352  15.441   1.203   6.892  0.0690 -0.1730  0.0270
  823YOPS   C3A11353  15.287   1.047   7.176 -0.1152 -0.2145 -0.3103
  823YOPS   C4A11354  15.556   0.790   7.477 -0.0726  0.1999 -0.0007
  823YOPS   C1B11355  15.219   0.793   6.689  0.2929  0.3707  0.0056
  823YOPS   C2B11356  15.489   0.600   6.961 -0.1491 -0.1022 -0.1034
  823YOPS   D3B11357  15.607   0.265   7.199  0.2886  0.0323 -0.0208
  823YOPS   C4B11358  15.569   0.329   7.641 -0.2576  0.0368 -0.1860
  824YOPS   CNO11359   2.727  11.945   5.380 -0.0684  0.3051  0.0955
  824YOPS   PO411360   2.970  12.076   5.676 -0.2313 -0.1617 -0.0906
  824YOPS   GL111361   2.972  12.009   6.158  0.1817 -0.1620 -0.0741
  824YOPS   GL211362   2.725  11.954   6.355  0.1307 -0.0739 -0.0897
  824YOPS   C1A11363   3.086  12.252   6.463  0.1729 -0.0042  0.0011
  824YOPS   D2A11364   3.186  12.350   6.927 -0.0678  0.1013  0.0537
  824YOPS   C3A11365   3.214  12.576   7.293 -0.0830  0.0321  0.2116
  824YOPS   C4A11366   3.365  12.356   7.622 -0.2354  0.2720 -0.0280
  824YOPS   C1B11367   2.899  11.829   6.755 -0.2452 -0.3168  0.2306
  824YOPS   C2B11368   2.967  11.832   7.127 -0.1930  0.0605  0.1948
  824YOPS   D3B11369   3.051  12.088   7.414 -0.2159  0.1645 -0.1870
  824YOPS   C4B11370   3.164  11.911   7.784 -0.1381  0.0067 -0.6052
  825YOPS   CNO11371  15.190   4.887   5.878  0.0946 -0.0044  0.1382
  825YOPS   PO411372  15.297   5.297   6.118 -0.1552  0.4464  0.1414
  825YOPS   GL111373  15.175   5.389   6.556  0.1571  0.3461  0.0005
  825YOPS   GL211374  15.563   5.457   6.643  0.2269  0.1079 -0.4331
  825YOPS   C1A11375  14.864   5.477   6.876  0.1215  0.2593 -0.0291
  825YOPS   D2A11376  15.078   5.469   7.227 -0.0485 -0.0838 -0.2361
  825YOPS   C3A11377  15.231   5.518   7.594 -0.2474  0.2497  0.1021
  825YOPS   C4A11378  15.479   5.170   7.808  0.0098  0.1189  0.0906
  825YOPS   C1B11379  15.669   5.158   6.900 -0.1290  0.2894  0.0578
  825YOPS   C2B11380  15.526   4.731   7.014 -0.0237  0.0900  0.1600
  825YOPS   D3B11381  15.603   4.413   7.359  0.1386  0.1310  0.1052
  825YOPS   C4B11382  15.640   3.945   7.230 -0.0048  0.3425 -0.2130
  826YOPS   CNO11383   4.583  11.518   6.202  0.1666 -0.0330 -0.1772
  826YOPS   PO411384   4.147  11.278   6.102 -0.2404 -0.0274  0.2194
  826YOPS   GL111385   4.366  11.319   6.573  0.0144 -0.1361  0.2217
  826YOPS   GL211386   4.780  11.206   6.552 -0.1994 -0.0586  0.2325
  826YOPS   C1A11387   4.271  11.432   7.078  0.0304  0.0482  0.2107
  826YOPS   D2A11388   4.196  11.508   7.431  0.0083  0.0752 -0.3398
  826YOPS   C3A11389   4.301  11.683   7.799  0.1514 -0.0477  0.0646
  826YOPS   C4A11390   4.483  11.381   8.117 -0.0797 -0.1909  0.1316
  826YOPS   C1B11391   4.686  11.132   7.021  0.0890  0.0013  0.2055
  826YOPS   C2B11392   4.395  10.885   7.342  0.2681  0.0335 -0.0424
  826YOPS   D3B11393   4.318  10.622   7.620 -0.2324 -0.2690 -0.1108
  826YOPS   C4B11394   4.565  10.720   7.911 -0.1872  0.1962 -0.0249
  827YOPS   CNO11395   7.605  13.665   5.051  0.3680  0.0612  0.2142
  827YOPS   PO411396   7.751  13.781   5.410 -0.0612  0.0668 -0.0809
  827YOPS   GL111397   7.752  13.465   5.867 -0.0161 -0.1646  0.1648
  827YOPS   GL211398   7.494  13.344   6.017  0.0466 -0.1505 -0.2392
  827YOPS   C1A11399   8.091  13.405   5.998 -0.4912 -0.3720 -0.0848
  827YOPS   D2A11400   8.453  13.324   6.158 -0.2720  0.0936 -0.3131
  827YOPS   C3A11401   8.368  13.276   6.702 -0.3513  0.0570  0.2078
  827YOPS   C4A11402   8.112  13.531   6.963  0.3297  0.1334  0.1497
  827YOPS   C1B11403   7.220  13.435   6.430  0.0581  0.0161 -0.2425
  827YOPS   C2B11404   7.259  13.672   6.733  0.3839 -0.1616 -0.3533
  827YOPS   D3B11405   7.299  13.855   7.111 -0.2411  0.1835 -0.3412
  827YOPS   C4B11406   7.029  13.668   7.447 -0.0664  0.1312 -0.0885
  828YOPS   CNO11407  13.064  10.865   5.710  0.0038 -0.0549  0.0743
  828YOPS   PO411408  13.265  10.513   5.567 -0.3735 -0.0040  0.1725
  828YOPS   GL111409  13.568  10.412   5.879  0.1311  0.0838  0.2126
  828YOPS   GL211410  13.409  10.705   6.081 -0.0076  0.0445 -0.0818
  828YOPS   C1A11411  13.765  10.079   6.133 -0.0444 -0.1246  0.2129
  828YOPS   D2A11412  13.903   9.979   6.464 -0.2136  0.1915 -0.0993
  828YOPS   C3A11413  13.918   9.918   6.888 -0.2982 -0.1548 -0.1920
  828YOPS   C4A11414  13.562   9.881   7.209 -0.1198 -0.1685 -0.1367
  828YOPS   C1B11415  13.069  10.702   6.482 -0.1824 -0.0846  0.1835
  828YOPS   C2B11416  12.881  10.978   6.772  0.0816 -0.1125 -0.2690
  828YOPS   D3B11417  12.733  11.139   7.082  0.2315 -0.2023  0.0292
  828YOPS   C4B11418  12.845  10.984   7.449  0.0879 -0.0086 -0.3093
  829YOPS   CNO11419  10.161   8.479   5.264 -0.2352 -0.0260  0.1517
  829YOPS   PO411420   9.905   8.631   5.537 -0.1039 -0.1214  0.0806
  829YOPS   GL111421   9.882   8.662   5.994 -0.2329 -0.2326 -0.1945
  829YOPS   GL211422  10.094   8.621   6.312 -0.0027  0.0482 -0.0152
  829YOPS   C1A11423   9.634   8.745   6.381 -0.3108  0.1561  0.1136
  829YOPS   D2A11424   9.713   8.581   6.754  0.3603 -0.1138 -0.0177
  829YOPS   C3A11425  10.050   8.594   7.077  0.1740 -0.2334  0.3355
  829YOPS   C4A11426  10.039   8.828   7.450 -0.3515  0.1933  0.2646
  829YOPS   C1B11427  10.286   8.507   6.598 -0.1405  0.2465  0.0226
  829YOPS   C2B11428  10.419   8.359   6.983  0.0366  0.1408  0.2536
  829YOPS   D3B11429  10.390   8.437   7.403 -0.1482  0.1023 -0.0834
  829YOPS   C4B11430  10.695   8.196   7.701  0.0479  0.1382  0.1891
  830YOPS   CNO11431  17.378   5.908   6.031 -0.2014  0.2109  0.0291
  830YOPS   PO411432  17.535   6.324   6.254  0.0993  0.0719  0.1018
  830YOPS   GL111433  17.648   6.540   6.528 -0.0413 -0.3584  0.2188
  830YOPS   GL211434  17.606   6.926   6.526 -0.0326  0.5207 -0.0702
  830YOPS   C1A11435  17.582   6.618   6.956 -0.3029 -0.0553  0.3311
  830YOPS   D2A11436  17.788   6.867   7.248 -0.0041  0.2106 -0.2849
  830YOPS   C3A11437  17.964   7.041   7.598  0.1242 -0.3131 -0.3581
  830YOPS   C4A11438  18.192   6.858   7.960  0.0770  0.4484  0.0736
  830YOPS   C1B11439  17.304   7.063   6.872  0.0930  0.0289 -0.2733
  830YOPS   C2B11440  17.281   7.003   7.328  0.0703  0.0853  0.1039
  830YOPS   D3B11441  17.400   6.965   7.748  0.2142  0.2553  0.0870
  830YOPS   C4B11442  17.294   7.264   8.114 -0.3667  0.0177  0.0307
  831YOPS   CNO11443  15.871   4.663   6.006 -0.0780  0.0396 -0.0556
  831YOPS   PO411444  15.801   4.754   6.375 -0.0013  0.0783  0.3078
  831YOPS   GL111445  16.041   4.611   6.621  0.2368  0.1839 -0.3054
  831YOPS   GL211446  15.860   4.337   6.833 -0.3840 -0.2461  0.2156
  831YOPS   C1A11447  16.120   4.819   7.025  0.1991  0.1531 -0.2810
  831YOPS   D2A11448  15.964   4.679   7.405 -0.0102  0.4437  0.0015
  831YOPS   C3A11449  15.713   4.581   7.786  0.0123  0.2113 -0.1604
  831YOPS   C4A11450  15.996   4.663   8.239  0.1133  0.0380  0.1640
  831YOPS   C1B11451  16.163   4.290   7.234 -0.1528  0.1466 -0.0100
  831YOPS   C2B11452  16.123   4.303   7.649  0.0472 -0.0965 -0.1476
  831YOPS   D3B11453  16.404   4.479   7.902  0.1834 -0.0027  0.1082
  831YOPS   C4B11454  16.491   4.850   7.963 -0.3627  0.2187  0.0334
  832YOPS   CNO11455   1.406  12.013   5.638 -0.2459  0.0251  0.3945
  832YOPS   PO411456   1.187  11.988   5.938  0.1342 -0.0725 -0.0839
  832YOPS   GL111457   1.202  12.154   6.300 -0.1319 -0.2945 -0.0592
  832YOPS   GL211458   0.934  12.199   6.299  0.1450  0.0850  0.1538
  832YOPS   C1A11459   1.425  12.167   6.610 -0.0853  0.1594 -0.1442
  832YOPS   D2A11460   1.423  12.341   7.032  0.1243  0.1304 -0.1095
  832YOPS   C3A11461   1.359  12.765   7.246  0.1101 -0.2099  0.1193
  832YOPS   C4A11462   1.154  12.796   7.676  0.1711 -0.1280  0.1936
  832YOPS   C1B11463   0.920  12.073   6.665 -0.0377 -0.1757 -0.0291
  832YOPS   C2B11464   0.609  12.046   6.939  0.0139 -0.0851  0.0752
  832YOPS   D3B11465   0.430  11.764   7.139  0.3270 -0.1664 -0.0754
  832YOPS   C4B11466   0.337  11.494   6.947  0.2898  0.0060 -0.2462
  833YOPS   CNO11467   4.426   2.457   6.164  0.1711 -0.1613  0.0809
  833YOPS   PO411468   4.286   2.790   6.400  0.1173 -0.2179  0.0851
  833YOPS   GL111469   4.207   3.007   6.748 -0.2037  0.0598 -0.0451
  833YOPS   GL211470   4.451   3.239   6.842 -0.2202 -0.2166  0.1062
  833YOPS   C1A11471   4.096   2.837   7.179 -0.0095 -0.0351 -0.2898
  833YOPS   D2A11472   3.866   2.732   7.408 -0.0209 -0.0002  0.0514
  833YOPS   C3A11473   3.952   2.593   7.737  0.0021  0.0368 -0.2598
  833YOPS   C4A11474   3.785   2.665   8.102 -0.1209  0.1280 -0.0989
  833YOPS   C1B11475   4.480   3.256   7.286 -0.0711  0.3178 -0.1227
  833YOPS   C2B11476   4.295   3.022   7.599 -0.1153  0.1372 -0.0252
  833YOPS   D3B11477   4.243   2.888   8.008  0.0982  0.1015  0.1374
  833YOPS   C4B11478   4.535   2.905   8.158 -0.0891 -0.0870  0.0116
  834YOPS   CNO11479  13.736   5.229   6.600 -0.0803  0.0826 -0.2032
  834YOPS   PO411480  13.324   5.091   6.448  0.0575  0.1144 -0.2738
  834YOPS   GL111481  13.261   5.103   6.848 -0.1981  0.0774  0.1152
  834YOPS   GL211482  13.365   4.816   6.891 -0.1604 -0.0558 -0.2046
  834YOPS   C1A11483  13.081   5.182   7.368 -0.0641 -0.0366  0.1290
  834YOPS   D2A11484  13.289   5.155   7.717 -0.0015 -0.1673  0.0062
  834YOPS   C3A11485  13.470   4.937   8.094  0.1716 -0.0013  0.3375
  834YOPS   C4A11486  13.901   5.005   8.156 -0.0201 -0.1932 -0.0867
  834YOPS   C1B11487  13.663   4.538   7.093  0.3545 -0.0306  0.1731
  834YOPS   C2B11488  13.943   4.348   7.424  0.2943 -0.0781  0.2130
  834YOPS   D3B11489  14.266   4.145   7.649  0.1755 -0.2225  0.2401
  834YOPS   C4B11490  14.335   4.007   8.061  0.1132  0.4791 -0.0159
  835YOPS   CNO11491  15.765   1.934   5.412  0.0559  0.1907 -0.0325
  835YOPS   PO411492  15.985   2.000   5.757 -0.1790  0.0839  0.1044
  835YOPS   GL111493  15.855   2.199   6.165  0.2153  0.1703  0.2604
  835YOPS   GL211494  15.941   2.482   6.244  0.1018 -0.0323 -0.3000
  835YOPS   C1A11495  15.638   2.030   6.414  0.0284  0.1529  0.1144
  835YOPS   D2A11496  15.637   1.823   6.816 -0.0834  0.1919  0.2115
  835YOPS   C3A11497  15.662   1.907   7.203 -0.2203 -0.2679 -0.2284
  835YOPS   C4A11498  15.407   1.930   7.409  0.0845 -0.2761 -0.6021
  835YOPS   C1B11499  16.176   2.641   6.655 -0.1259 -0.2725  0.0405
  835YOPS   C2B11500  16.213   2.602   7.101 -0.1065 -0.1670 -0.1439
  835YOPS   D3B11501  16.180   2.378   7.424  0.0115  0.1462 -0.0168
  835YOPS   C4B11502  16.136   2.540   7.848  0.1457  0.0636 -0.0803
  836YOPS   CNO11503   2.168   9.284   5.436  0.1920  0.1338  0.2400
  836YOPS   PO411504   2.422   9.128   5.854  0.0026 -0.0130  0.2804
  836YOPS   GL111505   2.201   8.977   6.218 -0.0964  0.1553 -0.1340
  836YOPS   GL211506   2.349   9.279   6.366  0.1360  0.0443 -0.1036
  836YOPS   C1A11507   1.855   9.105   6.540  0.0475  0.1833  0.3324
  836YOPS   D2A11508   1.883   9.058   6.976  0.2420  0.1392 -0.3194
  836YOPS   C3A11509   2.179   9.062   7.206 -0.0593  0.2287 -0.1629
  836YOPS   C4A11510   1.970   8.992   7.553 -0.0139  0.0958  0.0105
  836YOPS   C1B11511   2.309   9.397   6.808 -0.0819  0.3264 -0.3283
  836YOPS   C2B11512   2.185   9.631   7.115 -0.0660 -0.0557  0.0743
  836YOPS   D3B11513   2.407   9.687   7.494  0.2388 -0.3000  0.1343
  836YOPS   C4B11514   2.443   9.563   7.996  0.1709 -0.1919  0.0444
  837YOPS   CNO11515   1.327  15.588   5.078 -0.1263  0.2327 -0.1420
  837YOPS   PO411516   1.322  15.386   5.409  0.2920  0.3793 -0.0581
  837YOPS   GL111517   1.173  15.398   5.790  0.1289  0.1857  0.2595
  837YOPS   GL211518   1.018  15.726   5.926  0.2029  0.0803 -0.0075
  837YOPS   C1A11519   0.968  15.350   6.289  0.0568  0.2938  0.1318
  837YOPS   D2A11520   0.848  15.265   6.833 -0.0277 -0.1096 -0.0804
  837YOPS   C3A11521   0.775  15.272   7.263  0.2845 -0.0680 -0.0515
  837YOPS   C4A11522   1.149  15.395   7.516  0.3627 -0.7130 -0.2088
  837YOPS   C1B11523   1.382  15.692   6.194 -0.0064  0.0493  0.0253
  837YOPS   C2B11524   1.743  15.550   6.270 -0.1493  0.0997  0.0630
  837YOPS   D3B11525   1.817  15.414   6.629 -0.2091  0.3719 -0.1816
  837YOPS   C4B11526   1.756  15.349   6.945  0.2850 -0.1569  0.2310
  838YOPS   CNO11527   8.542   9.438   5.526  0.4498 -0.0050 -0.0216
  838YOPS   PO411528   8.284   9.644   5.740 -0.0976  0.0449  0.0789
  838YOPS   GL111529   8.431   9.443   6.048 -0.3655 -0.0876 -0.0398
  838YOPS   GL211530   8.545   9.073   6.061  0.2824  0.0359  0.0854
  838YOPS   C1A11531   8.616   9.414   6.457 -0.1321 -0.0808 -0.0468
  838YOPS   D2A11532   8.679   9.573   6.858 -0.0882 -0.2887 -0.1940
  838YOPS   C3A11533   8.819   9.402   7.207  0.1263  0.2177  0.2397
  838YOPS   C4A11534   8.619   9.389   7.549  0.3431  0.0944 -0.2222
  838YOPS   C1B11535   8.732   8.876   6.445  0.2274 -0.1045 -0.0903
  838YOPS   C2B11536   8.981   9.145   6.772 -0.0971  0.1840 -0.0489
  838YOPS   D3B11537   9.293   9.306   7.089  0.1511  0.2269  0.0942
  838YOPS   C4B11538   9.210   9.498   7.475  0.1644  0.1272  0.0826
  839YOPS   CNO11539   8.123  14.196   5.237  0.1362  0.2060 -0.0310
  839YOPS   PO411540   8.131  14.505   5.483 -0.1950 -0.0495 -0.3299
  839YOPS   GL111541   8.191  14.251   5.860 -0.0816  0.0863  0.0772
  839YOPS   GL211542   8.303  14.448   6.097  0.2792 -0.1376  0.0729
  839YOPS   C1A11543   7.854  13.962   6.087 -0.0452 -0.0347  0.1713
  839YOPS   D2A11544   7.781  14.048   6.508 -0.0834  0.0024 -0.0848
  839YOPS   C3A11545   7.751  13.996   6.917  0.3451 -0.2758 -0.0643
  839YOPS   C4A11546   7.560  14.308   7.135  0.2779  0.1494 -0.0256
  839YOPS   C1B11547   8.236  14.410   6.533  0.5560 -0.1583  0.0107
  839YOPS   C2B11548   8.149  14.342   6.921  0.2112 -0.0136  0.0008
  839YOPS   D3B11549   8.358  13.913   6.991 -0.1903  0.0129  0.1396
  839YOPS   C4B11550   8.364  13.789   7.317 -0.0515  0.0615  0.1559
  840YOPS   CNO11551   9.065   3.112   6.032  0.0206 -0.0795 -0.1014
  840YOPS   PO411552   9.000   3.499   5.986  0.3082 -0.0997 -0.1958
  840YOPS   GL111553   8.873   3.724   6.257  0.0680  0.0224 -0.2197
  840YOPS   GL211554   8.582   3.754   6.261  0.1301 -0.1448  0.4409
  840YOPS   C1A11555   8.889   3.746   6.663 -0.2183 -0.7226  0.1112
  840YOPS   D2A11556   8.726   3.703   7.092  0.0770  0.0157 -0.1142
  840YOPS   C3A11557   8.516   3.659   7.451 -0.1874  0.2501 -0.0396
  840YOPS   C4A11558   8.299   3.895   7.743  0.1369 -0.2860  0.0315
  840YOPS   C1B11559   8.403   3.846   6.701 -0.2465  0.1030  0.1561
  840YOPS   C2B11560   8.225   3.518   7.030  0.2073 -0.0266  0.1171
  840YOPS   D3B11561   8.263   3.206   7.461  0.1601 -0.1668  0.1600
  840YOPS   C4B11562   8.473   3.221   7.786  0.0691  0.0280  0.0014
  841YOPS   CNO11563  10.609   8.135   5.189  0.2292  0.0833 -0.0552
  841YOPS   PO411564  10.596   8.381   5.488  0.0455  0.1040  0.0488
  841YOPS   GL111565  10.742   8.267   5.880 -0.0161 -0.0164  0.2550
  841YOPS   GL211566  10.998   8.378   5.913 -0.2553 -0.3671  0.0239
  841YOPS   C1A11567  10.635   8.427   6.303  0.1898  0.1818  0.1365
  841YOPS   D2A11568  10.780   8.502   6.707  0.0443 -0.1321  0.1508
  841YOPS   C3A11569  11.040   8.487   7.092  0.0942  0.0375 -0.0520
  841YOPS   C4A11570  10.945   8.652   7.525 -0.1214 -0.0904  0.2217
  841YOPS   C1B11571  11.089   8.628   6.248 -0.2249  0.2362 -0.2407
  841YOPS   C2B11572  11.302   8.598   6.635 -0.0366  0.1494 -0.2094
  841YOPS   D3B11573  11.223   8.919   6.999  0.0276 -0.2289  0.3445
  841YOPS   C4B11574  11.365   9.204   7.328  0.0169  0.3103  0.2449
  842POPE   NH311575  17.469   1.440   5.770 -0.0955 -0.0099  0.4469
  842POPE   PO411576  17.542   1.033   5.823  0.1585  0.0773 -0.0286
  842POPE   GL111577  17.253   1.146   6.209  0.0899  0.1191  0.0687
  842POPE   GL211578  16.934   1.172   6.170 -0.1636  0.0300  0.1385
  842POPE   C1A11579  17.118   1.215   6.671  0.1046 -0.0374  0.1289
  842POPE   D2A11580  16.716   1.295   6.942 -0.0327  0.2977 -0.2715
  842POPE   C3A11581  16.502   1.503   7.104 -0.0696  0.0418 -0.0056
  842POPE   C4A11582  16.670   1.882   7.274  0.3628 -0.1771 -0.3239
  842POPE   C1B11583  16.772   0.841   6.409 -0.0463  0.2554  0.1555
  842POPE   C2B11584  16.683   0.812   6.854  0.0232  0.3157 -0.3179
  842POPE   C3B11585  16.761   0.578   7.180  0.0054  0.1245 -0.0772
  842POPE   C4B11586  16.438   0.235   7.312  0.0913 -0.0532 -0.0495
  843POPE   NH311587  17.878   4.431   6.008 -0.1104 -0.0535  0.1553
  843POPE   PO411588  18.161   4.811   6.007 -0.1625  0.0943 -0.0116
  843POPE   GL111589  18.147   4.985   6.335 -0.1996 -0.1345  0.2647
  843POPE   GL211590  18.078   5.230   6.394 -0.1342  0.1161 -0.0123
  843POPE   C1A11591  18.173   4.809   6.727 -0.0593  0.0902 -0.0414
  843POPE   D2A11592  18.213   4.786   7.299 -0.0021  0.0115 -0.2652
  843POPE   C3A11593  18.103   5.024   7.590  0.0039  0.1108 -0.0302
  843POPE   C4A11594  18.134   5.082   8.013 -0.0372  0.1487 -0.0801
  843POPE   C1B11595  17.982   5.218   6.764 -0.1886 -0.2339 -0.0192
  843POPE   C2B11596  17.807   5.106   7.137 -0.0162  0.1463  0.2704
  843POPE   C3B11597  17.625   5.013   7.399  0.3776  0.4343 -0.2024
  843POPE   C4B11598  17.407   4.881   7.612  0.2869  0.0382  0.3918
  844POPE   NH311599  12.459   3.002   5.999 -0.2571 -0.1249  0.1235
  844POPE   PO411600  12.439   2.781   6.305 -0.0307 -0.2646 -0.0699
  844POPE   GL111601  12.329   2.998   6.674  0.0724  0.2006  0.0657
  844POPE   GL211602  11.985   3.000   6.681 -0.1733  0.2765 -0.1652
  844POPE   C1A11603  12.491   3.149   6.953  0.4119  0.0421 -0.2676
  844POPE   D2A11604  12.406   3.271   7.311  0.2256  0.0638 -0.0683
  844POPE   C3A11605  12.493   3.520   7.656 -0.0848 -0.2682 -0.1470
  844POPE   C4A11606  12.752   3.737   7.954 -0.1306 -0.2311  0.2153
  844POPE   C1B11607  11.785   3.050   7.085 -0.1719 -0.2300 -0.0914
  844POPE   C2B11608  11.791   2.933   7.502  0.2998  0.2516  0.1589
  844POPE   C3B11609  11.436   3.057   7.672 -0.0703  0.0025  0.0632
  844POPE   C4B11610  11.231   3.282   8.046 -0.1571  0.3119  0.2106
  845POPE   NH311611  14.706   3.522   5.876 -0.0656  0.1152 -0.0233
  845POPE   PO411612  14.511   3.221   5.954 -0.1494  0.2674  0.1233
  845POPE   GL111613  14.310   3.415   6.248 -0.2212 -0.2594 -0.0407
  845POPE   GL211614  14.589   3.571   6.434  0.3128 -0.0308  0.0774
  845POPE   C1A11615  14.044   3.453   6.564 -0.1185  0.0461 -0.5478
  845POPE   D2A11616  13.799   3.181   6.892 -0.0925 -0.0321  0.1215
  845POPE   C3A11617  13.681   3.238   7.377 -0.0713  0.0016 -0.1797
  845POPE   C4A11618  13.458   3.330   7.787  0.2225  0.2548 -0.2722
  845POPE   C1B11619  14.789   3.841   6.770  0.0111  0.0831 -0.3098
  845POPE   C2B11620  14.680   4.011   7.131  0.1850 -0.0477 -0.1184
  845POPE   C3B11621  14.746   4.028   7.616  0.1447 -0.1802 -0.2197
  845POPE   C4B11622  14.896   3.942   7.979  0.2184 -0.0110  0.1269
  846POPE   NH311623   3.277  15.226   5.845  0.0155 -0.1685  0.0384
  846POPE   PO411624   3.721  15.245   5.834 -0.0680  0.1706  0.2310
  846POPE   GL111625   3.840  15.118   6.113  0.1754 -0.0409  0.1389
  846POPE   GL211626   3.652  14.867   6.293 -0.3028  0.2382 -0.0109
  846POPE   C1A11627   4.153  15.069   6.519 -0.1133  0.0051 -0.1786
  846POPE   D2A11628   4.385  14.937   6.944  0.0827  0.0785 -0.0353
  846POPE   C3A11629   4.470  15.014   7.299  0.0024 -0.2869 -0.1313
  846POPE   C4A11630   4.514  15.298   7.662 -0.0897 -0.2124 -0.0962
  846POPE   C1B11631   3.636  14.731   6.723 -0.2580  0.0089 -0.0769
  846POPE   C2B11632   3.542  14.578   7.083 -0.0545  0.0639  0.0657
  846POPE   C3B11633   3.377  14.455   7.534 -0.3216 -0.1333 -0.0331
  846POPE   C4B11634   3.337  14.069   7.819 -0.0653  0.0278 -0.0004
  847POPE   NH311635  17.084  15.797   5.267  0.0224  0.3517  0.1017
  847POPE   PO411636  17.456  15.695   5.408 -0.2683 -0.1950 -0.2231
  847POPE   GL111637  17.212  15.758   5.767  0.0645 -0.0077  0.2003
  847POPE   GL211638  16.885  15.855   5.803 -0.2008  0.3878 -0.0445
  847POPE   C1A11639  17.223  15.698   6.212 -0.1350  0.2267  0.2938
  847POPE   D2A11640  17.155  15.423   6.614  0.1479 -0.2521  0.3893
  847POPE   C3A11641  17.175  15.403   7.067  0.1187  0.2577 -0.2850
  847POPE   C4A11642  17.416  15.388   7.523 -0.0611 -0.0121 -0.0513
  847POPE   C1B11643  16.731  15.999   6.242 -0.0051  0.0254  0.1361
  847POPE   C2B11644  16.520  16.200   6.563 -0.3619 -0.1140  0.1952
  847POPE   C3B11645  16.336  16.479   6.762 -0.1091 -0.1178 -0.1320
  847POPE   C4B11646  16.142  16.885   6.736 -0.1669 -0.1029  0.0736
  848POPE   NH311647   7.954   9.355   6.015 -0.1503  0.2184  0.0517
  848POPE   PO411648   8.037   8.934   6.079  0.1178 -0.2707  0.1546
  848POPE   GL111649   8.178   9.114   6.437  0.1336 -0.0980  0.0618
  848POPE   GL211650   8.147   9.408   6.467  0.2256 -0.3071  0.0157
  848POPE   C1A11651   8.321   9.146   6.842 -0.0635 -0.2399 -0.0159
  848POPE   D2A11652   8.314   9.401   7.175 -0.0174  0.1954 -0.0640
  848POPE   C3A11653   8.319   9.825   7.144 -0.1201  0.0886  0.1864
  848POPE   C4A11654   8.135  10.089   6.903 -0.1123 -0.3851 -0.1819
  848POPE   C1B11655   7.824   9.367   6.800 -0.2990  0.4290  0.0802
  848POPE   C2B11656   7.832   9.540   7.189  0.1251  0.5041 -0.2402
  848POPE   C3B11657   8.064   9.726   7.583 -0.2626 -0.0967 -0.1798
  848POPE   C4B11658   7.825   9.721   7.989 -0.4320 -0.2176 -0.0796
  849POPE   NH311659   0.427   8.116   5.640  0.1192 -0.2470 -0.0986
  849POPE   PO411660   0.279   7.768   5.986  0.1086  0.0375 -0.1594
  849POPE   GL111661   0.338   7.502   6.339 -0.0856  0.3190  0.1654
  849POPE   GL211662   0.131   7.594   6.567 -0.1173  0.3793 -0.1684
  849POPE   C1A11663   0.561   7.284   6.637 -0.0479 -0.3130 -0.0784
  849POPE   D2A11664   0.892   7.133   6.810 -0.0744 -0.1612  0.0566
  849POPE   C3A11665   0.767   7.300   7.167  0.0969 -0.1381 -0.0613
  849POPE   C4A11666   0.404   7.195   7.247  0.0118 -0.0303 -0.2541
  849POPE   C1B11667   0.186   7.662   6.963  0.1590 -0.1456 -0.1577
  849POPE   C2B11668   0.403   7.678   7.352 -0.1287 -0.0396 -0.1269
  849POPE   C3B11669   0.428   7.339   7.719  0.0318  0.1342 -0.0896
  849POPE   C4B11670   0.238   6.976   8.039  0.2157  0.0587  0.0194
  850POPE   NH311671   9.971  14.919   5.290 -0.1228  0.1674  0.0575
  850POPE   PO411672  10.121  15.310   5.313  0.1040  0.3830  0.1622
  850POPE   GL111673  10.386  15.477   5.552  0.3254  0.0234 -0.0450
  850POPE   GL211674  10.360  15.685   5.735 -0.0662 -0.2809  0.1243
  850POPE   C1A11675  10.532  15.345   6.003 -0.1143 -0.2337  0.4559
  850POPE   D2A11676  10.781  15.443   6.530  0.3379 -0.1499  0.0046
  850POPE   C3A11677  10.779  15.953   6.653 -0.0724 -0.1252 -0.0559
  850POPE   C4A11678  11.231  16.120   6.815 -0.1832 -0.1434  0.1147
  850POPE   C1B11679  10.024  15.856   5.927 -0.2709  0.1377 -0.1503
  850POPE   C2B11680   9.711  15.783   6.053  0.1717 -0.3526 -0.0652
  850POPE   C3B11681   9.811  15.896   6.431  0.1635  0.1764 -0.1023
  850POPE   C4B11682  10.105  15.856   6.805 -0.0548 -0.0939  0.0668
  851POPE   NH311683   6.597  11.276   6.185 -0.2052  0.1419 -0.0520
  851POPE   PO411684   6.159  11.188   6.171  0.1959 -0.0249 -0.1407
  851POPE   GL111685   6.270  11.021   6.537 -0.0903  0.1572 -0.0296
  851POPE   GL211686   5.872  11.014   6.591  0.0241  0.0779  0.1498
  851POPE   C1A11687   6.429  10.821   6.842  0.2204 -0.0851  0.0037
  851POPE   D2A11688   6.726  10.535   6.962  0.0004  0.1968 -0.0559
  851POPE   C3A11689   6.676  10.374   7.417 -0.1586 -0.3074  0.0658
  851POPE   C4A11690   6.678  10.163   7.903 -0.0632 -0.2315 -0.0945
  851POPE   C1B11691   6.079  11.166   6.966  0.0674 -0.1858  0.2036
  851POPE   C2B11692   6.438  11.281   7.246 -0.0450  0.0426 -0.4112
  851POPE   C3B11693   6.774  11.281   7.582  0.2362 -0.1506 -0.1131
  851POPE   C4B11694   7.310  11.240   7.559  0.0875 -0.0329  0.2548
  852POPE   NH311695  18.211   9.334   5.880 -0.0157 -0.3965 -0.3567
  852POPE   PO411696  18.442   9.810   5.906  0.2620  0.0326 -0.1069
  852POPE   GL111697  18.564   9.822   6.340 -0.4186 -0.0906 -0.0023
  852POPE   GL211698  18.614   9.484   6.258 -0.0233  0.2204 -0.1948
  852POPE   C1A11699  18.652   9.816   6.653 -0.0115 -0.0528 -0.1012
  852POPE   D2A11700  18.691   9.705   7.026 -0.0346 -0.1544 -0.2881
  852POPE   C3A11701  18.791   9.740   7.380  0.1268 -0.1340 -0.0205
  852POPE   C4A11702  18.592   9.931   7.627  0.1438 -0.3140  0.3019
  852POPE   C1B11703  18.464   9.306   6.571  0.1836  0.5180 -0.2047
  852POPE   C2B11704  18.406   9.161   7.019 -0.0165  0.1480  0.0234
  852POPE   C3B11705  18.337   9.060   7.450  0.2676  0.0649 -0.1828
  852POPE   C4B11706  18.536   8.853   7.815  0.0939 -0.2055  0.0548
  853POPE   NH311707   1.261   0.085   5.749 -0.0077  0.2628 -0.0320
  853POPE   PO411708   1.483  -0.302   5.696  0.0310  0.0813 -0.0590
  853POPE   GL111709   1.498  -0.305   6.200  0.3209 -0.0154  0.3026
  853POPE   GL211710   1.806  -0.384   6.188 -0.1782 -0.1488  0.1999
  853POPE   C1A11711   1.550  -0.091   6.527 -0.1266 -0.0062  0.1086
  853POPE   D2A11712   1.503  -0.220   6.936  0.1585  0.4558 -0.0445
  853POPE   C3A11713   1.426  -0.019   7.318 -0.1430  0.0227 -0.0728
  853POPE   C4A11714   1.611   0.379   7.380  0.1508 -0.2582 -0.0645
  853POPE   C1B11715   1.803  -0.620   6.573  0.0958  0.0408 -0.0182
  853POPE   C2B11716   1.917  -0.825   6.925  0.1021  0.1612  0.4140
  853POPE   C3B11717   1.895  -0.932   7.396  0.0076  0.0855  0.0769
  853POPE   C4B11718   1.661  -0.729   7.702  0.0767 -0.0429 -0.1746
  854POPE   NH311719   0.832  15.516   5.320  0.0917  0.1181  0.1006
  854POPE   PO411720   0.661  15.904   5.510 -0.2740  0.1052  0.2722
  854POPE   GL111721   0.651  15.953   6.010  0.0807  0.0367 -0.1312
  854POPE   GL211722   0.617  16.244   6.164  0.1251  0.2111 -0.0862
  854POPE   C1A11723   0.606  15.757   6.310 -0.2392 -0.3417  0.0137
  854POPE   D2A11724   0.910  15.679   6.589 -0.0806 -0.5084 -0.0736
  854POPE   C3A11725   0.996  15.705   7.013  0.0526  0.1266  0.1065
  854POPE   C4A11726   1.402  15.648   7.169 -0.1829 -0.0984  0.1568
  854POPE   C1B11727   0.669  16.140   6.592  0.3030  0.1151  0.0031
  854POPE   C2B11728   0.515  16.068   6.870  0.0105  0.1830 -0.1010
  854POPE   C3B11729   0.135  15.987   7.073  0.3378  0.2452  0.1288
  854POPE   C4B11730  -0.026  15.666   7.338  0.1080 -0.0084 -0.0428
  855POPE   NH311731  16.987   2.052   6.021 -0.1015 -0.1678 -0.0857
  855POPE   PO411732  16.925   2.432   6.341  0.0419  0.0833  0.4719
  855POPE   GL111733  16.884   2.586   6.734  0.3188  0.3705 -0.0689
  855POPE   GL211734  16.769   2.894   6.715  0.0927 -0.0345 -0.2992
  855POPE   C1A11735  16.982   2.175   6.959  0.3037 -0.0305  0.0596
  855POPE   D2A11736  17.183   2.107   7.318  0.0231 -0.0783 -0.0372
  855POPE   C3A11737  17.081   2.305   7.752  0.2366  0.0313  0.2927
  855POPE   C4A11738  17.231   2.737   7.950  0.0363  0.1788  0.0669
  855POPE   C1B11739  16.659   2.871   7.114 -0.1499 -0.0891 -0.0261
  855POPE   C2B11740  16.437   2.779   7.528  0.2239 -0.1419 -0.2631
  855POPE   C3B11741  16.552   2.838   7.998 -0.1372 -0.0116 -0.0996
  855POPE   C4B11742  16.762   3.056   8.242  0.0218 -0.1733 -0.1372
  856POPE   NH311743   3.855  18.003   5.512  0.0403 -0.0900 -0.0695
  856POPE   PO411744   3.515  18.214   5.606  0.4930 -0.1560  0.0101
  856POPE   GL111745   3.714  18.177   5.990 -0.1659 -0.0166  0.1140
  856POPE   GL211746   3.935  17.958   6.014 -0.1513  0.0373 -0.2166
  856POPE   C1A11747   3.436  17.976   6.347 -0.1965  0.3626  0.2652
  856POPE   D2A11748   3.158  18.125   6.599  0.0751  0.0776 -0.0316
  856POPE   C3A11749   3.294  18.291   6.895  0.1870  0.0346 -0.1198
  856POPE   C4A11750   3.210  18.230   7.228 -0.2186 -0.0544 -0.0405
  856POPE   C1B11751   3.956  17.838   6.468  0.2494 -0.0033  0.5779
  856POPE   C2B11752   4.014  17.679   6.855 -0.0283 -0.3734  0.3406
  856POPE   C3B11753   4.039  17.610   7.237  0.0297 -0.0813 -0.2222
  856POPE   C4B11754   4.168  17.523   7.568 -0.0441 -0.0679 -0.0345
  857POPE   NH311755   9.947  12.896   5.027  0.3542 -0.1767  0.1562
  857POPE   PO411756   9.609  13.262   4.816 -0.0349 -0.1802  0.0244
  857POPE   GL111757   9.823  13.389   5.218 -0.1814  0.0040  0.0484
  857POPE   GL211758   9.975  13.723   5.161 -0.0302 -0.2638 -0.2641
  857POPE   C1A11759   9.791  13.348   5.699  0.2169 -0.0750 -0.0796
  857POPE   D2A11760   9.765  13.669   6.060 -0.0307  0.0739 -0.0813
  857POPE   C3A11761   9.804  13.615   6.545  0.0273  0.2355 -0.1654
  857POPE   C4A11762  10.030  13.645   6.969 -0.3143  0.0138  0.1539
  857POPE   C1B11763  10.002  13.880   5.611  0.2939  0.0981 -0.0256
  857POPE   C2B11764  10.181  13.994   6.018  0.1800  0.0680 -0.0512
  857POPE   C3B11765  10.203  13.869   6.465  0.0776  0.0317  0.1117
  857POPE   C4B11766  10.515  13.552   6.739  0.0549 -0.0827 -0.1643
  858POPE   NH311767  15.017   5.681   6.137  0.1238 -0.0915 -0.1810
  858POPE   PO411768  15.500   5.754   6.256  0.0160  0.2444 -0.3371
  858POPE   GL111769  15.464   5.947   6.638  0.2612  0.5175 -0.1032
  858POPE   GL211770  15.341   6.303   6.648 -0.2419  0.0120 -0.0290
  858POPE   C1A11771  15.514   5.699   7.120 -0.0048  0.0294  0.2861
  858POPE   D2A11772  15.722   5.282   7.364  0.1430 -0.1109  0.0251
  858POPE   C3A11773  16.055   5.223   7.478  0.0748  0.0078 -0.0622
  858POPE   C4A11774  16.033   4.971   7.813 -0.0236  0.1172  0.3173
  858POPE   C1B11775  15.600   6.215   7.090 -0.0304  0.0336  0.0811
  858POPE   C2B11776  15.665   6.243   7.573 -0.0943 -0.0900 -0.1272
  858POPE   C3B11777  15.609   6.166   7.990  0.0917  0.0028 -0.1887
  858POPE   C4B11778  15.344   5.901   8.165  0.0302  0.0665 -0.1915
  859POPE   NH311779   7.059  13.668   5.454 -0.0709  0.0406 -0.3422
  859POPE   PO411780   7.125  14.158   5.566 -0.0103 -0.0303  0.1719
  859POPE   GL111781   7.018  14.005   5.925 -0.0270  0.0452 -0.0052
  859POPE   GL211782   6.923  13.657   6.020 -0.0345  0.1005 -0.0964
  859POPE   C1A11783   6.940  14.206   6.323  0.1298  0.2903  0.0092
  859POPE   D2A11784   7.197  14.201   6.716  0.0872  0.4205  0.3419
  859POPE   C3A11785   7.478  14.368   6.552 -0.0805 -0.0660 -0.3770
  859POPE   C4A11786   7.823  14.619   6.446  0.0564  0.3806 -0.1140
  859POPE   C1B11787   6.688  13.766   6.455  0.0730 -0.2667 -0.1607
  859POPE   C2B11788   6.602  14.202   6.685  0.0543 -0.1321  0.1286
  859POPE   C3B11789   6.508  14.638   6.975  0.3801  0.0565  0.2285
  859POPE   C4B11790   6.584  15.079   7.042  0.0566  0.1105 -0.0055
  860POPE   NH311791   1.990  17.404   5.359  0.1185  0.1447  0.1695
  860POPE   PO411792   2.256  17.049   5.404  0.0711  0.3166  0.0733
  860POPE   GL111793   2.200  16.865   5.837 -0.0081 -0.1277  0.0559
  860POPE   GL211794   2.497  16.725   6.048 -0.0607 -0.2435 -0.2668
  860POPE   C1A11795   2.070  16.943   6.230  0.1096 -0.0414 -0.2679
  860POPE   D2A11796   2.230  16.844   6.635  0.0169  0.0535 -0.0422
  860POPE   C3A11797   2.269  16.634   7.042 -0.0939 -0.2971  0.3014
  860POPE   C4A11798   2.148  16.360   7.250 -0.2324 -0.0501  0.1254
  860POPE   C1B11799   2.702  16.824   6.388  0.1044  0.1859  0.0465
  860POPE   C2B11800   2.740  16.680   6.818 -0.2379  0.0133 -0.0077
  860POPE   C3B11801   2.699  16.804   7.228  0.2067 -0.3257 -0.1771
  860POPE   C4B11802   2.663  16.907   7.634 -0.1132  0.3441 -0.1050
  861POPE   NH311803   4.298   0.615   5.843 -0.1139 -0.2506 -0.5066
  861POPE   PO411804   4.793   0.746   6.018 -0.1053  0.0586  0.4056
  861POPE   GL111805   4.549   0.749   6.314 -0.2006  0.1149 -0.1481
  861POPE   GL211806   4.303   0.573   6.382  0.0558  0.2939  0.0778
  861POPE   C1A11807   4.375   1.054   6.549  0.1846 -0.0666  0.0929
  861POPE   D2A11808   4.222   1.125   6.974 -0.1062  0.0598 -0.0906
  861POPE   C3A11809   3.931   1.040   7.359  0.0581  0.0125  0.0736
  861POPE   C4A11810   3.759   0.836   7.729 -0.2922  0.1887  0.1177
  861POPE   C1B11811   4.283   0.648   6.822 -0.0668 -0.3267 -0.2295
  861POPE   C2B11812   4.362   0.663   7.154 -0.2722 -0.2196 -0.0312
  861POPE   C3B11813   4.199   0.642   7.487  0.2986  0.1173  0.0887
  861POPE   C4B11814   4.378   0.651   7.876 -0.3985 -0.0338  0.1483
  862POPE   NH311815  11.292   7.423   5.840  0.2464  0.0989  0.1193
  862POPE   PO411816  11.035   7.780   5.950  0.2661 -0.1964 -0.0844
  862POPE   GL111817  10.876   7.967   6.267  0.0180 -0.0442 -0.0521
  862POPE   GL211818  11.130   8.078   6.405 -0.0905 -0.1229  0.0993
  862POPE   C1A11819  10.820   8.033   6.784  0.0847 -0.0596 -0.3335
  862POPE   D2A11820  10.800   8.064   7.170  0.0295 -0.1106  0.1042
  862POPE   C3A11821  10.615   7.706   7.383  0.0985 -0.0150 -0.5113
  862POPE   C4A11822  10.459   7.439   7.729 -0.2293 -0.1098  0.0815
  862POPE   C1B11823  11.279   7.966   6.726  0.0031 -0.2606 -0.1151
  862POPE   C2B11824  11.350   8.060   7.077  0.1765 -0.0200 -0.0276
  862POPE   C3B11825  11.451   8.232   7.420  0.0606 -0.1265 -0.0174
  862POPE   C4B11826  11.431   8.704   7.398  0.1589  0.0633 -0.0126
  863POPE   NH311827   9.023   7.201   5.726  0.2472  0.2221 -0.0434
  863POPE   PO411828   8.618   7.150   5.583  0.1303 -0.3102  0.0803
  863POPE   GL111829   8.660   7.045   6.091  0.0495 -0.1052 -0.0795
  863POPE   GL211830   8.898   6.759   6.078  0.0303 -0.3315 -0.3925
  863POPE   C1A11831   8.537   7.252   6.505  0.2791  0.1527 -0.0621
  863POPE   D2A11832   8.418   7.233   6.907  0.0541 -0.0781  0.0457
  863POPE   C3A11833   8.056   7.276   7.052  0.2108  0.0205  0.3001
  863POPE   C4A11834   7.924   7.266   7.487  0.0396  0.0464  0.3085
  863POPE   C1B11835   8.788   6.797   6.519  0.2654  0.1933 -0.1667
  863POPE   C2B11836   8.783   6.900   7.029 -0.2204  0.2246  0.3568
  863POPE   C3B11837   8.845   6.773   7.414  0.2908  0.1097  0.2774
  863POPE   C4B11838   8.662   6.933   7.792  0.2646 -0.2034 -0.0499
  864POPE   NH311839  10.315   2.418   6.077  0.6180 -0.2848  0.1590
  864POPE   PO411840  10.690   2.359   5.963  0.0989  0.1617  0.1037
  864POPE   GL111841  10.687   2.370   6.403 -0.1352 -0.0420  0.1352
  864POPE   GL211842  10.963   2.534   6.502 -0.1696  0.0977  0.0576
  864POPE   C1A11843  10.516   2.479   6.753 -0.2568 -0.0275  0.0681
  864POPE   D2A11844  10.252   2.753   7.075 -0.0372  0.1914 -0.2213
  864POPE   C3A11845  10.321   2.595   7.410 -0.2315 -0.2092 -0.1204
  864POPE   C4A11846  10.095   2.470   7.773 -0.2079  0.1360 -0.1726
  864POPE   C1B11847  10.985   2.467   7.005  0.3782  0.0270 -0.2066
  864POPE   C2B11848  10.731   2.296   7.275 -0.1856 -0.1650 -0.0746
  864POPE   C3B11849  10.590   2.278   7.741 -0.1240  0.2024  0.2665
  864POPE   C4B11850  10.931   2.391   8.066  0.3076 -0.2372  0.0481
  865POPE   NH311851   0.145  11.964   5.640  0.0385 -0.0688 -0.0538
  865POPE   PO411852  -0.042  12.394   5.582  0.0835  0.0289 -0.0836
  865POPE   GL111853  -0.056  12.285   5.994  0.1366 -0.5581 -0.0778
  865POPE   GL211854  -0.377  12.060   6.111 -0.0038 -0.4203 -0.1265
  865POPE   C1A11855  -0.152  12.354   6.555 -0.0599 -0.1324  0.3910
  865POPE   D2A11856  -0.072  12.445   7.011 -0.1074  0.1047 -0.0808
  865POPE   C3A11857  -0.448  12.445   7.310 -0.1310 -0.1734  0.2119
  865POPE   C4A11858  -0.895  12.629   7.379  0.0827 -0.0448  0.0546
  865POPE   C1B11859  -0.325  11.803   6.584  0.1098 -0.1890  0.2109
  865POPE   C2B11860  -0.489  11.593   6.880 -0.3687  0.1763 -0.0552
  865POPE   C3B11861  -0.400  11.377   7.231 -0.0038  0.2014  0.0784
  865POPE   C4B11862  -0.419  11.548   7.587 -0.0835 -0.0240 -0.3714
  866POPE   NH311863  17.464   5.339   5.952 -0.4126 -0.1245 -0.3213
  866POPE   PO411864  17.737   5.094   6.056 -0.2155 -0.5419  0.2130
  866POPE   GL111865  17.467   5.168   6.388  0.0642  0.0235 -0.2809
  866POPE   GL211866  17.634   5.411   6.468 -0.1540 -0.2001 -0.2041
  866POPE   C1A11867  17.316   4.986   6.730 -0.0976 -0.4147  0.1485
  866POPE   D2A11868  17.081   4.648   7.008  0.0159 -0.2172 -0.2133
  866POPE   C3A11869  17.441   4.382   7.222 -0.2310 -0.0392  0.4115
  866POPE   C4A11870  17.861   4.531   7.440  0.0288  0.1234 -0.2706
  866POPE   C1B11871  17.500   5.431   6.915 -0.3255  0.1248  0.0479
  866POPE   C2B11872  17.409   5.482   7.321  0.0302  0.2514 -0.0231
  866POPE   C3B11873  17.445   5.416   7.721 -0.3706  0.2582 -0.0250
  866POPE   C4B11874  17.651   5.327   8.112 -0.2871 -0.0657 -0.4607
  867POPE   NH311875   8.335   2.518   5.576 -0.1715  0.1720 -0.0235
  867POPE   PO411876   8.083   2.804   5.750 -0.1468 -0.3153 -0.3056
  867POPE   GL111877   8.214   2.643   6.187  0.1165 -0.0733 -0.2468
  867POPE   GL211878   8.537   2.750   6.291  0.1542 -0.0891  0.3110
  867POPE   C1A11879   7.993   2.595   6.563  0.1136  0.1049  0.1384
  867POPE   D2A11880   7.719   2.268   6.805  0.1997  0.0159 -0.2361
  867POPE   C3A11881   8.025   1.924   6.989  0.1338 -0.2302 -0.1108
  867POPE   C4A11882   8.322   1.846   7.216 -0.0013 -0.1656  0.0242
  867POPE   C1B11883   8.648   2.655   6.693 -0.3107 -0.3437  0.1469
  867POPE   C2B11884   8.896   2.621   7.012 -0.1060  0.0020 -0.1254
  867POPE   C3B11885   9.258   2.507   7.217 -0.0922  0.1194  0.1230
  867POPE   C4B11886   9.835   2.561   7.233  0.0738  0.1545 -0.2324
  868POPE   NH311887   3.336  10.819   5.895 -0.1319  0.2465  0.2121
  868POPE   PO411888   3.372  11.236   6.045  0.2026  0.1841 -0.2823
  868POPE   GL111889   3.722  11.374   6.393 -0.2270  0.2178 -0.0898
  868POPE   GL211890   3.896  11.080   6.603  0.1372  0.1713  0.2093
  868POPE   C1A11891   3.845  11.530   6.821  0.3060  0.1008 -0.0530
  868POPE   D2A11892   3.757  11.442   7.235 -0.0087  0.0340 -0.2940
  868POPE   C3A11893   3.749  11.527   7.705  0.1698  0.2210  0.1027
  868POPE   C4A11894   3.532  11.563   8.030 -0.0936  0.2349  0.0504
  868POPE   C1B11895   3.937  10.963   7.028  0.2021  0.1056  0.2384
  868POPE   C2B11896   3.803  10.943   7.455  0.1575  0.2139  0.0882
  868POPE   C3B11897   3.572  10.994   7.830  0.1468 -0.0799  0.2894
  868POPE   C4B11898   3.485  10.926   8.231 -0.5717  0.2911  0.2208
  869POPE   NH311899   9.850   9.959   5.492 -0.2842 -0.0852  0.0232
  869POPE   PO411900   9.850  10.407   5.627  0.1487 -0.0290 -0.0686
  869POPE   GL111901   9.490  10.230   5.824 -0.2699 -0.1910 -0.0544
  869POPE   GL211902   9.429  10.468   6.014  0.3995 -0.0168 -0.0335
  869POPE   C1A11903   9.553  10.038   6.188 -0.2888  0.1871  0.0750
  869POPE   D2A11904   9.424   9.953   6.564 -0.0793  0.2133  0.2273
  869POPE   C3A11905   9.576   9.979   6.972 -0.0275  0.3874 -0.0616
  869POPE   C4A11906   9.838  10.165   7.254  0.1301  0.1399  0.0869
  869POPE   C1B11907   9.751  10.800   6.236 -0.0088  0.0718 -0.0186
  869POPE   C2B11908  10.020  11.014   6.568  0.1088 -0.0747  0.0408
  869POPE   C3B11909   9.876  11.309   6.873  0.1104  0.3074 -0.0838
  869POPE   C4B11910   9.656  11.688   6.875  0.2091  0.1483 -0.1607
  870POPE   NH311911   8.354  16.329   5.201 -0.3696  0.0255 -0.3377
  870POPE   PO411912   8.671  16.565   5.474  0.0688  0.3794  0.0119
  870POPE   GL111913   8.853  16.426   5.865  0.0922  0.0346 -0.1865
  870POPE   GL211914   9.281  16.515   5.937  0.0203  0.1835  0.0549
  870POPE   C1A11915   8.962  16.426   6.356 -0.0762 -0.0575 -0.0565
  870POPE   D2A11916   8.695  16.618   6.652  0.0715  0.3452  0.2644
  870POPE   C3A11917   8.542  16.827   6.996 -0.1245 -0.1606  0.1132
  870POPE   C4A11918   8.393  17.087   7.365  0.1357  0.0521  0.1114
  870POPE   C1B11919   9.392  16.229   6.254  0.1449  0.2665  0.1109
  870POPE   C2B11920   9.351  16.048   6.668  0.1132 -0.0579 -0.3897
  870POPE   C3B11921   9.093  15.782   6.963  0.0727 -0.1175  0.0280
  870POPE   C4B11922   8.662  15.683   7.029 -0.0494  0.1705  0.0718
  871POPE   NH311923   6.234  13.719   5.277  0.3863  0.2203  0.0875
  871POPE   PO411924   5.971  14.008   5.641 -0.0463 -0.0425  0.2974
  871POPE   GL111925   5.893  14.170   6.002  0.4135  0.0864 -0.4458
  871POPE   GL211926   5.668  14.363   5.935  0.0245 -0.1563 -0.2103
  871POPE   C1A11927   5.957  14.002   6.387  0.1746  0.0535  0.0631
  871POPE   D2A11928   6.192  13.938   6.770 -0.2006  0.0060 -0.0070
  871POPE   C3A11929   6.283  14.180   7.122 -0.0147  0.2543 -0.1424
  871POPE   C4A11930   6.202  14.395   7.552 -0.2448  0.1231  0.0658
  871POPE   C1B11931   5.697  14.460   6.385  0.1013  0.1017 -0.3072
  871POPE   C2B11932   5.416  14.480   6.772 -0.3289  0.0628 -0.2741
  871POPE   C3B11933   5.494  14.726   7.186 -0.1561 -0.0741  0.2148
  871POPE   C4B11934   5.778  15.041   7.490  0.2220 -0.1887  0.1977
  872YOPE   NH311935   0.234   0.840   6.063 -0.1531  0.2693  0.0249
  872YOPE   PO411936   0.618   1.026   6.119 -0.3438  0.0637 -0.1724
  872YOPE   GL111937   0.786   1.036   6.453  0.3621  0.0753 -0.0742
  872YOPE   GL211938   1.052   1.032   6.454 -0.0185 -0.2232  0.0501
  872YOPE   C1A11939   0.622   1.126   6.837 -0.1665 -0.0220  0.2936
  872YOPE   D2A11940   0.481   1.250   7.225  0.1242  0.1683  0.1428
  872YOPE   C3A11941   0.409   1.194   7.603  0.0952 -0.1342 -0.0588
  872YOPE   C4A11942   0.035   1.033   7.827 -0.4541 -0.3224 -0.3175
  872YOPE   C1B11943   1.047   1.398   6.812  0.1164  0.2685  0.3255
  872YOPE   C2B11944   0.890   1.667   7.128 -0.0475 -0.1936  0.4285
  872YOPE   D3B11945   1.004   1.698   7.469  0.3614  0.2618 -0.1529
  872YOPE   C4B11946   0.804   1.468   7.707 -0.1831  0.0247 -0.0502
  873YOPE   NH311947   5.177   2.937   5.873  0.0955 -0.0407 -0.0776
  873YOPE   PO411948   5.656   2.957   5.779 -0.0428 -0.0878 -0.2218
  873YOPE   GL111949   5.729   3.081   6.198  0.2364 -0.0431  0.2614
  873YOPE   GL211950   6.037   3.045   6.346  0.2909  0.2218  0.1317
  873YOPE   C1A11951   5.567   3.253   6.627  0.3068  0.0055 -0.1156
  873YOPE   D2A11952   5.689   3.250   7.029  0.2143 -0.0191 -0.1801
  873YOPE   C3A11953   6.101   3.055   7.218 -0.1318  0.0150 -0.0865
  873YOPE   C4A11954   6.493   2.935   7.229  0.1613  0.3033  0.0153
  873YOPE   C1B11955   6.379   3.023   6.704 -0.2289 -0.0181  0.2012
  873YOPE   C2B11956   6.788   3.213   6.938 -0.0568 -0.0207  0.2231
  873YOPE   D3B11957   7.166   3.182   7.181 -0.1202  0.1762 -0.2226
  873YOPE   C4B11958   7.343   3.106   7.689 -0.0250  0.0195  0.1218
  874YOPE   NH311959   1.021   2.420   6.294 -0.3515 -0.1772 -0.2857
  874YOPE   PO411960   0.758   2.751   6.356 -0.2785  0.2264 -0.1084
  874YOPE   GL111961   0.617   2.713   6.710  0.0339  0.1267 -0.3925
  874YOPE   GL211962   0.297   2.667   6.730 -0.1415  0.2612 -0.1388
  874YOPE   C1A11963   0.628   2.808   7.200 -0.1448  0.3369  0.0140
  874YOPE   D2A11964   0.771   2.876   7.623  0.1420 -0.3200  0.1870
  874YOPE   C3A11965   0.457   3.081   7.802 -0.1432 -0.4745 -0.0552
  874YOPE   C4A11966   0.094   2.933   7.897 -0.1340 -0.0641  0.2644
  874YOPE   C1B11967   0.255   2.546   7.089  0.1839  0.0026 -0.0074
  874YOPE   C2B11968   0.012   2.105   7.283  0.0009 -0.0893 -0.0932
  874YOPE   D3B11969  -0.208   1.969   7.659 -0.0861 -0.1007 -0.3935
  874YOPE   C4B11970  -0.202   1.827   8.145  0.0214  0.1623 -0.1033
  875YOPE   NH311971   7.915  15.501   5.105 -0.1272  0.0174  0.0406
  875YOPE   PO411972   8.011  15.698   5.413  0.2714  0.5062  0.1443
  875YOPE   GL111973   8.124  15.860   5.774  0.1892 -0.0865  0.0322
  875YOPE   GL211974   8.445  15.684   5.840  0.3711 -0.2491  0.0228
  875YOPE   C1A11975   7.961  16.016   6.144  0.0758  0.1259 -0.0259
  875YOPE   D2A11976   7.932  16.089   6.591  0.1712  0.0160  0.0647
  875YOPE   C3A11977   7.541  16.087   6.805 -0.0682  0.4803 -0.3537
  875YOPE   C4A11978   7.441  16.151   7.259  0.0318  0.0751 -0.1438
  875YOPE   C1B11979   8.095  15.518   6.201  0.1258  0.3170 -0.1909
  875YOPE   C2B11980   7.840  15.596   6.499  0.0832 -0.2944  0.0020
  875YOPE   D3B11981   7.918  15.719   6.974 -0.1693  0.1255  0.2554
  875YOPE   C4B11982   7.952  16.149   7.135 -0.2799  0.0367 -0.2670
  876YOPE   NH311983   0.200  15.074   5.604 -0.0171  0.0373  0.0632
  876YOPE   PO411984   0.327  15.484   5.508 -0.2850  0.1062  0.0992
  876YOPE   GL111985   0.122  15.776   5.743 -0.0272 -0.2909  0.1256
  876YOPE   GL211986  -0.058  15.998   5.670 -0.1955  0.0901 -0.0780
  876YOPE   C1A11987   0.131  16.009   6.196 -0.1558 -0.2088 -0.3262
  876YOPE   D2A11988   0.171  15.968   6.567 -0.0318  0.1765  0.0110
  876YOPE   C3A11989   0.390  15.525   6.685 -0.1709  0.0895  0.1018
  876YOPE   C4A11990   0.241  15.279   7.033 -0.0277 -0.2479 -0.2074
  876YOPE   C1B11991  -0.320  15.826   6.019 -0.0675  0.3501  0.0685
  876YOPE   C2B11992  -0.417  15.822   6.357 -0.5647  0.0703 -0.0300
  876YOPE   D3B11993  -0.691  15.988   6.728 -0.1630  0.2852 -0.0285
  876YOPE   C4B11994  -0.735  16.428   6.890 -0.2485  0.3663 -0.1715
  877YOPE   NH311995   4.784  14.127   5.702 -0.1822  0.3344  0.2513
  877YOPE   PO411996   4.384  13.847   5.638  0.1641  0.0858 -0.3939
  877YOPE   GL111997   4.557  13.697   5.982  0.0730  0.0269 -0.1269
  877YOPE   GL211998   4.867  13.651   5.930 -0.3301 -0.3392  0.1822
  877YOPE   C1A11999   4.455  13.559   6.359  0.0914 -0.3129  0.0767
  877YOPE   D2A12000   4.223  13.488   6.682  0.1221 -0.1473 -0.1756
  877YOPE   C3A12001   3.754  13.709   6.668 -0.3614  0.4092 -0.1736
  877YOPE   C4A12002   3.290  13.605   6.825 -0.1042  0.2672 -0.0625
  877YOPE   C1B12003   4.912  13.615   6.368  0.4199  0.3096  0.2080
  877YOPE   C2B12004   4.787  13.659   6.738 -0.0898 -0.2851  0.1597
  877YOPE   D3B12005   4.672  13.458   7.097  0.3230  0.2196 -0.0445
  877YOPE   C4B12006   4.638  13.464   7.537 -0.2183  0.2259 -0.4664
  878YOPE   NH312007   2.562   8.626   5.930 -0.1569  0.1504 -0.2075
  878YOPE   PO412008   2.731   8.918   6.145 -0.2282 -0.0416  0.2110
  878YOPE   GL112009   2.696   8.898   6.500 -0.0160  0.0415  0.1966
  878YOPE   GL212010   2.355   8.852   6.660 -0.1975 -0.2514  0.0165
  878YOPE   C1A12011   2.780   9.095   6.952 -0.1182 -0.1801  0.1929
  878YOPE   D2A12012   2.658   9.318   7.290 -0.0454  0.3187 -0.1004
  878YOPE   C3A12013   2.847   9.391   7.704  0.3235 -0.3295  0.1335
  878YOPE   C4A12014   2.927   9.526   8.078 -0.1282  0.1422  0.0437
  878YOPE   C1B12015   2.537   8.671   6.979  0.0023  0.4781 -0.2598
  878YOPE   C2B12016   2.567   8.825   7.427  0.3141  0.0246  0.1183
  878YOPE   D3B12017   2.309   8.728   7.788 -0.2808  0.0245 -0.0144
  878YOPE   C4B12018   1.895   8.620   7.859  0.3588  0.0790 -0.0884
  879YOPE   NH312019   6.116   8.005   5.400  0.2967  0.1191  0.1643
  879YOPE   PO412020   6.262   8.000   5.908  0.2889  0.4510  0.0926
  879YOPE   GL112021   6.244   8.036   6.346 -0.3051 -0.0845  0.1944
  879YOPE   GL212022   6.203   7.737   6.602 -0.5384  0.5260 -0.1087
  879YOPE   C1A12023   6.005   8.233   6.727 -0.2218 -0.0604  0.3595
  879YOPE   D2A12024   5.865   8.492   7.043  0.0828 -0.0278 -0.0375
  879YOPE   C3A12025   6.171   8.373   7.340 -0.2373  0.4119  0.4921
  879YOPE   C4A12026   6.628   8.309   7.366 -0.1577  0.0320  0.1248
  879YOPE   C1B12027   6.384   7.893   6.996 -0.2918  0.0667  0.0544
  879YOPE   C2B12028   6.380   7.918   7.453  0.3820 -0.1368 -0.2353
  879YOPE   D3B12029   6.619   7.995   7.773 -0.2812 -0.0526 -0.0670
  879YOPE   C4B12030   6.673   7.986   8.162 -0.1243 -0.0972 -0.4266
  880YOPE   NH312031  17.900   6.153   5.946  0.0419  0.0898  0.0709
  880YOPE   PO412032  17.901   6.589   5.892 -0.0982 -0.1853 -0.0286
  880YOPE   GL112033  18.089   6.526   6.241  0.0076 -0.1596 -0.1607
  880YOPE   GL212034  18.430   6.444   6.286  0.0270  0.2386 -0.1119
  880YOPE   C1A12035  18.080   6.350   6.716  0.0392 -0.0009  0.0820
  880YOPE   D2A12036  17.957   6.275   7.109 -0.0219  0.0361  0.2824
  880YOPE   C3A12037  17.954   6.139   7.451 -0.2092 -0.3462 -0.0568
  880YOPE   C4A12038  18.243   5.924   7.715 -0.0276 -0.1466 -0.4231
  880YOPE   C1B12039  18.565   6.461   6.772  0.0426  0.0770  0.1812
  880YOPE   C2B12040  18.665   6.524   7.288 -0.2228 -0.2479 -0.0462
  880YOPE   D3B12041  18.912   6.685   7.706 -0.2060 -0.1821 -0.0900
  880YOPE   C4B12042  19.187   6.768   8.096 -0.3192 -0.2968  0.0471
  881YOPE   NH312043   3.300  14.688   5.991 -0.0292 -0.0901  0.3777
  881YOPE   PO412044   3.026  14.408   6.012  0.0907 -0.0169  0.0780
  881YOPE   GL112045   2.966  14.689   6.392 -0.0930 -0.0075  0.0198
  881YOPE   GL212046   3.163  14.990   6.336  0.2182  0.0007  0.0994
  881YOPE   C1A12047   2.839  14.685   6.792 -0.1187 -0.1075  0.0444
  881YOPE   D2A12048   3.063  14.762   7.153  0.0112 -0.3834 -0.3558
  881YOPE   C3A12049   2.896  14.602   7.575 -0.0419  0.1467  0.0790
  881YOPE   C4A12050   2.628  14.677   7.925  0.2451 -0.1594 -0.1062
  881YOPE   C1B12051   3.221  14.987   6.709  0.0539  0.1306 -0.0144
  881YOPE   C2B12052   3.308  15.219   7.116  0.1158 -0.3961 -0.3816
  881YOPE   D3B12053   3.561  15.476   7.340 -0.0028 -0.0685 -0.1905
  881YOPE   C4B12054   3.661  15.611   7.749 -0.1239 -0.1517  0.0102
  882YOPE   NH312055  14.570   8.786   5.999 -0.2923  0.0356 -0.1378
  882YOPE   PO412056  14.519   9.268   5.780  0.3253  0.0400 -0.0145
  882YOPE   GL112057  14.624   9.469   6.133  0.2713  0.2383 -0.4918
  882YOPE   GL212058  14.578   9.167   6.350 -0.1971  0.2073 -0.3084
  882YOPE   C1A12059  14.647   9.603   6.480  0.2658 -0.1205 -0.0628
  882YOPE   D2A12060  14.351   9.870   6.764 -0.3304 -0.1276 -0.2578
  882YOPE   C3A12061  14.397   9.882   7.158 -0.0350  0.0588 -0.2185
  882YOPE   C4A12062  14.415   9.912   7.652  0.1884  0.1935 -0.0096
  882YOPE   C1B12063  14.574   9.147   6.742 -0.1640 -0.0163 -0.0765
  882YOPE   C2B12064  14.494   9.268   7.202  0.1279 -0.4413  0.0412
  882YOPE   D3B12065  14.270   9.485   7.491  0.2265 -0.0818  0.0892
  882YOPE   C4B12066  13.941   9.782   7.667 -0.0854 -0.1202 -0.1816
  883YOPE   NH312067   7.341   3.968   5.763 -0.0949  0.1213 -0.4534
  883YOPE   PO412068   7.117   3.775   6.125  0.1203 -0.3272 -0.1229
  883YOPE   GL112069   6.739   3.578   6.264 -0.2764  0.0139  0.2414
  883YOPE   GL212070   6.423   3.601   6.318 -0.2018  0.4434  0.0720
  883YOPE   C1A12071   6.758   3.664   6.678 -0.2863 -0.1768  0.0261
  883YOPE   D2A12072   6.881   3.663   7.156  0.1765  0.2028  0.0847
  883YOPE   C3A12073   6.700   3.860   7.594  0.0770  0.2650  0.1987
  883YOPE   C4A12074   7.115   3.980   7.838  0.3191 -0.1655  0.1348
  883YOPE   C1B12075   6.236   3.933   6.677 -0.1082  0.0931 -0.1234
  883YOPE   C2B12076   6.475   3.986   7.007  0.0264  0.1876 -0.2283
  883YOPE   D3B12077   6.458   4.324   7.366 -0.0895  0.1769 -0.0661
  883YOPE   C4B12078   6.404   4.216   7.790  0.0215 -0.0444 -0.1453
  884YOPE   NH312079  12.487   4.705   6.032 -0.5363 -0.0269 -0.1423
  884YOPE   PO412080  12.953   4.641   6.109  0.1351 -0.0158 -0.0965
  884YOPE   GL112081  12.952   4.713   6.538  0.1996  0.1492  0.3398
  884YOPE   GL212082  13.101   4.495   6.666  0.2086 -0.0657 -0.0536
  884YOPE   C1A12083  12.786   4.849   6.902  0.0282  0.1410  0.2373
  884YOPE   D2A12084  12.665   4.787   7.385 -0.1387 -0.1317 -0.1934
  884YOPE   C3A12085  12.732   5.140   7.689  0.2123  0.2016 -0.0628
  884YOPE   C4A12086  12.927   5.215   8.175 -0.2185  0.0096  0.1836
  884YOPE   C1B12087  13.174   4.353   7.080 -0.0841  0.0684 -0.1327
  884YOPE   C2B12088  13.140   4.600   7.400 -0.2697  0.2783  0.2386
  884YOPE   D3B12089  12.977   4.751   7.763  0.1210 -0.1169 -0.0033
  884YOPE   C4B12090  12.528   4.732   7.959 -0.2911 -0.0586 -0.2669
  885YOPE   NH312091  10.077  10.867   5.459 -0.0036  0.0004 -0.1032
  885YOPE   PO412092  10.346  11.161   5.361  0.0500  0.0248 -0.3811
  885YOPE   GL112093  10.328  11.150   5.789 -0.0658 -0.0001 -0.1075
  885YOPE   GL212094  10.617  11.289   5.987  0.0198 -0.0560  0.2259
  885YOPE   C1A12095  10.041  11.269   6.025 -0.1200  0.0317  0.0307
  885YOPE   D2A12096   9.660  11.288   6.169 -0.2890 -0.1915 -0.1575
  885YOPE   C3A12097   9.473  11.151   6.535  0.0599 -0.0571  0.0860
  885YOPE   C4A12098   9.328  11.233   7.002 -0.1705  0.0596 -0.1597
  885YOPE   C1B12099  10.300  11.639   6.134  0.2234 -0.3330  0.0387
  885YOPE   C2B12100  10.006  11.575   6.513 -0.2110  0.1220  0.1866
  885YOPE   D3B12101  10.135  11.784   6.956 -0.3192 -0.0452 -0.2039
  885YOPE   C4B12102  10.088  11.789   7.351 -0.1478  0.0619  0.2150
  886YOPE   NH312103   6.651   3.906   5.867 -0.2372  0.0752  0.1467
  886YOPE   PO412104   6.585   4.224   6.156  0.1964 -0.3420  0.4633
  886YOPE   GL112105   6.912   4.197   6.547  0.0299  0.0360 -0.0025
  886YOPE   GL212106   7.181   4.351   6.424 -0.3226 -0.1402  0.2154
  886YOPE   C1A12107   6.933   4.083   6.967 -0.0770 -0.0959  0.1473
  886YOPE   D2A12108   6.977   4.175   7.364 -0.0662 -0.0627 -0.1046
  886YOPE   C3A12109   7.389   3.922   7.465  0.0413 -0.0671 -0.3442
  886YOPE   C4A12110   7.502   3.668   7.837 -0.0694  0.0223  0.0224
  886YOPE   C1B12111   7.258   4.527   6.814 -0.1296 -0.0231 -0.0303
  886YOPE   C2B12112   7.335   4.563   7.250 -0.3363 -0.0241 -0.1301
  886YOPE   D3B12113   7.308   4.731   7.622  0.1069 -0.0654 -0.0758
  886YOPE   C4B12114   7.297   5.107   7.814  0.1156  0.0177  0.1441
  887YOPE   NH312115  10.857  16.996   5.591  0.0241  0.0427 -0.0756
  887YOPE   PO412116  10.882  17.525   5.500  0.1932 -0.1788  0.1535
  887YOPE   GL112117  10.986  17.685   5.898 -0.0025  0.0435  0.1237
  887YOPE   GL212118  11.309  17.536   5.924  0.2170  0.2560 -0.1784
  887YOPE   C1A12119  10.825  17.807   6.327 -0.1309 -0.1351  0.2637
  887YOPE   D2A12120  10.475  17.861   6.716  0.3907  0.0678  0.1265
  887YOPE   C3A12121  10.258  17.780   7.098  0.0708  0.2945 -0.0782
  887YOPE   C4A12122  10.186  17.364   7.282  0.1187  0.1578 -0.0306
  887YOPE   C1B12123  11.367  17.796   6.276 -0.0356  0.0378 -0.4320
  887YOPE   C2B12124  11.380  17.862   6.686  0.2941 -0.0858  0.1239
  887YOPE   D3B12125  11.585  18.170   6.745 -0.0037 -0.2305 -0.1710
  887YOPE   C4B12126  11.737  18.311   7.063 -0.0676  0.2288  0.3153
  888YOPE   NH312127  16.828  10.259   6.081  0.3397 -0.0135  0.1955
  888YOPE   PO412128  16.789  10.623   6.150 -0.2230  0.3800  0.1627
  888YOPE   GL112129  16.718  10.531   6.488 -0.1918  0.0329 -0.1795
  888YOPE   GL212130  16.430  10.526   6.511  0.0586 -0.1516 -0.2344
  888YOPE   C1A12131  16.605  10.529   6.987  0.0894  0.3914 -0.3800
  888YOPE   D2A12132  16.521  10.584   7.396  0.3080  0.0525 -0.1464
  888YOPE   C3A12133  16.623  10.981   7.485  0.0590  0.0822  0.0616
  888YOPE   C4A12134  16.605  11.396   7.694 -0.0230  0.0138  0.3850
  888YOPE   C1B12135  16.309  10.225   6.657  0.2293 -0.0512  0.1221
  888YOPE   C2B12136  16.291   9.912   6.996  0.2073 -0.1775 -0.0762
  888YOPE   D3B12137  16.380   9.660   7.391  0.0796  0.0851  0.0710
  888YOPE   C4B12138  16.518   9.579   7.845  0.1186  0.0541  0.2289
  889YOPE   NH312139   3.597   7.956   6.118 -0.0228  0.2164 -0.0309
  889YOPE   PO412140   3.258   7.602   6.010 -0.1439 -0.0668 -0.1846
  889YOPE   GL112141   3.195   7.540   6.507  0.1596 -0.4836  0.0891
  889YOPE   GL212142   3.494   7.694   6.564 -0.1549 -0.0742  0.0695
  889YOPE   C1A12143   3.295   7.245   6.891 -0.2449  0.0470 -0.3469
  889YOPE   D2A12144   3.409   6.904   7.250 -0.2700 -0.3792  0.2383
  889YOPE   C3A12145   3.687   6.894   7.583  0.0375  0.1783 -0.3410
  889YOPE   C4A12146   3.630   6.907   7.969  0.0906  0.1975  0.0701
  889YOPE   C1B12147   3.537   7.690   7.043  0.0188  0.0989  0.0790
  889YOPE   C2B12148   3.479   7.491   7.462 -0.1596  0.0739  0.1508
  889YOPE   D3B12149   3.239   7.246   7.697 -0.3799 -0.0388  0.1271
  889YOPE   C4B12150   3.198   7.220   8.104 -0.0171  0.1983 -0.1343
  890YOPE   NH312151  17.873   0.137   5.673 -0.1254 -0.2791 -0.0372
  890YOPE   PO412152  18.284   0.052   5.538  0.2961  0.3832 -0.0660
  890YOPE   GL112153  18.289  -0.055   5.987  0.2114 -0.1203  0.1705
  890YOPE   GL212154  18.081   0.188   6.139 -0.1903 -0.4971  0.0845
  890YOPE   C1A12155  18.249  -0.163   6.428 -0.2145  0.0166 -0.1310
  890YOPE   D2A12156  18.522  -0.025   6.793 -0.1718  0.2422 -0.0058
  890YOPE   C3A12157  18.502  -0.293   7.203 -0.0947 -0.2190  0.0678
  890YOPE   C4A12158  18.384  -0.098   7.657 -0.0598  0.2492  0.1340
  890YOPE   C1B12159  17.962   0.439   6.503  0.0213  0.3669  0.1898
  890YOPE   C2B12160  17.664   0.357   6.721  0.0225  0.0087 -0.3001
  890YOPE   D3B12161  17.716   0.188   7.178  0.2535 -0.0842 -0.0357
  890YOPE   C4B12162  17.603   0.204   7.579 -0.0627 -0.0654  0.1230
  891YOPE   NH312163   7.878   1.132   5.510  0.1090  0.1930  0.0964
  891YOPE   PO412164   7.678   0.763   5.514 -0.0777  0.0569  0.0707
  891YOPE   GL112165   7.867   0.868   5.916  0.1538  0.1542 -0.0819
  891YOPE   GL212166   7.736   0.455   6.077 -0.1347 -0.0276  0.0552
  891YOPE   C1A12167   7.976   0.786   6.440  0.0429 -0.1232  0.0330
  891YOPE   D2A12168   8.085   1.144   6.549  0.1773 -0.2021 -0.1021
  891YOPE   C3A12169   8.096   1.132   6.980  0.0034  0.1315 -0.0200
  891YOPE   C4A12170   8.004   1.296   7.374  0.1483  0.0315  0.2223
  891YOPE   C1B12171   7.594   0.427   6.537  0.0965 -0.2634  0.0613
  891YOPE   C2B12172   7.469   0.539   6.960 -0.0337 -0.1031  0.2065
  891YOPE   D3B12173   7.683   0.620   7.290 -0.2812 -0.2879 -0.5259
  891YOPE   C4B12174   7.899   0.816   7.541  0.2146  0.1730  0.1075
  892YOPE   NH312175   2.185   4.316   6.082 -0.0079 -0.0485 -0.1922
  892YOPE   PO412176   1.823   4.163   6.069  0.2218 -0.3774 -0.0073
  892YOPE   GL112177   1.894   4.273   6.491  0.1319 -0.2095 -0.4262
  892YOPE   GL212178   1.613   4.424   6.661  0.3328  0.0811 -0.0807
  892YOPE   C1A12179   2.257   4.343   6.742  0.1126  0.1028 -0.0108
  892YOPE   D2A12180   2.529   4.526   6.603 -0.2349  0.1591 -0.1765
  892YOPE   C3A12181   2.991   4.421   6.703  0.1998 -0.1228  0.0355
  892YOPE   C4A12182   3.380   4.145   6.717  0.2440 -0.0028 -0.1771
  892YOPE   C1B12183   1.581   4.434   7.049 -0.1634 -0.0096  0.1573
  892YOPE   C2B12184   1.692   4.480   7.517 -0.1296  0.1614 -0.1386
  892YOPE   D3B12185   1.923   4.479   7.844 -0.0288  0.0243  0.2375
  892YOPE   C4B12186   2.369   4.420   7.965  0.3493 -0.1712 -0.1711
  893YOPE   NH312187   0.507   1.509   6.123 -0.3599  0.1661 -0.2901
  893YOPE   PO412188   0.193   1.304   6.254  0.1064  0.1774  0.0033
  893YOPE   GL112189   0.228   1.512   6.588 -0.0442  0.1319 -0.1465
  893YOPE   GL212190   0.560   1.672   6.623 -0.0035  0.1426 -0.0871
  893YOPE   C1A12191  -0.087   1.508   6.978  0.0818  0.1717  0.2970
  893YOPE   D2A12192  -0.440   1.700   7.216  0.2221  0.3133 -0.0954
  893YOPE   C3A12193  -0.471   1.528   7.654 -0.1469 -0.0530  0.0526
  893YOPE   C4A12194  -0.384   1.303   8.042  0.0056  0.3491  0.0504
  893YOPE   C1B12195   0.363   1.709   7.101 -0.0219  0.1601  0.0005
  893YOPE   C2B12196   0.468   1.758   7.419 -0.0264 -0.0473  0.2014
  893YOPE   D3B12197   0.240   2.103   7.784 -0.0130 -0.0564  0.0940
  893YOPE   C4B12198  -0.004   2.315   8.101 -0.1854 -0.1333  0.1443
  894YOPE   NH312199   3.953   1.491   5.981  0.1942  0.2033 -0.3803
  894YOPE   PO412200   3.478   1.413   6.140  0.2365 -0.0870  0.1394
  894YOPE   GL112201   3.335   1.474   6.475 -0.0470 -0.2847 -0.3952
  894YOPE   GL212202   3.059   1.657   6.502  0.0944 -0.0704 -0.0006
  894YOPE   C1A12203   3.135   1.212   6.798  0.0951 -0.1036  0.0322
  894YOPE   D2A12204   3.201   1.093   7.257 -0.1373  0.0646  0.0150
  894YOPE   C3A12205   2.886   0.741   7.357 -0.2158 -0.1376  0.0453
  894YOPE   C4A12206   2.753   0.542   7.768  0.0791  0.3659 -0.2167
  894YOPE   C1B12207   2.794   1.579   6.797 -0.2178  0.1569 -0.0745
  894YOPE   C2B12208   2.607   1.391   7.215 -0.0102 -0.1418  0.1496
  894YOPE   D3B12209   2.867   1.178   7.624  0.2046  0.2438  0.2937
  894YOPE   C4B12210   2.774   0.974   7.957  0.1155  0.0450  0.0618
  895YOPE   NH312211   2.624   4.054   5.766  0.1624  0.0301 -0.0409
  895YOPE   PO412212   2.595   3.655   6.028  0.0225 -0.3256 -0.2860
  895YOPE   GL112213   2.578   3.510   6.496 -0.0751  0.2473 -0.0333
  895YOPE   GL212214   2.534   3.233   6.575 -0.0498  0.1840  0.0500
  895YOPE   C1A12215   2.899   3.495   6.785  0.6140  0.1657  0.0080
  895YOPE   D2A12216   2.858   3.541   7.227 -0.3790  0.1233 -0.2989
  895YOPE   C3A12217   2.596   3.188   7.598 -0.0403  0.0090  0.0858
  895YOPE   C4A12218   2.799   3.077   8.031 -0.2129 -0.0879  0.1125
  895YOPE   C1B12219   2.699   3.096   6.923  0.1447  0.2806 -0.2995
  895YOPE   C2B12220   2.905   2.970   7.233  0.1593 -0.1259 -0.1108
  895YOPE   D3B12221   2.981   2.841   7.634  0.0233 -0.2907  0.1907
  895YOPE   C4B12222   3.038   2.564   7.972 -0.0835 -0.2209 -0.0827
  896YOPE   NH312223  13.451  17.164   5.695 -0.1319 -0.0226  0.0450
  896YOPE   PO412224  13.173  17.532   5.624  0.0819 -0.1542 -0.0538
  896YOPE   GL112225  12.949  17.758   5.938 -0.2764 -0.0487 -0.1112
  896YOPE   GL212226  13.049  18.103   6.035  0.2130  0.2981 -0.2278
  896YOPE   C1A12227  12.815  17.797   6.452  0.2029  0.2142 -0.1910
  896YOPE   D2A12228  12.805  17.870   6.871  0.0651  0.2967 -0.0469
  896YOPE   C3A12229  12.617  17.973   7.088  0.0445  0.1421 -0.1198
  896YOPE   C4A12230  12.647  17.995   7.523 -0.2017  0.0800 -0.0465
  896YOPE   C1B12231  12.993  18.270   6.425 -0.1353 -0.3585 -0.0523
  896YOPE   C2B12232  12.893  18.342   6.828  0.0773  0.0848 -0.1523
  896YOPE   D3B12233  12.631  18.447   7.213  0.0087  0.0276  0.0556
  896YOPE   C4B12234  12.524  18.737   7.553  0.1676  0.0015  0.3216
  897YOPE   NH312235  17.973  10.403   5.882 -0.1332 -0.1910  0.1249
  897YOPE   PO412236  18.344  10.637   5.858  0.3479 -0.1620  0.3185
  897YOPE   GL112237  18.465  10.564   6.239 -0.3541  0.3135 -0.0343
  897YOPE   GL212238  18.318  10.220   6.180 -0.0593  0.1247  0.3891
  897YOPE   C1A12239  18.573  10.635   6.709 -0.0403  0.0771 -0.3246
  897YOPE   D2A12240  18.591  10.659   7.216  0.0659 -0.2815  0.3474
  897YOPE   C3A12241  18.498  10.452   7.617 -0.0843  0.3378 -0.0609
  897YOPE   C4A12242  18.690  10.254   7.997  0.1801 -0.0991 -0.1242
  897YOPE   C1B12243  18.278  10.134   6.669  0.3199 -0.1073  0.3475
  897YOPE   C2B12244  18.447  10.161   6.970 -0.1503 -0.3559 -0.2002
  897YOPE   D3B12245  18.833  10.259   7.331 -0.0756  0.0585  0.2476
  897YOPE   C4B12246  19.032  10.443   7.695  0.1516  0.0511  0.0639
  898YOPE   NH312247  17.447   6.823   6.044 -0.2326 -0.0745 -0.4076
  898YOPE   PO412248  17.895   7.067   6.142 -0.0289 -0.0180  0.0245
  898YOPE   GL112249  18.156   7.068   6.426 -0.3442  0.3050 -0.1527
  898YOPE   GL212250  18.143   7.339   6.611 -0.0370  0.0162  0.1233
  898YOPE   C1A12251  18.009   6.923   6.795 -0.1393  0.1337 -0.1931
  898YOPE   D2A12252  18.245   6.687   7.114 -0.2090 -0.1943  0.3004
  898YOPE   C3A12253  18.255   6.528   7.542 -0.0957 -0.0434 -0.1228
  898YOPE   C4A12254  18.494   6.401   7.879 -0.2691 -0.2429  0.2563
  898YOPE   C1B12255  18.130   7.700   6.772  0.2602  0.1213  0.3176
  898YOPE   C2B12256  18.026   7.877   7.217 -0.4913 -0.1317 -0.2546
  898YOPE   D3B12257  18.073   8.019   7.668  0.0245  0.0713  0.1415
  898YOPE   C4B12258  18.236   7.777   8.119 -0.1296 -0.1724 -0.0832
  899YOPE   NH312259  10.326   7.508   5.473  0.0635 -0.1327  0.3833
  899YOPE   PO412260  10.141   7.391   5.807 -0.1390  0.0158  0.0563
  899YOPE   GL112261   9.866   7.396   6.224  0.0583  0.1053 -0.2410
  899YOPE   GL212262   9.760   7.062   6.320  0.0425  0.1947  0.1889
  899YOPE   C1A12263   9.853   7.813   6.454 -0.0469  0.1687  0.0064
  899YOPE   D2A12264   9.900   8.114   6.806 -0.0708 -0.1797 -0.1333
  899YOPE   C3A12265  10.203   7.877   7.115 -0.2364 -0.3990  0.0980
  899YOPE   C4A12266  10.137   7.495   7.365 -0.1775  0.0543  0.1823
  899YOPE   C1B12267   9.918   7.306   6.710  0.1555  0.0963  0.2143
  899YOPE   C2B12268   9.787   7.507   7.028  0.0116 -0.0340 -0.0783
  899YOPE   D3B12269   9.680   7.778   7.278  0.0273  0.1026  0.0380
  899YOPE   C4B12270   9.581   8.074   7.161 -0.0505  0.1268 -0.2979
  900YOPE   NH312271  16.682   5.342   6.106  0.2641  0.0500 -0.1648
  900YOPE   PO412272  17.033   5.441   6.336 -0.0299 -0.2443  0.0349
  900YOPE   GL112273  17.132   5.688   6.644  0.2531  0.1107 -0.1605
  900YOPE   GL212274  17.264   5.943   6.547  0.4573  0.0804  0.0878
  900YOPE   C1A12275  17.090   5.821   7.040  0.0040  0.1741 -0.1323
  900YOPE   D2A12276  16.938   5.656   7.386 -0.3712 -0.2127  0.1462
  900YOPE   C3A12277  16.930   5.527   7.758 -0.0861 -0.0345  0.0310
  900YOPE   C4A12278  16.650   5.299   8.162 -0.2536  0.0418  0.0430
  900YOPE   C1B12279  17.495   6.060   6.942  0.0736  0.3254  0.1018
  900YOPE   C2B12280  17.491   6.020   7.303  0.4837  0.2054 -0.1351
  900YOPE   D3B12281  17.568   5.919   7.649 -0.2410  0.2077 -0.1694
  900YOPE   C4B12282  17.801   5.767   8.073  0.3095 -0.1405 -0.0618
  901YOPE   NH312283   9.367   4.641   5.703  0.1945 -0.0033 -0.2883
  901YOPE   PO412284   9.370   5.137   5.821 -0.2799 -0.0327  0.0817
  901YOPE   GL112285   9.424   5.242   6.198 -0.2816  0.0305  0.2501
  901YOPE   GL212286   9.113   5.406   6.303  0.1040 -0.3791  0.0111
  901YOPE   C1A12287   9.523   5.235   6.673  0.1215  0.1785  0.2772
  901YOPE   D2A12288   9.611   5.185   7.137 -0.1385  0.1554 -0.2445
  901YOPE   C3A12289   9.798   4.954   7.467  0.1421 -0.0074 -0.0976
  901YOPE   C4A12290   9.697   4.603   7.711  0.0236 -0.0878  0.0895
  901YOPE   C1B12291   9.068   5.554   6.738 -0.1207 -0.1192  0.1460
  901YOPE   C2B12292   9.162   5.454   7.139  0.1024  0.0264  0.2159
  901YOPE   D3B12293   9.198   5.123   7.382  0.2266 -0.4771  0.1774
  901YOPE   C4B12294   9.320   4.996   7.674  0.2153  0.2366  0.1697
  902YOPE   NH312295  10.455  17.661   5.320 -0.0352  0.0580  0.2150
  902YOPE   PO412296  10.517  17.184   5.308  0.0900  0.1240 -0.1490
  902YOPE   GL112297  10.398  17.228   5.637 -0.1467 -0.2974 -0.3335
  902YOPE   GL212298  10.566  17.353   5.878 -0.0548 -0.2906  0.0134
  902YOPE   C1A12299  10.104  17.384   5.975 -0.2222 -0.1663 -0.1780
  902YOPE   D2A12300  10.284  17.506   6.421  0.1107 -0.1599  0.2621
  902YOPE   C3A12301  10.082  17.348   6.825  0.0426  0.0634 -0.0837
  902YOPE   C4A12302   9.730  17.355   7.102 -0.0879 -0.0949 -0.1421
  902YOPE   C1B12303  10.599  17.184   6.276  0.0917 -0.0593  0.1025
  902YOPE   C2B12304  10.619  17.173   6.629 -0.1540 -0.0932  0.1868
  902YOPE   D3B12305  10.600  17.276   7.036  0.0111  0.1597  0.3292
  902YOPE   C4B12306  10.815  17.188   7.522 -0.1167  0.2696  0.0231
  903YOPE   NH312307   6.918   0.216   5.519 -0.2814  0.0385  0.0649
  903YOPE   PO412308   6.935   0.721   5.662  0.1044 -0.1254  0.3048
  903YOPE   GL112309   7.024   0.462   5.968  0.0558  0.0345  0.0722
  903YOPE   GL212310   7.123   0.189   6.008  0.0144 -0.3272  0.1452
  903YOPE   C1A12311   7.128   0.541   6.347 -0.1343  0.3138 -0.1938
  903YOPE   D2A12312   7.101   0.393   6.719 -0.0842 -0.2508  0.0373
  903YOPE   C3A12313   6.914   0.373   7.092 -0.0023 -0.2084  0.0528
  903YOPE   C4A12314   6.560   0.377   7.437  0.1147  0.3747  0.0993
  903YOPE   C1B12315   6.958   0.061   6.420  0.0495  0.0015  0.0404
  903YOPE   C2B12316   6.921  -0.044   6.890 -0.1544  0.0847 -0.0499
  903YOPE   D3B12317   6.992  -0.106   7.387  0.0381 -0.1087  0.1549
  903YOPE   C4B12318   7.135  -0.377   7.648 -0.0086  0.1750 -0.3389
  904YOPE   NH312319   6.079   5.596   5.782 -0.2929 -0.0144  0.0375
  904YOPE   PO412320   6.306   5.247   6.028 -0.0733 -0.2718 -0.0541
  904YOPE   GL112321   5.970   4.984   6.217 -0.0513  0.1164  0.0751
  904YOPE   GL212322   6.115   4.694   6.444 -0.1758 -0.0214 -0.1300
  904YOPE   C1A12323   5.808   5.055   6.677  0.0152  0.0619 -0.3743
  904YOPE   D2A12324   5.912   5.154   7.102  0.1012 -0.2069  0.0168
  904YOPE   C3A12325   5.961   5.170   7.579 -0.0886  0.0079 -0.0898
  904YOPE   C4A12326   6.101   5.078   7.978 -0.1759  0.1827  0.0224
  904YOPE   C1B12327   6.178   4.772   6.887 -0.0900  0.0446 -0.1209
  904YOPE   C2B12328   6.171   4.727   7.317  0.0371  0.1873 -0.1457
  904YOPE   D3B12329   6.443   4.714   7.759 -0.0878  0.3784 -0.0939
  904YOPE   C4B12330   6.496   4.939   8.238 -0.1360 -0.0172 -0.1805
  905YOPE   NH312331  18.116   3.257   6.160 -0.1431 -0.0097  0.0345
  905YOPE   PO412332  18.574   3.216   6.085  0.2797  0.0389 -0.1650
  905YOPE   GL112333  18.621   3.363   6.499  0.1716 -0.1340 -0.1833
  905YOPE   GL212334  18.811   3.130   6.635 -0.1425  0.1270  0.0309
  905YOPE   C1A12335  18.805   3.681   6.783  0.3426 -0.1171  0.0582
  905YOPE   D2A12336  18.612   3.986   7.131 -0.1277  0.2932 -0.1902
  905YOPE   C3A12337  18.681   3.783   7.538  0.0388 -0.2639 -0.0582
  905YOPE   C4A12338  18.973   3.584   7.786 -0.0722  0.0353 -0.1722
  905YOPE   C1B12339  18.704   3.216   7.006 -0.0059 -0.0207  0.0124
  905YOPE   C2B12340  18.462   3.441   7.284  0.2303  0.4005 -0.1535
  905YOPE   D3B12341  18.393   3.356   7.699  0.0326 -0.1224  0.1800
  905YOPE   C4B12342  18.146   3.276   8.017  0.0829  0.0125  0.1934
  906YOPE   NH312343  13.870  17.772   5.629  0.0759  0.0814  0.2991
  906YOPE   PO412344  13.780  17.490   5.827  0.2357 -0.2050 -0.0931
  906YOPE   GL112345  13.564  17.418   6.176  0.1028  0.3341  0.1857
  906YOPE   GL212346  13.258  17.454   6.124 -0.0872 -0.2407  0.0387
  906YOPE   C1A12347  13.562  17.347   6.596 -0.1106  0.3139  0.3374
  906YOPE   D2A12348  13.438  17.278   6.974 -0.0862  0.1309  0.1447
  906YOPE   C3A12349  13.484  17.421   7.345  0.0016 -0.1161  0.0978
  906YOPE   C4A12350  13.384  17.253   7.840  0.1744  0.1517 -0.0797
  906YOPE   C1B12351  13.006  17.377   6.595  0.0268  0.0469 -0.1147
  906YOPE   C2B12352  12.956  17.409   7.096 -0.0117  0.1846 -0.1187
  906YOPE   D3B12353  12.600  17.503   7.401 -0.4188 -0.0184 -0.0164
  906YOPE   C4B12354  12.377  17.508   7.753  0.2190 -0.1668  0.0460
  907YOPE   NH312355   1.660  16.872   5.591 -0.1481  0.5133  0.2759
  907YOPE   PO412356   1.460  16.404   5.596  0.3087 -0.1138  0.5123
  907YOPE   GL112357   1.326  16.658   5.928  0.0463 -0.2972  0.2426
  907YOPE   GL212358   1.202  16.988   5.851 -0.1455 -0.0423 -0.0034
  907YOPE   C1A12359   1.287  16.851   6.276 -0.2148  0.0580 -0.1829
  907YOPE   D2A12360   1.079  17.033   6.585 -0.0583 -0.2200  0.0327
  907YOPE   C3A12361   1.201  16.850   6.923 -0.0434  0.1175 -0.2226
  907YOPE   C4A12362   0.938  16.796   7.279  0.4171 -0.0649 -0.0778
  907YOPE   C1B12363   1.192  17.322   6.133 -0.2131 -0.1613  0.5074
  907YOPE   C2B12364   1.171  17.532   6.506 -0.2768  0.1950  0.2729
  907YOPE   D3B12365   1.374  17.724   6.880 -0.0274 -0.0594  0.1327
  907YOPE   C4B12366   1.354  17.770   7.312 -0.0279 -0.2542 -0.2739
  908YOPE   NH312367   9.693   8.539   5.091  0.1308  0.0857  0.0558
  908YOPE   PO412368   9.719   8.167   5.456  0.1074 -0.1612  0.3219
  908YOPE   GL112369   9.636   8.034   5.884 -0.1907 -0.0018 -0.1201
  908YOPE   GL212370   9.671   7.797   5.941  0.2996 -0.2220 -0.2467
  908YOPE   C1A12371   9.563   8.143   6.311  0.3040  0.0954 -0.0895
  908YOPE   D2A12372   9.336   8.223   6.725 -0.0715 -0.0426 -0.1153
  908YOPE   C3A12373   9.005   7.971   6.682  0.0877 -0.1283  0.0222
  908YOPE   C4A12374   8.946   7.572   6.638 -0.1918 -0.0852  0.1881
  908YOPE   C1B12375   9.350   7.717   6.311  0.0107 -0.0589  0.1893
  908YOPE   C2B12376   9.423   7.744   6.750  0.2413  0.0664 -0.3401
  908YOPE   D3B12377   9.197   7.693   7.123  0.1081  0.0819 -0.1387
  908YOPE   C4B12378   8.799   7.386   7.175 -0.1813  0.1242  0.0452
  909YOPE   NH312379  18.442   1.666   5.844 -0.1407 -0.1386 -0.1729
  909YOPE   PO412380  18.223   1.831   6.186  0.0521 -0.0018  0.1118
  909YOPE   GL112381  18.117   1.546   6.567  0.1908  0.2544  0.0100
  909YOPE   GL212382  18.192   1.194   6.593  0.2470 -0.1319 -0.0293
  909YOPE   C1A12383  17.838   1.254   6.888 -0.1935 -0.2212  0.2251
  909YOPE   D2A12384  18.062   1.202   7.203 -0.1082 -0.2062 -0.2062
  909YOPE   C3A12385  18.415   1.376   7.439 -0.1237 -0.1454  0.1520
  909YOPE   C4A12386  18.489   1.560   7.824 -0.2567 -0.0310 -0.2328
  909YOPE   C1B12387  18.082   0.848   6.725 -0.1340  0.4744 -0.0421
  909YOPE   C2B12388  18.222   0.348   6.921  0.0191 -0.0298  0.1839
  909YOPE   D3B12389  18.451   0.203   7.260 -0.2650 -0.1468 -0.3296
  909YOPE   C4B12390  18.894   0.267   7.502  0.2658  0.0551 -0.0141
  910YOPE   NH312391  13.277  16.243   5.451 -0.1741 -0.1298  0.2296
  910YOPE   PO412392  12.916  16.326   5.669  0.0631 -0.2654 -0.0920
  910YOPE   GL112393  12.890  16.586   6.030 -0.0988  0.0371 -0.0181
  910YOPE   GL212394  12.673  16.683   5.982 -0.2178 -0.1542 -0.2390
  910YOPE   C1A12395  12.844  16.419   6.463  0.0195  0.1417  0.0011
  910YOPE   D2A12396  12.819  16.311   6.885  0.0065  0.1646  0.0538
  910YOPE   C3A12397  12.487  16.382   7.214 -0.4344  0.1059  0.1753
  910YOPE   C4A12398  12.038  16.255   7.265  0.4342 -0.1935 -0.0020
  910YOPE   C1B12399  12.420  16.737   6.474  0.2749  0.0288  0.2430
  910YOPE   C2B12400  12.282  16.863   6.813 -0.3601 -0.0124 -0.2102
  910YOPE   D3B12401  12.441  16.949   7.194  0.3187  0.0186 -0.2924
  910YOPE   C4B12402  12.382  17.035   7.575  0.1675  0.2759 -0.0615
  911YOPE   NH312403   3.332   1.936   6.155 -0.3597  0.0475 -0.1900
  911YOPE   PO412404   3.724   1.943   6.063 -0.1715  0.2008  0.1482
  911YOPE   GL112405   3.759   1.817   6.570 -0.4009  0.1156  0.2090
  911YOPE   GL212406   3.530   1.928   6.637  0.2576 -0.2221 -0.1112
  911YOPE   C1A12407   3.797   1.920   7.081  0.2178  0.1496 -0.0808
  911YOPE   D2A12408   3.616   1.793   7.404  0.0056  0.0515 -0.1030
  911YOPE   C3A12409   3.603   1.352   7.572 -0.2526 -0.0216  0.2870
  911YOPE   C4A12410   3.394   1.129   7.802 -0.3225  0.0900  0.2617
  911YOPE   C1B12411   3.342   2.065   7.055  0.2530 -0.0850  0.1214
  911YOPE   C2B12412   3.089   2.109   7.407  0.0778 -0.0175  0.5040
  911YOPE   D3B12413   2.805   2.360   7.591 -0.1202 -0.2645 -0.0640
  911YOPE   C4B12414   2.544   2.575   7.872 -0.1632 -0.1215  0.4430
  912YOPE   NH312415   3.198   8.780   5.990 -0.2221  0.0893  0.1061
  912YOPE   PO412416   3.051   8.389   5.880 -0.2805  0.0901  0.1212
  912YOPE   GL112417   2.915   8.493   6.303 -0.0657 -0.0106 -0.1798
  912YOPE   GL212418   2.635   8.356   6.413 -0.1368 -0.0355  0.2637
  912YOPE   C1A12419   2.971   8.623   6.692 -0.1443 -0.1847 -0.4004
  912YOPE   D2A12420   3.097   8.771   7.043 -0.1903  0.0624  0.0297
  912YOPE   C3A12421   3.384   8.573   7.474 -0.3978  0.2652  0.1024
  912YOPE   C4A12422   3.455   8.656   7.957 -0.2617 -0.1801  0.0024
  912YOPE   C1B12423   2.528   8.137   6.861  0.0742 -0.3212  0.0593
  912YOPE   C2B12424   2.636   7.948   7.287  0.4571 -0.0521 -0.3922
  912YOPE   D3B12425   2.377   7.823   7.555 -0.3705 -0.1137 -0.2928
  912YOPE   C4B12426   2.239   7.546   7.814  0.0580 -0.2300  0.1212
  913YOPE   NH312427  17.895   8.117   5.448 -0.0999  0.0479 -0.1514
  913YOPE   PO412428  17.476   8.071   5.725 -0.1415 -0.2399  0.3320
  913YOPE   GL112429  17.462   8.145   6.165  0.1754 -0.1144  0.1021
  913YOPE   GL212430  17.156   8.225   6.414 -0.0084 -0.0119  0.0301
  913YOPE   C1A12431  17.630   8.037   6.640  0.1352  0.0879  0.2478
  913YOPE   D2A12432  17.577   8.093   7.018  0.1385  0.2881 -0.1790
  913YOPE   C3A12433  17.863   8.351   7.301  0.1200  0.1065  0.0588
  913YOPE   C4A12434  18.241   8.538   7.551  0.1445  0.1991 -0.3210
  913YOPE   C1B12435  17.111   8.340   6.802 -0.0618 -0.1978  0.1261
  913YOPE   C2B12436  17.159   8.276   7.129  0.0634  0.0565  0.1503
  913YOPE   D3B12437  17.380   8.397   7.426  0.2959  0.0485 -0.0540
  913YOPE   C4B12438  17.653   8.473   7.756 -0.2478  0.2910 -0.2211
  914YOPE   NH312439  18.057  14.131   5.505  0.1373 -0.2350 -0.0717
  914YOPE   PO412440  18.207  13.662   5.501  0.2582  0.2740 -0.2056
  914YOPE   GL112441  18.176  13.612   6.006 -0.2850  0.3532 -0.1260
  914YOPE   GL212442  18.235  13.340   5.936  0.0553  0.0541 -0.3335
  914YOPE   C1A12443  18.221  13.769   6.437  0.2321 -0.1627  0.0254
  914YOPE   D2A12444  18.042  13.831   6.855 -0.0708 -0.0004 -0.3166
  914YOPE   C3A12445  17.851  14.005   7.140 -0.0833 -0.2864  0.0251
  914YOPE   C4A12446  17.700  14.117   7.545 -0.1275  0.2931  0.0765
  914YOPE   C1B12447  18.031  13.280   6.353  0.0302  0.0100  0.0773
  914YOPE   C2B12448  17.955  13.340   6.729  0.0967 -0.1592  0.0254
  914YOPE   D3B12449  17.908  13.394   7.161  0.0156  0.1372 -0.1687
  914YOPE   C4B12450  18.100  13.608   7.588  0.1975 -0.1526  0.2857
  915YOPE   NH312451   6.861   6.648   6.172 -0.0548 -0.1494 -0.3670
  915YOPE   PO412452   6.401   6.753   6.237  0.1401  0.2341 -0.2251
  915YOPE   GL112453   6.438   6.556   6.616  0.0852 -0.1076  0.2912
  915YOPE   GL212454   6.628   6.429   6.607 -0.1153  0.0348 -0.1628
  915YOPE   C1A12455   6.119   6.393   6.832 -0.2609 -0.1080 -0.0360
  915YOPE   D2A12456   5.964   6.696   7.227  0.0758 -0.2264 -0.0956
  915YOPE   C3A12457   5.452   6.685   7.545  0.2543 -0.2167 -0.3759
  915YOPE   C4A12458   5.135   6.837   7.863 -0.2489  0.1270  0.1358
  915YOPE   C1B12459   6.840   6.582   6.940  0.1910  0.2322 -0.1574
  915YOPE   C2B12460   6.963   6.968   7.089 -0.1306  0.3532  0.1007
  915YOPE   D3B12461   6.936   7.255   7.419 -0.1876  0.2687  0.1784
  915YOPE   C4B12462   6.915   7.490   7.669  0.1228  0.0677 -0.0703
  916YOPE   NH312463  18.265  15.383   5.486 -0.0017 -0.3104 -0.3847
  916YOPE   PO412464  18.071  15.041   5.613  0.0115 -0.1309  0.1742
  916YOPE   GL112465  18.198  15.168   6.029 -0.1326  0.0211  0.1138
  916YOPE   GL212466  18.411  15.364   5.945  0.0432 -0.0832  0.0198
  916YOPE   C1A12467  18.262  15.125   6.497 -0.0850  0.1074 -0.0112
  916YOPE   D2A12468  18.134  15.235   7.010 -0.2275  0.2164  0.2209
  916YOPE   C3A12469  18.273  15.146   7.313 -0.0167  0.1221 -0.1625
  916YOPE   C4A12470  18.542  14.798   7.584  0.0895  0.0783 -0.0401
  916YOPE   C1B12471  18.510  15.502   6.250 -0.0351 -0.3461  0.1841
  916YOPE   C2B12472  18.360  15.568   6.661  0.1894  0.0503  0.1294
  916YOPE   D3B12473  18.107  15.761   7.000 -0.0053  0.1384 -0.0182
  916YOPE   C4B12474  17.957  15.517   7.424  0.0145  0.0417  0.2991
  917YOPE   NH312475  11.617  13.951   5.607  0.0846 -0.0602 -0.4263
  917YOPE   PO412476  11.821  13.732   5.846  0.0269 -0.4491  0.1850
  917YOPE   GL112477  12.144  13.486   5.939  0.0627  0.1032  0.0710
  917YOPE   GL212478  12.004  13.214   5.972 -0.3111  0.0221  0.0975
  917YOPE   C1A12479  12.308  13.417   6.363  0.0322  0.0834  0.3878
  917YOPE   D2A12480  12.392  13.498   6.745  0.1431 -0.2093 -0.1229
  917YOPE   C3A12481  12.227  13.299   7.088  0.3273 -0.0072  0.0631
  917YOPE   C4A12482  12.463  13.311   7.556  0.0069  0.2206  0.4342
  917YOPE   C1B12483  12.028  12.912   6.270 -0.2122 -0.1211  0.0642
  917YOPE   C2B12484  11.940  12.930   6.742  0.1481 -0.0145 -0.1985
  917YOPE   D3B12485  11.652  12.697   7.018 -0.0027  0.1632  0.3114
  917YOPE   C4B12486  11.322  12.615   7.239  0.2982  0.2051 -0.1906
  918YOPE   NH312487   7.454   0.316   5.648 -0.3517  0.0775  0.0675
  918YOPE   PO412488   7.306  -0.123   5.594 -0.1763  0.1698  0.2539
  918YOPE   GL112489   7.534  -0.069   5.975 -0.2243 -0.0484  0.1680
  918YOPE   GL212490   7.735  -0.103   5.997  0.1534  0.0332  0.1967
  918YOPE   C1A12491   7.457  -0.162   6.458  0.1409 -0.0510  0.1104
  918YOPE   D2A12492   7.383  -0.100   6.979  0.1694  0.0104 -0.4078
  918YOPE   C3A12493   7.525  -0.365   7.327  0.0909  0.3804  0.0541
  918YOPE   C4A12494   7.899  -0.724   7.350 -0.1992 -0.1045 -0.3816
  918YOPE   C1B12495   7.943   0.087   6.286 -0.0742  0.1291 -0.2982
  918YOPE   C2B12496   7.936   0.127   6.681 -0.1051 -0.0960  0.0678
  918YOPE   D3B12497   7.838   0.133   7.144  0.0342  0.2166  0.0839
  918YOPE   C4B12498   7.977  -0.262   7.496 -0.3638 -0.3051  0.1053
  919YOPE   NH312499  14.191   9.671   5.337  0.1285  0.0446  0.0900
  919YOPE   PO412500  13.844   9.789   5.585  0.2006 -0.1869 -0.2144
  919YOPE   GL112501  13.597   9.703   5.929 -0.1373 -0.0796  0.1492
  919YOPE   GL212502  13.416   9.957   5.865 -0.4007 -0.3555 -0.2966
  919YOPE   C1A12503  13.408   9.738   6.352 -0.0975  0.1754 -0.4401
  919YOPE   D2A12504  13.501   9.699   6.751 -0.3671  0.1850 -0.1303
  919YOPE   C3A12505  13.245   9.477   7.066  0.0925  0.0023 -0.1800
  919YOPE   C4A12506  12.908   9.269   7.265 -0.0146 -0.1702 -0.0288
  919YOPE   C1B12507  13.049   9.790   5.963  0.1269 -0.2630 -0.4573
  919YOPE   C2B12508  12.856   9.866   6.321  0.0468 -0.1735  0.2662
  919YOPE   D3B12509  13.020   9.859   6.700  0.0304  0.0859  0.1277
  919YOPE   C4B12510  13.087   9.979   7.115 -0.0203 -0.1025 -0.0272
  920YOPE   NH312511  13.141   3.736   6.048 -0.2078  0.2060  0.2409
  920YOPE   PO412512  13.166   3.464   6.352  0.1872  0.4341  0.0129
  920YOPE   GL112513  13.288   3.154   6.669  0.0290 -0.0459  0.3397
  920YOPE   GL212514  12.983   3.257   6.839  0.0715  0.0153 -0.3673
  920YOPE   C1A12515  13.392   3.011   7.045  0.0418  0.3779 -0.0118
  920YOPE   D2A12516  13.348   2.857   7.473  0.1092 -0.1025 -0.0854
  920YOPE   C3A12517  13.374   2.851   7.932  0.0587 -0.0310 -0.1196
  920YOPE   C4A12518  13.568   2.678   8.158 -0.1663  0.3880  0.0860
  920YOPE   C1B12519  12.932   3.216   7.302  0.0005  0.1614  0.1637
  920YOPE   C2B12520  12.983   3.300   7.749  0.0387 -0.0783 -0.1525
  920YOPE   D3B12521  12.724   3.277   8.056 -0.1506  0.3371  0.1747
  920YOPE   C4B12522  12.327   3.123   8.196 -0.1801 -0.0490  0.0178
  921YOPE   NH312523  11.967   5.996   6.104  0.0653  0.1659  0.4087
  921YOPE   PO412524  11.809   6.363   6.092 -0.1320  0.0998  0.2031
  921YOPE   GL112525  11.720   6.700   6.427  0.4194  0.0233 -0.2451
  921YOPE   GL212526  11.972   6.864   6.375 -0.2625 -0.2509  0.0212
  921YOPE   C1A12527  11.528   6.743   6.800  0.4676 -0.2059 -0.1389
  921YOPE   D2A12528  11.189   6.821   7.097 -0.0346 -0.0413  0.0420
  921YOPE   C3A12529  11.051   6.684   7.537  0.0408  0.1462 -0.0141
  921YOPE   C4A12530  10.621   6.695   7.654 -0.3751 -0.2908 -0.3614
  921YOPE   C1B12531  12.170   6.648   6.707 -0.1474  0.0922 -0.0559
  921YOPE   C2B12532  12.038   6.716   7.067 -0.2326 -0.1675  0.1010
  921YOPE   D3B12533  11.981   6.866   7.487  0.0269 -0.2753 -0.1911
  921YOPE   C4B12534  11.923   7.162   7.704 -0.0846 -0.2249 -0.3426
  922YOPE   NH312535  14.433   0.154   5.760  0.0778  0.0040 -0.0557
  922YOPE   PO412536  14.620  -0.162   5.838 -0.0832  0.1444 -0.3118
  922YOPE   GL112537  14.651  -0.300   6.222  0.0126  0.2860  0.1772
  922YOPE   GL212538  14.385  -0.547   6.292 -0.0900  0.1024  0.2558
  922YOPE   C1A12539  14.743  -0.432   6.629  0.0778  0.1799  0.0686
  922YOPE   D2A12540  14.819  -0.445   7.023 -0.5031 -0.0198 -0.1043
  922YOPE   C3A12541  15.040  -0.248   7.232 -0.3069  0.0403 -0.0665
  922YOPE   C4A12542  15.239   0.026   7.516 -0.2322 -0.2488 -0.3314
  922YOPE   C1B12543  14.297  -0.548   6.748 -0.1936 -0.0562 -0.2391
  922YOPE   C2B12544  14.322  -0.382   7.197 -0.1427 -0.0312 -0.0517
  922YOPE   D3B12545  14.553  -0.546   7.439  0.2833  0.2180  0.3440
  922YOPE   C4B12546  14.895  -0.370   7.659  0.1302 -0.3249 -0.4017
  923YOPE   NH312547  10.607  14.760   4.874  0.1552  0.0013  0.2163
  923YOPE   PO412548  10.394  14.638   5.157 -0.1914 -0.3421 -0.0936
  923YOPE   GL112549  10.407  14.890   5.583  0.1172  0.1010 -0.1298
  923YOPE   GL212550  10.195  15.064   5.715  0.2128  0.0391 -0.1404
  923YOPE   C1A12551  10.569  14.783   6.055  0.1582  0.1936  0.1203
  923YOPE   D2A12552  10.485  15.036   6.388  0.0330 -0.0184 -0.0477
  923YOPE   C3A12553  10.101  14.877   6.543  0.1797 -0.1009  0.2319
  923YOPE   C4A12554   9.932  14.685   6.995 -0.3427 -0.1002  0.0183
  923YOPE   C1B12555  10.020  15.328   6.062 -0.2356 -0.0529 -0.0098
  923YOPE   C2B12556   9.654  15.333   6.248 -0.0692  0.1042 -0.0362
  923YOPE   D3B12557   9.646  15.160   6.693 -0.2166 -0.0797 -0.0182
  923YOPE   C4B12558   9.833  15.274   7.120 -0.0328  0.0489  0.3307
  924YOPE   NH312559   4.020  10.115   6.056 -0.0851 -0.1384  0.0289
  924YOPE   PO412560   4.350   9.906   5.869  0.0308  0.0681 -0.1166
  924YOPE   GL112561   4.241   9.705   6.315 -0.0174  0.3276  0.1510
  924YOPE   GL212562   4.424   9.903   6.505 -0.2715 -0.0629 -0.1152
  924YOPE   C1A12563   3.970   9.854   6.684 -0.2834  0.0824 -0.1983
  924YOPE   D2A12564   3.962   9.927   7.157  0.1625 -0.2039 -0.0125
  924YOPE   C3A12565   3.612  10.212   7.238  0.3882 -0.2483 -0.1572
  924YOPE   C4A12566   3.563  10.598   6.928  0.0996  0.2326 -0.2714
  924YOPE   C1B12567   4.436  10.121   6.896  0.0448  0.1006  0.0923
  924YOPE   C2B12568   4.488  10.057   7.283  0.1640 -0.0536 -0.1174
  924YOPE   D3B12569   4.310  10.129   7.625  0.1828  0.1352 -0.2880
  924YOPE   C4B12570   4.221  10.342   7.993  0.0066 -0.3086  0.1969
  925YOPE   NH312571  15.512  16.579   5.521 -0.0081 -0.0837  0.2218
  925YOPE   PO412572  15.612  16.877   5.885 -0.3237 -0.1374  0.1848
  925YOPE   GL112573  15.642  16.883   6.246  0.1005 -0.1360  0.1444
  925YOPE   GL212574  15.978  17.067   6.298  0.1646 -0.0898 -0.3949
  925YOPE   C1A12575  15.722  16.630   6.641 -0.0105  0.2734  0.1029
  925YOPE   D2A12576  15.865  16.652   7.062 -0.2557 -0.0285 -0.1981
  925YOPE   C3A12577  15.739  16.510   7.369 -0.2387 -0.1200 -0.4327
  925YOPE   C4A12578  15.836  16.041   7.392 -0.0594 -0.1982  0.2035
  925YOPE   C1B12579  16.005  17.362   6.778  0.4237  0.0108  0.3160
  925YOPE   C2B12580  15.988  17.564   7.104 -0.1200  0.3074  0.0873
  925YOPE   D3B12581  16.075  17.900   7.425  0.0531  0.1291  0.0261
  925YOPE   C4B12582  16.432  17.865   7.647  0.0605  0.0118  0.1246
  926YOPE   NH312583   4.688  12.488   5.909 -0.2172  0.1184  0.0376
  926YOPE   PO412584   5.083  12.360   5.994 -0.0010 -0.3369 -0.0071
  926YOPE   GL112585   4.931  12.242   6.334  0.3653  0.0012  0.0897
  926YOPE   GL212586   4.594  12.147   6.331  0.1991  0.1266 -0.3082
  926YOPE   C1A12587   4.824  12.288   6.730  0.0785 -0.2011 -0.1511
  926YOPE   D2A12588   4.837  12.370   7.075  0.2588 -0.0909  0.1386
  926YOPE   C3A12589   4.479  12.489   7.192 -0.1218  0.0100 -0.2150
  926YOPE   C4A12590   4.295  12.702   7.576  0.1437  0.0124  0.0501
  926YOPE   C1B12591   4.674  11.762   6.581  0.1047  0.0781 -0.2016
  926YOPE   C2B12592   4.727  11.655   7.075 -0.3381  0.2958 -0.4862
  926YOPE   D3B12593   4.696  11.448   7.376 -0.0025  0.0685  0.2748
  926YOPE   C4B12594   4.725  11.196   7.728 -0.0181 -0.0309  0.1147
  927YOPE   NH312595   7.276  11.843   5.918 -0.0279 -0.0732 -0.0920
  927YOPE   PO412596   7.227  12.198   5.547  0.1966 -0.2328 -0.3679
  927YOPE   GL112597   7.274  12.403   5.947  0.2378  0.5340  0.0877
  927YOPE   GL212598   7.534  12.347   6.006 -0.0700  0.0361 -0.1308
  927YOPE   C1A12599   7.056  12.333   6.383  0.0244 -0.1077  0.0851
  927YOPE   D2A12600   6.815  12.240   6.761  0.0015  0.0148  0.1064
  927YOPE   C3A12601   6.904  12.232   7.182 -0.2177  0.0096  0.0535
  927YOPE   C4A12602   6.888  12.235   7.663 -0.0130  0.0482  0.0857
  927YOPE   C1B12603   7.519  12.390   6.533 -0.2702  0.0061 -0.0734
  927YOPE   C2B12604   7.410  12.214   6.812 -0.0617 -0.0066  0.0762
  927YOPE   D3B12605   7.621  11.814   6.980 -0.1933  0.0511 -0.0620
  927YOPE   C4B12606   7.565  11.711   7.408 -0.0544  0.1221 -0.0365
  928YOPE   NH312607   4.362   9.426   5.941 -0.0411  0.0577  0.1727
  928YOPE   PO412608   3.924   9.629   5.970  0.1910 -0.2886 -0.1381
  928YOPE   GL112609   3.687   9.493   6.376  0.1266  0.3035  0.4358
  928YOPE   GL212610   3.424   9.446   6.362  0.3635  0.3687  0.0548
  928YOPE   C1A12611   3.674   9.520   6.885  0.2029  0.0649  0.2444
  928YOPE   D2A12612   3.821   9.433   7.222  0.0748 -0.1938 -0.1385
  928YOPE   C3A12613   3.686   9.490   7.610 -0.1060 -0.4496 -0.2266
  928YOPE   C4A12614   3.345   9.637   7.877 -0.2268 -0.0648  0.3649
  928YOPE   C1B12615   3.262   9.248   6.871 -0.3397 -0.0565 -0.0897
  928YOPE   C2B12616   3.491   9.014   7.145  0.0374  0.1546  0.4846
  928YOPE   D3B12617   3.581   9.034   7.514 -0.1558  0.2665 -0.1404
  928YOPE   C4B12618   3.644   9.136   7.910  0.2082  0.2418  0.4121
  929YOPE   NH312619   5.422   7.878   6.207  0.0344  0.0421 -0.0626
  929YOPE   PO412620   5.789   7.862   6.258  0.1347  0.2224  0.0775
  929YOPE   GL112621   5.724   7.796   6.617 -0.2305  0.2846  0.0290
  929YOPE   GL212622   5.533   8.062   6.774  0.0223  0.0004 -0.1476
  929YOPE   C1A12623   5.894   7.813   6.987 -0.5267 -0.2663 -0.1393
  929YOPE   D2A12624   6.029   7.558   7.320 -0.0431 -0.1467 -0.0414
  929YOPE   C3A12625   5.788   7.443   7.689 -0.2376  0.0212 -0.2270
  929YOPE   C4A12626   5.814   7.560   8.138 -0.2525 -0.5314  0.0797
  929YOPE   C1B12627   5.615   8.084   7.265 -0.0837  0.1751  0.1645
  929YOPE   C2B12628   5.880   7.967   7.646 -0.1504 -0.0802  0.1435
  929YOPE   D3B12629   6.134   8.075   7.916  0.0542  0.4051  0.1838
  929YOPE   C4B12630   6.202   8.317   8.366  0.1129  0.1037 -0.1776
  930YOPE   NH312631   2.539   4.737   6.177  0.3410  0.0198 -0.3225
  930YOPE   PO412632   2.704   4.481   5.995  0.0586  0.0019  0.0842
  930YOPE   GL112633   2.670   4.142   6.312 -0.0894  0.1270 -0.0126
  930YOPE   GL212634   2.324   3.904   6.362 -0.2298  0.2061 -0.2510
  930YOPE   C1A12635   2.679   4.012   6.769  0.0059  0.0762  0.4623
  930YOPE   D2A12636   2.504   3.974   7.217  0.1435  0.1016  0.2200
  930YOPE   C3A12637   2.645   4.213   7.592 -0.1330  0.0552 -0.2193
  930YOPE   C4A12638   2.878   4.513   7.889 -0.2478 -0.5287 -0.2032
  930YOPE   C1B12639   2.200   3.746   6.750 -0.2905 -0.2389 -0.0994
  930YOPE   C2B12640   2.402   3.478   7.053  0.1397 -0.1400 -0.0393
  930YOPE   D3B12641   2.314   3.086   7.260  0.2721  0.0686 -0.2641
  930YOPE   C4B12642   2.495   2.743   7.368  0.2836 -0.0668 -0.2193
  931YOPE   NH312643  15.825   9.220   5.655  0.1609  0.2065 -0.0616
  931YOPE   PO412644  15.395   9.398   5.729  0.2004 -0.0093  0.0901
  931YOPE   GL112645  15.657   9.481   6.112  0.2601 -0.1628 -0.1157
  931YOPE   GL212646  15.973   9.470   6.158 -0.1663 -0.3735 -0.4618
  931YOPE   C1A12647  15.654   9.557   6.548 -0.1278 -0.1605 -0.0221
  931YOPE   D2A12648  15.838   9.832   6.869  0.0239  0.1198  0.0848
  931YOPE   C3A12649  15.893   9.778   7.247  0.1378  0.0349 -0.1150
  931YOPE   C4A12650  15.834   9.858   7.711 -0.1953  0.0236 -0.1294
  931YOPE   C1B12651  16.126   9.135   6.367  0.2233  0.1310  0.2312
  931YOPE   C2B12652  16.519   8.935   6.649  0.0122  0.0732  0.0917
  931YOPE   D3B12653  16.557   9.040   7.080 -0.1213  0.1366 -0.0099
  931YOPE   C4B12654  16.787   9.237   7.426  0.0187  0.3960 -0.3330
  932YOPE   NH312655   7.774  10.909   5.696  0.3597  0.1016  0.1368
  932YOPE   PO412656   7.311  10.899   5.675 -0.1205  0.0870 -0.1424
  932YOPE   GL112657   7.493  10.882   6.102  0.1173 -0.0878 -0.1171
  932YOPE   GL212658   7.693  10.724   6.170 -0.2167 -0.1730 -0.1249
  932YOPE   C1A12659   7.287  11.076   6.463  0.0135 -0.0328 -0.2614
  932YOPE   D2A12660   7.343  11.381   6.705  0.1897 -0.1817 -0.0624
  932YOPE   C3A12661   7.449  11.815   6.491 -0.0943  0.2562 -0.0350
  932YOPE   C4A12662   7.828  12.000   6.585  0.0544 -0.0192 -0.2366
  932YOPE   C1B12663   7.745  10.897   6.594  0.1100 -0.0498 -0.0301
  932YOPE   C2B12664   7.782  11.115   6.954  0.0408  0.1041 -0.1574
  932YOPE   D3B12665   7.563  11.324   7.102  0.1220 -0.0727 -0.3304
  932YOPE   C4B12666   7.063  11.354   7.109 -0.0454  0.1821 -0.1669
  933YOPE   NH312667  16.577  15.689   5.462 -0.1959  0.0360  0.1778
  933YOPE   PO412668  16.448  16.095   5.722 -0.1794 -0.2270 -0.2922
  933YOPE   GL112669  16.201  16.183   6.089  0.0405 -0.0157  0.3537
  933YOPE   GL212670  15.919  16.316   6.025 -0.0427  0.0336 -0.0630
  933YOPE   C1A12671  16.014  16.156   6.503  0.1299  0.1137 -0.1085
  933YOPE   D2A12672  15.887  16.170   6.928 -0.1354 -0.2254 -0.1985
  933YOPE   C3A12673  15.407  16.095   7.139 -0.3571 -0.1653 -0.0459
  933YOPE   C4A12674  15.209  15.942   7.551 -0.3971 -0.1661  0.0061
  933YOPE   C1B12675  16.106  16.636   6.317 -0.5430 -0.0544  0.2470
  933YOPE   C2B12676  16.467  16.837   6.392  0.3341 -0.0503 -0.2829
  933YOPE   D3B12677  16.745  16.711   6.674  0.4042 -0.2911 -0.4915
  933YOPE   C4B12678  16.901  16.678   6.982 -0.2345 -0.1278 -0.0288
  934YOPE   NH312679   7.711   3.826   6.073  0.3083  0.1345  0.1518
  934YOPE   PO412680   8.091   3.720   5.917  0.0885  0.0554 -0.1095
  934YOPE   GL112681   8.050   3.518   6.282  0.2999 -0.3266  0.1509
  934YOPE   GL212682   7.963   3.180   6.110  0.0868 -0.2569 -0.2493
  934YOPE   C1A12683   7.889   3.730   6.669 -0.0275 -0.2309 -0.0506
  934YOPE   D2A12684   7.589   3.995   7.037  0.0966 -0.0688 -0.2299
  934YOPE   C3A12685   7.758   4.362   7.394  0.0391 -0.0565 -0.1105
  934YOPE   C4A12686   7.838   4.675   7.763 -0.0240 -0.3876 -0.2948
  934YOPE   C1B12687   8.156   3.119   6.522 -0.1836 -0.2207  0.1238
  934YOPE   C2B12688   8.194   2.961   6.897  0.1229 -0.1473  0.0931
  934YOPE   D3B12689   8.449   2.806   7.145 -0.3887  0.1030 -0.0915
  934YOPE   C4B12690   8.673   2.669   7.537 -0.1541  0.3135  0.2749
  935YOPE   NH312691  15.998   2.932   6.048 -0.4897 -0.2182  0.0007
  935YOPE   PO412692  15.544   3.080   5.972 -0.2194 -0.0135 -0.1175
  935YOPE   GL112693  15.618   3.145   6.380  0.1584  0.3332 -0.3795
  935YOPE   GL212694  15.799   2.946   6.514 -0.4487  0.4001  0.3813
  935YOPE   C1A12695  15.326   3.015   6.789 -0.1608  0.4234  0.0771
  935YOPE   D2A12696  15.357   2.847   7.277 -0.3335 -0.1361  0.0263
  935YOPE   C3A12697  15.314   3.067   7.635 -0.1338  0.2105  0.1132
  935YOPE   C4A12698  15.194   3.284   7.961 -0.2959  0.1782  0.1259
  935YOPE   C1B12699  15.857   2.880   6.996 -0.0607  0.2675 -0.0774
  935YOPE   C2B12700  15.827   2.824   7.395 -0.2700  0.0819  0.0364
  935YOPE   D3B12701  15.655   2.800   7.713 -0.2166  0.4034 -0.1120
  935YOPE   C4B12702  15.758   2.534   8.140  0.4125  0.2086 -0.0701
  936YOPE   NH312703  12.581   8.087   5.808 -0.1043 -0.2087 -0.0794
  936YOPE   PO412704  12.428   8.404   5.572 -0.0420  0.0030  0.2267
  936YOPE   GL112705  12.408   8.694   5.948  0.1016 -0.1871  0.0329
  936YOPE   GL212706  12.791   8.847   5.981 -0.0361 -0.1162 -0.2586
  936YOPE   C1A12707  12.469   9.222   6.078 -0.0698  0.0098  0.0823
  936YOPE   D2A12708  12.288   9.550   5.976 -0.0756 -0.2181  0.3547
  936YOPE   C3A12709  12.232   9.810   6.272 -0.0713  0.0551  0.2900
  936YOPE   C4A12710  12.510   9.970   6.611  0.2047 -0.0162 -0.0134
  936YOPE   C1B12711  12.468   8.904   6.381 -0.1896  0.1632 -0.0730
  936YOPE   C2B12712  12.101   8.876   6.641 -0.0490 -0.0097 -0.2680
  936YOPE   D3B12713  11.818   8.632   6.614 -0.1788  0.1045  0.0415
  936YOPE   C4B12714  11.628   8.531   6.973 -0.0881 -0.0548  0.0687
  937YOPE   NH312715   1.211  17.721   5.570 -0.1270 -0.0546 -0.0804
  937YOPE   PO412716   1.494  17.315   5.558  0.1248 -0.0061  0.1916
  937YOPE   GL112717   1.801  17.265   5.852  0.2898 -0.2180  0.1356
  937YOPE   GL212718   1.629  17.121   6.046  0.0775 -0.0872  0.1410
  937YOPE   C1A12719   2.051  17.472   6.184 -0.0387  0.2234  0.3267
  937YOPE   D2A12720   2.305  17.330   6.494  0.0373  0.3302 -0.2775
  937YOPE   C3A12721   2.276  17.281   7.036  0.0491  0.2279 -0.0259
  937YOPE   C4A12722   2.379  17.315   7.518  0.0947 -0.1539 -0.0794
  937YOPE   C1B12723   1.623  17.274   6.492 -0.2237 -0.3971  0.1900
  937YOPE   C2B12724   1.861  17.106   6.793  0.2939 -0.2041  0.2171
  937YOPE   D3B12725   1.884  17.072   7.282  0.0595 -0.1775  0.2525
  937YOPE   C4B12726   2.213  16.795   7.511 -0.0067  0.1079  0.3074
  938YOPE   NH312727  11.010   1.908   6.394  0.0717 -0.1990 -0.0637
  938YOPE   PO412728  11.407   1.790   6.351  0.0659 -0.3342  0.2399
  938YOPE   GL112729  11.321   1.586   6.679  0.3736 -0.1746 -0.1705
  938YOPE   GL212730  10.956   1.458   6.732  0.2199 -0.0383  0.2443
  938YOPE   C1A12731  11.467   1.507   7.097  0.0327 -0.3338  0.0638
  938YOPE   D2A12732  11.691   1.411   7.457  0.3403 -0.0333 -0.2065
  938YOPE   C3A12733  11.617   1.053   7.724  0.1076  0.1403 -0.0451
  938YOPE   C4A12734  11.633   0.837   8.124 -0.1115  0.2140  0.2507
  938YOPE   C1B12735  10.961   1.529   7.068 -0.0253 -0.0659  0.2455
  938YOPE   C2B12736  11.160   1.475   7.486  0.1056 -0.1261  0.1913
  938YOPE   D3B12737  11.396   1.602   7.809 -0.0360 -0.0795 -0.0947
  938YOPE   C4B12738  11.526   1.835   8.064 -0.2032  0.0065  0.0629
  939YOPE   NH312739   1.929  11.652   5.784  0.0052 -0.0187 -0.1421
  939YOPE   PO412740   2.015  12.124   5.747 -0.0745  0.0012  0.0592
  939YOPE   GL112741   2.137  12.008   6.162 -0.0145 -0.2126  0.2515
  939YOPE   GL212742   2.037  12.464   6.171  0.1973 -0.2491  0.2755
  939YOPE   C1A12743   2.316  11.846   6.611 -0.1123  0.1430  0.1020
  939YOPE   D2A12744   2.523  11.661   7.033 -0.2283  0.1144  0.4380
  939YOPE   C3A12745   2.210  11.581   7.296  0.0549  0.2379 -0.0014
  939YOPE   C4A12746   2.100  11.689   7.632 -0.1135  0.1505  0.1265
  939YOPE   C1B12747   2.047  12.323   6.674  0.2179 -0.2839 -0.3844
  939YOPE   C2B12748   2.306  12.163   7.042 -0.0938 -0.0048 -0.0873
  939YOPE   D3B12749   2.543  12.013   7.439  0.1941  0.2232  0.0413
  939YOPE   C4B12750   2.623  12.193   7.767 -0.1106  0.1683  0.1880
  940YOPE   NH312751  11.851   1.868   6.194  0.0291  0.0817  0.0804
  940YOPE   PO412752  12.163   2.108   6.193  0.2630 -0.1367 -0.2487
  940YOPE   GL112753  12.181   2.146   6.714 -0.0112 -0.1057  0.0337
  940YOPE   GL212754  12.465   1.935   6.734  0.3348  0.2375  0.1011
  940YOPE   C1A12755  12.063   2.147   7.246 -0.1413  0.2234  0.1597
  940YOPE   D2A12756  12.161   2.414   7.652  0.2034 -0.1407 -0.1954
  940YOPE   C3A12757  11.811   2.505   7.964  0.2631  0.1178  0.0708
  940YOPE   C4A12758  11.636   2.854   8.139  0.0141  0.0516 -0.0627
  940YOPE   C1B12759  12.606   2.079   7.131  0.0666  0.1010  0.0255
  940YOPE   C2B12760  12.569   2.300   7.428  0.0742  0.1741  0.0163
  940YOPE   D3B12761  12.672   2.267   7.816  0.1371 -0.1585 -0.0993
  940YOPE   C4B12762  12.566   2.332   8.359 -0.4905  0.3256 -0.2934
  941YOPE   NH312763   7.600   8.691   6.111 -0.1888  0.1729 -0.3163
  941YOPE   PO412764   7.543   9.164   6.260 -0.3459  0.2362 -0.1504
  941YOPE   GL112765   7.373   9.325   6.578  0.2588 -0.2968  0.3556
  941YOPE   GL212766   7.160   9.542   6.513  0.1478 -0.3100 -0.1113
  941YOPE   C1A12767   7.324   9.156   6.916  0.0868  0.1543 -0.0894
  941YOPE   D2A12768   7.434   9.162   7.380  0.4076  0.0002 -0.0714
  941YOPE   C3A12769   7.228   8.936   7.663 -0.3622 -0.2064 -0.2084
  941YOPE   C4A12770   7.322   9.041   8.187 -0.0477  0.1631  0.0740
  941YOPE   C1B12771   7.330   9.672   6.951  0.1460 -0.2333 -0.2842
  941YOPE   C2B12772   7.328   9.645   7.391  0.1926 -0.1004 -0.2736
  941YOPE   D3B12773   7.433   9.478   7.790 -0.1130  0.0002  0.4187
  941YOPE   C4B12774   7.690   9.035   7.829  0.0815 -0.0264 -0.2236
  942POPC   NC312775  13.410   4.611   6.305 -0.0226 -0.0336  0.1207
  942POPC   PO412776  13.526   4.204   6.077 -0.2517  0.1615 -0.2391
  942POPC   GL112777  13.729   4.098   6.452  0.0004 -0.1643 -0.2632
  942POPC   GL212778  13.578   4.254   6.690  0.2237  0.2093 -0.1239
  942POPC   C1A12779  13.833   3.830   6.762 -0.2084 -0.3254 -0.1365
  942POPC   D2A12780  14.005   3.577   7.091 -0.0684 -0.2126  0.0237
  942POPC   C3A12781  13.824   3.711   7.513  0.3731 -0.2222  0.3024
  942POPC   C4A12782  13.745   3.841   7.973  0.0981  0.0340 -0.1964
  942POPC   C1B12783  13.628   4.047   7.158  0.0310  0.3689 -0.3281
  942POPC   C2B12784  13.496   4.173   7.584  0.3018 -0.1320 -0.3461
  942POPC   C3B12785  13.367   4.398   7.977 -0.0050  0.3990 -0.1479
  942POPC   C4B12786  13.540   4.466   8.325  0.2291  0.0028  0.0302
  943POPC   NC312787   4.529  16.850   4.972 -0.0596  0.0080  0.1525
  943POPC   PO412788   4.457  16.777   5.451  0.4393  0.2225 -0.2218
  943POPC   GL112789   4.639  16.905   5.789  0.0931 -0.1300  0.3151
  943POPC   GL212790   4.716  17.227   5.892  0.3511 -0.1280 -0.0460
  943POPC   C1A12791   4.907  16.886   6.159  0.1252 -0.1897  0.2648
  943POPC   D2A12792   5.185  16.717   6.409  0.0916  0.1801  0.0716
  943POPC   C3A12793   5.071  16.524   6.811 -0.1674 -0.1144  0.1887
  943POPC   C4A12794   5.184  16.233   7.071 -0.1099 -0.2264  0.4145
  943POPC   C1B12795   4.706  17.341   6.281  0.1691  0.2310  0.0377
  943POPC   C2B12796   4.432  17.453   6.567 -0.2147 -0.1141 -0.0754
  943POPC   C3B12797   4.484  17.384   7.000  0.0128 -0.1699  0.0967
  943POPC   C4B12798   4.601  17.276   7.428 -0.3062 -0.0827 -0.0532
  944POPC   NC312799  13.259   1.888   5.510 -0.0485  0.0842  0.0716
  944POPC   PO412800  13.184   1.608   5.799 -0.3982 -0.1975  0.0579
  944POPC   GL112801  13.068   1.502   6.246 -0.0259  0.1020 -0.3229
  944POPC   GL212802  13.190   1.187   6.239  0.1188  0.2912  0.2320
  944POPC   C1A12803  13.140   1.379   6.680  0.2936  0.0356 -0.0799
  944POPC   D2A12804  12.991   1.142   7.143  0.1578 -0.2122 -0.2201
  944POPC   C3A12805  12.962   1.250   7.519  0.0746  0.0999  0.0995
  944POPC   C4A12806  12.896   1.501   7.786  0.0752 -0.2558 -0.0848
  944POPC   C1B12807  13.244   0.875   6.629  0.0824  0.2464  0.0019
  944POPC   C2B12808  13.340   0.798   7.023  0.1600 -0.2429 -0.1521
  944POPC   C3B12809  13.429   1.066   7.468  0.0610  0.1142  0.2147
  944POPC   C4B12810  13.818   1.109   7.696  0.2890 -0.2877  0.2011
  945POPC   NC312811   9.099  16.782   5.468 -0.0077 -0.0591  0.5418
  945POPC   PO412812   8.849  17.016   5.273 -0.1092 -0.1901  0.0493
  945POPC   GL112813   8.636  17.049   5.541  0.0828  0.0458  0.2495
  945POPC   GL212814   8.819  16.918   5.826 -0.1799  0.0576  0.0589
  945POPC   C1A12815   8.519  17.322   5.825  0.0220  0.0036  0.3097
  945POPC   D2A12816   8.163  17.562   5.956 -0.1059 -0.0997  0.2857
  945POPC   C3A12817   7.993  17.455   6.366 -0.1486 -0.1130  0.0206
  945POPC   C4A12818   7.985  17.539   6.869 -0.1537 -0.1007  0.1086
  945POPC   C1B12819   9.033  16.931   6.200  0.1512  0.0270 -0.4902
  945POPC   C2B12820   9.054  16.964   6.620 -0.1535  0.2373 -0.0744
  945POPC   C3B12821   8.894  17.141   6.978 -0.1420  0.0115 -0.0732
  945POPC   C4B12822   8.865  17.520   7.215  0.2861  0.1494 -0.3225
  946POPC   NC312823  13.150   0.651   5.644  0.2445  0.3870  0.0510
  946POPC   PO412824  13.527   0.670   5.904  0.0797  0.0750  0.2290
  946POPC   GL112825  13.370   0.383   6.187 -0.0218  0.0021 -0.0905
  946POPC   GL212826  13.370   0.068   6.089  0.0272 -0.1746 -0.1313
  946POPC   C1A12827  13.850   0.224   6.307  0.3838  0.2634 -0.2065
  946POPC   D2A12828  14.033   0.222   6.677 -0.3880 -0.1821 -0.0561
  946POPC   C3A12829  14.250   0.445   6.630  0.1334  0.4653 -0.0086
  946POPC   C4A12830  14.225   0.641   6.918 -0.2537  0.2459  0.0652
  946POPC   C1B12831  13.470   0.067   6.584  0.0074 -0.0491  0.1997
  946POPC   C2B12832  13.532  -0.088   6.970  0.2004 -0.2224 -0.2007
  946POPC   C3B12833  13.787  -0.174   7.373 -0.1148  0.0638 -0.1076
  946POPC   C4B12834  14.124  -0.303   7.602 -0.2211  0.2825  0.1804
  947POPC   NC312835   0.437   0.487   5.746 -0.3077  0.3332  0.0860
  947POPC   PO412836  -0.082   0.520   5.798 -0.2250 -0.2156  0.1658
  947POPC   GL112837   0.154   0.296   6.148 -0.1124  0.2123 -0.0957
  947POPC   GL212838   0.359   0.073   6.134  0.2000  0.0667  0.2849
  947POPC   C1A12839   0.220   0.396   6.578  0.3020  0.0280  0.1088
  947POPC   D2A12840   0.440   0.391   6.980  0.1038 -0.0045  0.0145
  947POPC   C3A12841   0.640   0.732   7.216 -0.1275 -0.1544  0.2900
  947POPC   C4A12842   1.112   0.677   7.265 -0.0765 -0.0307  0.0632
  947POPC   C1B12843   0.286  -0.196   6.326 -0.0266  0.1213 -0.1114
  947POPC   C2B12844   0.195  -0.448   6.616  0.1048 -0.0601  0.3896
  947POPC   C3B12845  -0.240  -0.497   6.739 -0.1579 -0.1220  0.0378
  947POPC   C4B12846  -0.639  -0.636   6.996  0.0702 -0.0800 -0.2859
  948POPC   NC312847   4.163  13.076   5.311 -0.0811 -0.0271  0.1631
  948POPC   PO412848   4.171  13.058   5.761 -0.3847 -0.0827  0.2209
  948POPC   GL112849   4.564  13.137   5.960  0.1348  0.1441  0.0219
  948POPC   GL212850   4.851  13.145   5.815  0.0321 -0.0312 -0.0362
  948POPC   C1A12851   4.765  13.159   6.378  0.2073 -0.0800 -0.1587
  948POPC   D2A12852   4.522  13.099   6.761 -0.0847  0.1082  0.0456
  948POPC   C3A12853   4.492  12.673   6.711  0.0553 -0.1824 -0.3544
  948POPC   C4A12854   4.191  12.477   6.611  0.1981  0.0346 -0.0102
  948POPC   C1B12855   5.259  13.299   6.183  0.3607  0.0162  0.1115
  948POPC   C2B12856   5.288  13.357   6.579  0.0401 -0.1654  0.0157
  948POPC   C3B12857   5.172  13.391   7.050 -0.1963 -0.0683 -0.1134
  948POPC   C4B12858   5.107  13.510   7.484 -0.1075  0.2535 -0.1560
  949POPC   NC312859   5.301  15.971   5.350 -0.3053 -0.0170  0.3615
  949POPC   PO412860   5.416  15.539   5.155 -0.2599 -0.0892 -0.1896
  949POPC   GL112861   5.369  15.486   5.536  0.0825 -0.0657 -0.0598
  949POPC   GL212862   5.490  15.644   5.719  0.1449  0.0007 -0.1205
  949POPC   C1A12863   5.032  15.387   5.740 -0.1606  0.0346  0.0019
  949POPC   D2A12864   4.817  15.491   6.043  0.0137 -0.0655  0.0146
  949POPC   C3A12865   4.929  15.781   6.296 -0.1262 -0.0335  0.3169
  949POPC   C4A12866   5.155  16.094   6.588  0.1975 -0.0160  0.1561
  949POPC   C1B12867   5.327  15.499   6.141  0.1843 -0.2920  0.2123
  949POPC   C2B12868   5.295  15.456   6.542  0.0600  0.0499  0.1331
  949POPC   C3B12869   5.197  15.663   6.929  0.0383 -0.0744  0.3973
  949POPC   C4B12870   5.387  15.835   7.276 -0.1797  0.0197 -0.1271
  950POPC   NC312871  12.373  11.325   5.526 -0.0615 -0.2616 -0.2357
  950POPC   PO412872  12.439  10.850   5.684  0.3689  0.0786  0.2270
  950POPC   GL112873  12.486  10.785   6.053  0.1899 -0.1020  0.2547
  950POPC   GL212874  12.789  10.782   6.087  0.1698  0.2271 -0.0276
  950POPC   C1A12875  12.445  10.769   6.487 -0.0389 -0.0489 -0.3124
  950POPC   D2A12876  12.482  10.728   6.921 -0.0896  0.0341 -0.3229
  950POPC   C3A12877  12.195  10.956   7.228  0.2951  0.1584 -0.1655
  950POPC   C4A12878  11.850  11.081   7.190 -0.0127 -0.1106  0.3901
  950POPC   C1B12879  12.699  11.203   6.383 -0.2189 -0.2903  0.1442
  950POPC   C2B12880  12.799  11.473   6.708 -0.2773  0.0324 -0.0204
  950POPC   C3B12881  12.758  11.705   7.112  0.2409  0.1201  0.1346
  950POPC   C4B12882  12.354  11.865   7.347  0.0293 -0.0859 -0.2888
  951POPC   NC312883   8.519  10.965   5.590  0.4720 -0.1824  0.2369
  951POPC   PO412884   8.349  11.447   5.606 -0.1453  0.1817  0.1664
  951POPC   GL112885   8.380  11.669   6.035 -0.0994 -0.0409 -0.0392
  951POPC   GL212886   8.284  11.580   6.275 -0.0186  0.0429  0.0867
  951POPC   C1A12887   8.395  12.111   6.264  0.0420  0.0494 -0.1142
  951POPC   D2A12888   8.322  12.268   6.610  0.1602 -0.3413 -0.3802
  951POPC   C3A12889   8.208  12.041   6.903 -0.0259 -0.1317 -0.0752
  951POPC   C4A12890   8.507  11.864   7.222 -0.3006  0.0758 -0.1334
  951POPC   C1B12891   8.553  11.466   6.586  0.3787 -0.0844 -0.2807
  951POPC   C2B12892   8.681  11.508   6.997  0.0992 -0.0517  0.0534
  951POPC   C3B12893   8.867  11.322   7.290 -0.0319 -0.0731  0.1170
  951POPC   C4B12894   9.290  11.174   7.544 -0.1786  0.0631 -0.4669
  952POPC   NC312895   3.460   3.132   5.649  0.3466 -0.0126  0.1450
  952POPC   PO412896   3.068   3.371   5.882  0.3390  0.2535  0.1099
  952POPC   GL112897   3.044   3.337   6.350  0.0154 -0.2887  0.0444
  952POPC   GL212898   3.254   3.323   6.504 -0.1164  0.0198  0.0908
  952POPC   C1A12899   2.898   2.906   6.440  0.0998 -0.0422 -0.2331
  952POPC   D2A12900   2.684   2.603   6.640 -0.1325 -0.2989 -0.1131
  952POPC   C3A12901   2.789   2.444   7.043  0.5789 -0.0476  0.1592
  952POPC   C4A12902   2.828   2.079   6.967  0.0986  0.1442  0.0067
  952POPC   C1B12903   3.334   3.436   6.965  0.0818  0.0660 -0.0188
  952POPC   C2B12904   3.228   3.813   7.102 -0.3166  0.0709  0.2373
  952POPC   C3B12905   2.967   4.187   7.139  0.0169 -0.2249 -0.0907
  952POPC   C4B12906   2.638   4.498   7.048 -0.2902  0.1385  0.0156
  953POPC   NC312907   1.194   3.164   6.217  0.3939 -0.2126  0.0114
  953POPC   PO412908   1.753   3.212   6.244  0.2590  0.0054  0.0351
  953POPC   GL112909   1.828   3.430   6.559 -0.1312  0.1170 -0.1499
  953POPC   GL212910   1.808   3.709   6.275 -0.2806 -0.0970 -0.4886
  953POPC   C1A12911   1.924   3.268   6.927 -0.3345 -0.0761 -0.1974
  953POPC   D2A12912   1.567   3.093   7.210 -0.0899 -0.1134 -0.2365
  953POPC   C3A12913   1.413   3.152   7.597 -0.2502  0.1124  0.0661
  953POPC   C4A12914   1.220   2.834   7.927 -0.1784 -0.0776  0.0655
  953POPC   C1B12915   1.648   3.898   6.740  0.0733  0.0504 -0.0731
  953POPC   C2B12916   1.832   4.043   7.022 -0.0976 -0.1795 -0.0714
  953POPC   C3B12917   2.024   4.138   7.448 -0.4272 -0.0227 -0.0744
  953POPC   C4B12918   2.086   4.017   7.853  0.1306  0.3240  0.1210
  954POPC   NC312919  10.712   1.384   5.849 -0.1595 -0.1441  0.0607
  954POPC   PO412920  10.922   1.440   6.213  0.0703  0.0058  0.0958
  954POPC   GL112921  11.214   1.215   6.367  0.2916 -0.1283  0.0246
  954POPC   GL212922  11.441   0.992   6.294 -0.0865  0.0974  0.1859
  954POPC   C1A12923  11.472   1.088   6.805  0.2696 -0.3682  0.2442
  954POPC   D2A12924  11.339   1.034   7.237 -0.0384  0.1915  0.0990
  954POPC   C3A12925  11.102   0.726   7.417 -0.0406  0.0063  0.1972
  954POPC   C4A12926  11.018   0.389   7.619  0.3253 -0.2022  0.0332
  954POPC   C1B12927  11.123   0.741   6.559 -0.0998  0.2265  0.2092
  954POPC   C2B12928  10.855   0.558   6.945 -0.0293  0.2718 -0.1402
  954POPC   C3B12929  10.572   0.575   7.321  0.1593  0.1317 -0.2446
  954POPC   C4B12930  10.220   0.556   7.617 -0.2604  0.1213 -0.1507
  955POPC   NC312931   1.280  10.258   5.844  0.1060 -0.2327  0.0554
  955POPC   PO412932   1.385  10.560   5.814 -0.0129 -0.6464 -0.3112
  955POPC   GL112933   1.604  10.714   6.175 -0.0611  0.3379  0.0670
  955POPC   GL212934   1.390  10.879   6.402  0.1238 -0.1208  0.0937
  955POPC   C1A12935   1.908  10.877   6.460  0.0371 -0.0986  0.1911
  955POPC   D2A12936   2.171  10.999   6.790 -0.1586 -0.0424 -0.0567
  955POPC   C3A12937   2.454  11.235   6.757 -0.0840 -0.3095 -0.1438
  955POPC   C4A12938   2.875  11.306   6.727  0.1633 -0.0892  0.2103
  955POPC   C1B12939   1.554  10.681   6.848  0.1106  0.1137 -0.0705
  955POPC   C2B12940   1.844  10.881   7.152  0.2427 -0.0739  0.0244
  955POPC   C3B12941   2.014  11.162   7.469 -0.1174 -0.2168 -0.0715
  955POPC   C4B12942   2.360  11.295   7.733  0.0397  0.2068 -0.1054
  956POPC   NC312943  16.181  13.454   5.383 -0.0007  0.0218  0.2527
  956POPC   PO412944  16.211  13.063   5.610  0.0718  0.3632 -0.2627
  956POPC   GL112945  15.926  13.307   5.816  0.1570  0.1880 -0.1261
  956POPC   GL212946  16.107  13.470   6.071 -0.0508  0.1809 -0.0362
  956POPC   C1A12947  15.585  13.288   5.912  0.0782  0.1559 -0.0474
  956POPC   D2A12948  15.509  13.416   6.369 -0.1821  0.1567  0.1245
  956POPC   C3A12949  15.265  13.048   6.688  0.2872 -0.1824 -0.2172
  956POPC   C4A12950  15.455  12.632   6.759 -0.0133 -0.0614  0.3408
  956POPC   C1B12951  16.074  13.516   6.470  0.0335  0.3607  0.0675
  956POPC   C2B12952  15.951  13.630   6.917 -0.1646 -0.1363  0.2224
  956POPC   C3B12953  16.008  13.627   7.335 -0.0641  0.0741 -0.0152
  956POPC   C4B12954  15.873  13.694   7.724  0.0259 -0.0287  0.1298
  957POPC   NC312955   1.908   3.393   5.776  0.0342 -0.0850  0.0436
  957POPC   PO412956   2.141   2.963   5.931  0.3604  0.0499  0.1751
  957POPC   GL112957   2.132   2.900   6.377  0.3548 -0.2637 -0.1073
  957POPC   GL212958   2.095   2.523   6.436 -0.2357 -0.0796  0.2101
  957POPC   C1A12959   2.226   2.843   6.834 -0.2276  0.0149  0.0187
  957POPC   D2A12960   1.922   2.795   7.179 -0.1165  0.0141 -0.1060
  957POPC   C3A12961   1.918   3.113   7.554 -0.2661  0.0434  0.0218
  957POPC   C4A12962   2.124   3.509   7.530 -0.1645 -0.0632 -0.2665
  957POPC   C1B12963   1.791   2.422   6.784 -0.3052 -0.0437  0.2646
  957POPC   C2B12964   1.702   2.298   7.165  0.2556  0.0289  0.1053
  957POPC   C3B12965   1.714   1.988   7.413  0.0876 -0.0526  0.1795
  957POPC   C4B12966   1.549   1.690   7.613 -0.0072 -0.1379 -0.0989
  958POPC   NC312967   0.321  17.607   5.394 -0.4240 -0.2577 -0.0712
  958POPC   PO412968   0.537  17.194   5.300 -0.1044  0.0682 -0.0165
  958POPC   GL112969   0.500  17.277   5.763  0.1029 -0.2402  0.0745
  958POPC   GL212970   0.764  17.245   5.917  0.0123  0.3446  0.1353
  958POPC   C1A12971   0.210  17.129   6.141 -0.2262  0.1363  0.0404
  958POPC   D2A12972  -0.001  16.866   6.462  0.2523 -0.2200  0.2749
  958POPC   C3A12973  -0.067  16.921   6.924 -0.3242 -0.0285  0.0639
  958POPC   C4A12974  -0.124  16.791   7.228  0.0241 -0.0823 -0.0070
  958POPC   C1B12975   0.709  17.316   6.319 -0.5023  0.1789 -0.1027
  958POPC   C2B12976   0.747  17.332   6.790  0.0482  0.4652 -0.0483
  958POPC   C3B12977   1.065  17.363   7.100  0.1628 -0.3850 -0.0171
  958POPC   C4B12978   1.422  17.266   6.982  0.0376  0.0599 -0.1672
  959POPC   NC312979  11.259   5.977   5.320  0.0135  0.3331  0.2562
  959POPC   PO412980  11.195   5.600   5.591  0.2335 -0.0084  0.2131
  959POPC   GL112981  11.109   5.577   6.042 -0.2063  0.0045 -0.0827
  959POPC   GL212982  11.073   5.854   6.166 -0.2645  0.0429 -0.1649
  959POPC   C1A12983  11.033   5.493   6.546  0.1965  0.0316 -0.2471
  959POPC   D2A12984  11.138   5.386   6.981  0.0389 -0.2597 -0.1768
  959POPC   C3A12985  10.996   5.721   7.338 -0.0983  0.1339 -0.1652
  959POPC   C4A12986  11.190   6.077   7.642  0.0713 -0.1896 -0.0026
  959POPC   C1B12987  10.805   5.916   6.463  0.1315 -0.1774  0.1039
  959POPC   C2B12988  10.637   6.301   6.686  0.0720  0.2064  0.0803
  959POPC   C3B12989  10.656   6.692   6.711 -0.0021 -0.1617 -0.0194
  959POPC   C4B12990  11.103   6.956   6.607  0.0609 -0.2544 -0.0826
  960POPC   NC312991  10.110  12.082   5.305  0.0234  0.0847  0.1322
  960POPC   PO412992  10.484  12.013   5.310  0.0970  0.0745 -0.0347
  960POPC   GL112993  10.475  11.897   5.722 -0.1782 -0.0427  0.2557
  960POPC   GL212994  10.394  12.167   5.800 -0.2180 -0.2275  0.2199
  960POPC   C1A12995  10.712  11.912   6.149 -0.0253  0.0268  0.2147
  960POPC   D2A12996  10.807  12.009   6.560 -0.0093 -0.0634 -0.3003
  960POPC   C3A12997  10.696  11.813   7.050  0.1621 -0.0534 -0.2181
  960POPC   C4A12998  10.604  11.780   7.455  0.2548 -0.1758 -0.2265
  960POPC   C1B12999  10.142  12.130   6.100 -0.4702 -0.0309 -0.0825
  960POPC   C2B13000  10.274  12.045   6.534 -0.0823 -0.0928  0.2142
  960POPC   C3B13001  10.491  11.646   6.598 -0.4177 -0.0824 -0.0604
  960POPC   C4B13002  10.466  11.225   6.430  0.1749  0.1583  0.0819
  961POPC   NC313003  11.871  18.391   5.653 -0.0198 -0.0842  0.2559
  961POPC   PO413004  12.261  18.574   5.591 -0.1641  0.3783  0.2207
  961POPC   GL113005  12.207  18.217   5.949  0.2685 -0.1152 -0.0555
  961POPC   GL213006  12.490  18.093   6.088 -0.0935  0.1652  0.0906
  961POPC   C1A13007  12.082  18.340   6.354  0.0083  0.2080  0.0028
  961POPC   D2A13008  11.994  18.593   6.673  0.0512  0.0511 -0.0209
  961POPC   C3A13009  12.162  18.579   7.071  0.0393  0.0089 -0.1639
  961POPC   C4A13010  11.993  18.667   7.459 -0.0547  0.2766 -0.0574
  961POPC   C1B13011  12.512  18.173   6.523  0.0504 -0.3822  0.1665
  961POPC   C2B13012  12.207  18.133   6.809  0.1948 -0.0591 -0.1521
  961POPC   C3B13013  12.128  18.045   7.250 -0.0004  0.0284 -0.0006
  961POPC   C4B13014  11.841  18.082   7.560 -0.2377 -0.0074  0.0945
  962POPC   NC313015   5.654   3.898   5.892  0.0847 -0.1078 -0.0351
  962POPC   PO413016   5.914   3.556   5.906 -0.0587 -0.2818  0.2162
  962POPC   GL113017   5.904   3.618   6.293  0.1465 -0.1558  0.0189
  962POPC   GL213018   5.708   3.737   6.432  0.0689 -0.1089 -0.1255
  962POPC   C1A13019   6.061   3.430   6.666 -0.1871 -0.1413 -0.1360
  962POPC   D2A13020   6.382   3.419   7.017 -0.0352 -0.0772  0.1923
  962POPC   C3A13021   6.313   3.595   7.277  0.1117  0.2332 -0.0941
  962POPC   C4A13022   6.159   3.810   7.670  0.0202 -0.1218  0.0636
  962POPC   C1B13023   5.754   3.789   6.855 -0.1462 -0.1162  0.1035
  962POPC   C2B13024   5.843   3.838   7.291  0.0879  0.1184 -0.1006
  962POPC   C3B13025   5.792   3.498   7.438  0.0965  0.2424  0.1832
  962POPC   C4B13026   5.832   3.073   7.613 -0.2670  0.0122 -0.1239
  963POPC   NC313027  14.406   6.654   5.812  0.1618  0.1340 -0.2014
  963POPC   PO413028  14.665   6.677   6.116 -0.1233 -0.4750 -0.0183
  963POPC   GL113029  14.865   6.455   6.531 -0.1641 -0.0608 -0.0488
  963POPC   GL213030  14.995   6.672   6.751 -0.0893 -0.0699  0.2603
  963POPC   C1A13031  14.663   6.331   6.932  0.2134 -0.1574  0.0240
  963POPC   D2A13032  14.644   6.355   7.470  0.2614 -0.0159 -0.0744
  963POPC   C3A13033  14.405   6.182   7.852 -0.1853  0.1251 -0.3414
  963POPC   C4A13034  14.408   5.836   8.098  0.1260  0.0839 -0.0681
  963POPC   C1B13035  14.809   6.752   7.198 -0.0136 -0.1404 -0.0553
  963POPC   C2B13036  14.770   7.072   7.486  0.0232  0.0325  0.2710
  963POPC   C3B13037  14.951   7.402   7.771  0.1751 -0.2351 -0.1713
  963POPC   C4B13038  15.363   7.561   7.755  0.0927  0.1441 -0.4303
  964POPC   NC313039  10.371  13.457   5.242 -0.6982 -0.3149 -0.1920
  964POPC   PO413040  10.644  13.871   5.387 -0.0178  0.0684 -0.1864
  964POPC   GL113041  10.635  13.797   5.785 -0.0979 -0.1612  0.2242
  964POPC   GL213042  10.401  13.552   5.752  0.0367  0.0202  0.0245
  964POPC   C1A13043  10.717  13.619   6.214  0.1781  0.1086 -0.3215
  964POPC   D2A13044  10.824  13.306   6.418 -0.0099  0.3048  0.3367
  964POPC   C3A13045  10.965  13.351   6.743 -0.1203 -0.0618  0.2603
  964POPC   C4A13046  10.819  13.480   7.107 -0.1452 -0.0206  0.0481
  964POPC   C1B13047  10.254  13.456   6.228  0.1750  0.1685  0.0200
  964POPC   C2B13048  10.154  13.227   6.641  0.2906 -0.2188  0.0354
  964POPC   C3B13049  10.004  13.117   7.066  0.0341  0.1595 -0.0422
  964POPC   C4B13050   9.698  12.734   7.009 -0.1119  0.0891  0.2776
  965POPC   NC313051   1.717   2.690   5.973 -0.1500 -0.0348 -0.5124
  965POPC   PO413052   1.464   2.742   6.318  0.0218 -0.0267  0.2939
  965POPC   GL113053   1.135   2.834   6.659 -0.2082  0.1572  0.1188
  965POPC   GL213054   1.311   3.070   6.705  0.0002  0.1421  0.0897
  965POPC   C1A13055   1.114   2.667   7.037 -0.1567 -0.1955  0.2685
  965POPC   D2A13056   1.248   2.605   7.456 -0.0528 -0.1375 -0.1398
  965POPC   C3A13057   1.601   2.651   7.596  0.1205  0.3419 -0.0691
  965POPC   C4A13058   2.070   2.580   7.684 -0.0093 -0.3259  0.2621
  965POPC   C1B13059   1.036   3.173   7.150  0.0895 -0.2277 -0.2278
  965POPC   C2B13060   0.991   3.529   7.480 -0.0393  0.0779 -0.1513
  965POPC   C3B13061   0.939   3.322   7.809  0.0220 -0.0096 -0.0744
  965POPC   C4B13062   1.079   3.211   8.196 -0.3156  0.5394  0.0115
  966POPC   NC313063  10.942   9.618   5.646  0.2329  0.0426  0.0045
  966POPC   PO413064  11.210   9.213   5.492 -0.1629  0.0457 -0.1533
  966POPC   GL113065  11.197   9.292   5.929  0.3328 -0.0353 -0.0216
  966POPC   GL213066  10.998   9.070   6.106 -0.3745  0.4680 -0.0748
  966POPC   C1A13067  11.492   9.464   6.261 -0.0431  0.1335 -0.1655
  966POPC   D2A13068  11.524   9.751   6.556 -0.0169 -0.2005 -0.2402
  966POPC   C3A13069  11.517   9.542   7.022 -0.2176  0.1304  0.1875
  966POPC   C4A13070  11.862   9.620   7.355 -0.0531  0.0620  0.1039
  966POPC   C1B13071  11.112   9.241   6.486  0.2668  0.1894  0.1151
  966POPC   C2B13072  11.038   9.343   6.897  0.0357  0.0276 -0.0594
  966POPC   C3B13073  10.915   9.272   7.364  0.0571  0.2180  0.2271
  966POPC   C4B13074  10.998   9.438   7.699  0.0127 -0.0689 -0.2005
  967POPC   NC313075   3.884  13.962   5.820  0.4294 -0.2967  0.0232
  967POPC   PO413076   3.819  14.541   5.920 -0.3532 -0.0570 -0.1138
  967POPC   GL113077   3.705  14.339   6.304 -0.3609  0.0540 -0.0236
  967POPC   GL213078   3.434  14.360   6.355 -0.0442  0.1041  0.1317
  967POPC   C1A13079   3.821  14.271   6.668 -0.1982  0.0135  0.1545
  967POPC   D2A13080   3.517  14.012   7.038  0.3565  0.0624 -0.1344
  967POPC   C3A13081   3.297  13.765   7.343 -0.1636 -0.4271  0.4716
  967POPC   C4A13082   2.943  13.938   7.550  0.0173  0.2921  0.0558
  967POPC   C1B13083   3.267  14.441   6.689  0.2172  0.0867  0.0969
  967POPC   C2B13084   3.063  14.220   6.983  0.0130  0.1480  0.1044
  967POPC   C3B13085   2.899  13.817   6.984  0.3954  0.0338 -0.0541
  967POPC   C4B13086   2.930  13.488   7.287  0.1331  0.0536  0.1270
  968POPC   NC313087   1.449  13.622   5.685  0.0089 -0.1502  0.0843
  968POPC   PO413088   1.729  13.303   5.735 -0.1492  0.1366  0.0243
  968POPC   GL113089   2.012  13.386   6.123  0.0526 -0.0370 -0.1291
  968POPC   GL213090   2.276  13.562   6.181 -0.0444 -0.2240 -0.1616
  968POPC   C1A13091   1.862  13.510   6.550  0.2103  0.0924 -0.2382
  968POPC   D2A13092   1.817  13.716   6.863  0.2359  0.4052 -0.0803
  968POPC   C3A13093   1.909  13.622   7.272  0.1691 -0.0878  0.0308
  968POPC   C4A13094   2.131  13.343   7.553  0.2295  0.0137 -0.1784
  968POPC   C1B13095   2.311  13.511   6.611  0.1638 -0.2162  0.0992
  968POPC   C2B13096   2.447  13.540   7.052  0.1672 -0.1459 -0.0259
  968POPC   C3B13097   2.430  13.890   7.310  0.0999  0.1153 -0.0870
  968POPC   C4B13098   2.514  14.254   7.626 -0.3661  0.0795  0.1065
  969POPC   NC313099  15.806   4.206   6.371  0.1113  0.0774  0.0978
  969POPC   PO413100  15.428   3.950   6.390 -0.1816  0.4869 -0.0361
  969POPC   GL113101  15.334   4.133   6.799 -0.2125 -0.3322 -0.0713
  969POPC   GL213102  15.213   4.396   6.644  0.1461 -0.0155 -0.2507
  969POPC   C1A13103  15.183   4.124   7.301 -0.1384  0.1218 -0.1528
  969POPC   D2A13104  15.323   4.251   7.708  0.0586  0.0746  0.6024
  969POPC   C3A13105  15.247   4.363   8.157  0.0516  0.5073  0.1798
  969POPC   C4A13106  15.018   4.561   8.524 -0.0896 -0.2332 -0.0311
  969POPC   C1B13107  15.069   4.522   7.036  0.0574 -0.0543  0.0536
  969POPC   C2B13108  14.815   4.505   7.470  0.0770 -0.2683  0.0745
  969POPC   C3B13109  14.738   4.490   7.881  0.3840  0.0171 -0.2754
  969POPC   C4B13110  14.713   4.276   8.220  0.1582 -0.2112 -0.2024
  970POPC   NC313111  14.299   4.925   5.869  0.0125  0.0980 -0.0548
  970POPC   PO413112  14.688   4.771   6.108 -0.0596 -0.2731  0.3271
  970POPC   GL113113  14.715   4.835   6.540  0.2353  0.0518 -0.0374
  970POPC   GL213114  14.580   4.529   6.804 -0.0729  0.2302 -0.1545
  970POPC   C1A13115  15.139   5.003   6.815  0.1150  0.1142  0.0370
  970POPC   D2A13116  15.291   5.038   7.307 -0.2346 -0.3105  0.2532
  970POPC   C3A13117  15.249   4.752   7.573  0.1270 -0.1750  0.1063
  970POPC   C4A13118  15.087   4.816   8.028 -0.1512 -0.1575 -0.0359
  970POPC   C1B13119  14.375   4.467   7.179  0.0170  0.1187  0.2350
  970POPC   C2B13120  14.244   4.693   7.592 -0.4295  0.3491  0.2661
  970POPC   C3B13121  14.194   5.044   7.796 -0.0630  0.1258 -0.0206
  970POPC   C4B13122  14.281   5.500   7.752 -0.3843 -0.3323  0.1939
  971POPC   NC313123  17.160   8.924   5.595 -0.0038  0.3504  0.0434
  971POPC   PO413124  17.357   9.037   5.941  0.0354  0.0424  0.1248
  971POPC   GL113125  17.466   9.242   6.340  0.1843 -0.0436  0.1377
  971POPC   GL213126  17.567   9.609   6.368 -0.1414 -0.0399  0.1672
  971POPC   C1A13127  17.346   9.339   6.800 -0.0360 -0.0616  0.1980
  971POPC   D2A13128  17.154   9.231   7.104 -0.2011  0.0813  0.0753
  971POPC   C3A13129  17.284   9.328   7.414  0.0449 -0.0341  0.2321
  971POPC   C4A13130  17.151   9.258   7.775  0.0811 -0.2495  0.3300
  971POPC   C1B13131  17.647   9.691   6.730  0.0097 -0.2869  0.2551
  971POPC   C2B13132  17.724   9.626   7.095 -0.0248 -0.1417  0.0122
  971POPC   C3B13133  17.888   9.789   7.530 -0.2473 -0.2707 -0.3556
  971POPC   C4B13134  18.197  10.093   7.393 -0.0283  0.1328 -0.2626
  972POPC   NC313135   5.396   7.256   5.845 -0.4681 -0.1990 -0.4220
  972POPC   PO413136   5.606   7.358   6.197 -0.0338  0.1898  0.1129
  972POPC   GL113137   5.905   7.260   6.540 -0.2348 -0.3756  0.1692
  972POPC   GL213138   5.976   6.906   6.609  0.0083 -0.2971 -0.1052
  972POPC   C1A13139   5.926   7.167   7.004  0.0818  0.0042 -0.0744
  972POPC   D2A13140   6.080   7.101   7.522  0.0628  0.1234  0.1341
  972POPC   C3A13141   5.825   6.953   7.778  0.1660  0.2717  0.2470
  972POPC   C4A13142   5.560   6.687   8.062 -0.0022  0.1563  0.0518
  972POPC   C1B13143   6.325   6.869   6.938  0.0834  0.2362 -0.2007
  972POPC   C2B13144   6.466   6.723   7.288 -0.1428 -0.0412  0.0095
  972POPC   C3B13145   6.547   6.485   7.727  0.0970  0.0179  0.1160
  972POPC   C4B13146   6.717   6.289   8.051 -0.0801  0.0121 -0.0205
  973POPC   NC313147   4.652   2.010   5.977 -0.0184  0.0094 -0.2672
  973POPC   PO413148   4.219   1.999   6.151 -0.3103 -0.0408 -0.0806
  973POPC   GL113149   4.487   2.126   6.525 -0.0054  0.3230  0.2105
  973POPC   GL213150   4.721   2.400   6.549 -0.1239 -0.3547  0.0962
  973POPC   C1A13151   4.656   1.999   6.874 -0.2761  0.0811 -0.1606
  973POPC   D2A13152   4.734   1.932   7.244 -0.5195  0.2259  0.2326
  973POPC   C3A13153   4.562   1.671   7.579 -0.0072  0.0453  0.0493
  973POPC   C4A13154   4.903   1.610   7.907 -0.0168 -0.2294  0.0108
  973POPC   C1B13155   4.958   2.393   6.939 -0.4435  0.2067  0.3266
  973POPC   C2B13156   5.368   2.447   7.132 -0.0951 -0.2453  0.3632
  973POPC   C3B13157   5.696   2.661   7.201 -0.4143 -0.0245 -0.0275
  973POPC   C4B13158   5.861   2.798   6.883  0.0686 -0.0895 -0.2133
  974POPC   NC313159   7.362   9.604   6.024  0.0474 -0.1618  0.3390
  974POPC   PO413160   7.785   9.819   5.893 -0.0142 -0.2720 -0.2685
  974POPC   GL113161   7.687  10.124   6.251 -0.2587  0.1116 -0.2603
  974POPC   GL213162   7.377   9.986   6.309 -0.4015  0.0097  0.1152
  974POPC   C1A13163   7.641  10.433   6.524 -0.2545  0.0063 -0.2482
  974POPC   D2A13164   7.649  10.528   6.960  0.1676 -0.1795 -0.0454
  974POPC   C3A13165   7.988  10.695   7.175  0.0743 -0.1120 -0.2230
  974POPC   C4A13166   8.206  10.653   7.601  0.0415 -0.1348  0.0987
  974POPC   C1B13167   7.602  10.030   6.745 -0.0556 -0.1494 -0.1505
  974POPC   C2B13168   7.706  10.108   7.202  0.0952  0.0098 -0.6218
  974POPC   C3B13169   8.131  10.236   7.398  0.0962 -0.0969 -0.1925
  974POPC   C4B13170   8.244  10.173   7.806 -0.0381  0.1850  0.3112
  975POPC   NC313171   9.321   3.110   5.513  0.1506  0.0303  0.0984
  975POPC   PO413172   9.102   2.716   5.710  0.2036  0.2972  0.4156
  975POPC   GL113173   9.042   2.646   6.179 -0.1420  0.2287  0.1205
  975POPC   GL213174   9.074   2.869   6.475 -0.1178  0.1174 -0.1993
  975POPC   C1A13175   8.922   2.382   6.358 -0.1794 -0.3832  0.0079
  975POPC   D2A13176   8.673   2.084   6.453  0.1169 -0.1183  0.1107
  975POPC   C3A13177   8.700   1.955   6.890 -0.2009  0.0625  0.1383
  975POPC   C4A13178   8.662   2.223   7.258 -0.0466  0.3388  0.3716
  975POPC   C1B13179   9.321   2.853   6.872  0.0355 -0.0553 -0.2148
  975POPC   C2B13180   9.437   2.983   7.224  0.1617 -0.0423  0.1076
  975POPC   C3B13181   9.536   3.121   7.650 -0.1073 -0.3270  0.1666
  975POPC   C4B13182   9.897   3.293   7.826  0.3244 -0.2438  0.0225
  976POPC   NC313183   1.486   5.858   6.010  0.1238  0.2197 -0.3347
  976POPC   PO413184   1.530   5.446   5.957 -0.2411  0.0486 -0.0716
  976POPC   GL113185   1.632   5.547   6.382 -0.1497  0.1076  0.1815
  976POPC   GL213186   1.432   5.785   6.523  0.0564  0.1050  0.3624
  976POPC   C1A13187   2.083   5.567   6.545  0.0736  0.0424 -0.1812
  976POPC   D2A13188   2.452   5.569   6.644 -0.0540 -0.1688  0.3434
  976POPC   C3A13189   2.366   5.687   7.018 -0.0011  0.2424  0.1783
  976POPC   C4A13190   2.423   5.624   7.432  0.0773 -0.2520  0.1121
  976POPC   C1B13191   1.707   5.674   6.939  0.1352 -0.2908 -0.1172
  976POPC   C2B13192   1.950   5.840   7.222  0.0351 -0.0385 -0.2740
  976POPC   C3B13193   2.192   6.122   7.227 -0.1683 -0.1001  0.0149
  976POPC   C4B13194   2.486   6.502   7.080 -0.2294  0.2998  0.0165
  977POPC   NC313195  10.302   7.132   6.189 -0.0196  0.0835 -0.1998
  977POPC   PO413196  10.250   6.646   6.101 -0.1480 -0.2858  0.0308
  977POPC   GL113197  10.171   6.614   6.504 -0.1250 -0.1838 -0.0981
  977POPC   GL213198  10.176   6.890   6.605 -0.0376  0.0256 -0.0036
  977POPC   C1A13199  10.043   6.505   6.914 -0.0187  0.1152 -0.0227
  977POPC   D2A13200  10.272   6.426   7.262  0.1277 -0.0606 -0.2618
  977POPC   C3A13201  10.144   6.366   7.685 -0.0157 -0.0429  0.3158
  977POPC   C4A13202   9.806   6.253   7.953  0.2999  0.0414  0.0748
  977POPC   C1B13203  10.196   6.949   7.002  0.1435 -0.1103 -0.0239
  977POPC   C2B13204  10.185   7.040   7.490  0.0652 -0.0092  0.1049
  977POPC   C3B13205  10.177   6.986   7.951  0.1164 -0.1476 -0.1032
  977POPC   C4B13206  10.004   6.612   8.164 -0.0579 -0.1958  0.3015
  978POPC   NC313207  11.966  16.909   5.302  0.0117 -0.0172 -0.4235
  978POPC   PO413208  12.038  16.380   5.326 -0.0554  0.0116  0.0413
  978POPC   GL113209  12.115  16.302   5.809 -0.0953 -0.0166  0.1971
  978POPC   GL213210  12.481  16.238   5.962  0.0507 -0.0056 -0.1987
  978POPC   C1A13211  12.128  15.883   6.159  0.2318 -0.0317 -0.2128
  978POPC   D2A13212  12.084  15.688   6.636 -0.1878 -0.1863  0.0233
  978POPC   C3A13213  11.948  15.856   6.988 -0.1014 -0.0444  0.1459
  978POPC   C4A13214  11.710  15.807   7.352  0.4957 -0.1279  0.2832
  978POPC   C1B13215  12.386  16.244   6.369 -0.0322 -0.4661 -0.3742
  978POPC   C2B13216  12.285  16.301   6.794  0.2116 -0.3453  0.2769
  978POPC   C3B13217  11.830  16.529   6.883 -0.4515  0.3749 -0.2554
  978POPC   C4B13218  11.438  16.720   6.933 -0.1162  0.0841 -0.2884
  979POPC   NC313219   4.990   6.478   5.874  0.1243 -0.0874  0.0199
  979POPC   PO413220   5.335   6.705   5.987  0.0583  0.1601  0.1817
  979POPC   GL113221   5.080   6.738   6.351  0.0328  0.0825 -0.0906
  979POPC   GL213222   5.201   7.030   6.373 -0.0986 -0.1272 -0.0532
  979POPC   C1A13223   5.037   6.535   6.756  0.4160  0.0438 -0.0346
  979POPC   D2A13224   5.037   6.582   7.235 -0.3624  0.1135 -0.0029
  979POPC   C3A13225   5.321   6.210   7.380 -0.0811  0.0113  0.0777
  979POPC   C4A13226   5.218   5.779   7.586  0.1559  0.2673 -0.2913
  979POPC   C1B13227   5.502   7.005   6.729  0.1566  0.0475  0.2105
  979POPC   C2B13228   5.471   7.027   7.145  0.0474 -0.4691  0.1181
  979POPC   C3B13229   5.356   7.203   7.548  0.3453  0.0279  0.0725
  979POPC   C4B13230   5.362   7.193   8.012  0.2160  0.1518 -0.3766
  980POPC   NC313231   9.222  14.633   5.557 -0.0881 -0.4044 -0.0610
  980POPC   PO413232   8.971  14.382   5.404  0.0839  0.4557 -0.1350
  980POPC   GL113233   8.977  14.208   5.779 -0.0470 -0.1794 -0.0673
  980POPC   GL213234   8.777  14.056   5.888 -0.1097 -0.0321 -0.0072
  980POPC   C1A13235   9.287  14.142   6.143  0.2455  0.0319  0.0867
  980POPC   D2A13236   9.654  14.081   6.398 -0.0832 -0.0530 -0.0027
  980POPC   C3A13237   9.546  14.279   6.870  0.1937 -0.2652  0.0614
  980POPC   C4A13238   9.664  14.409   7.300  0.0891  0.1220 -0.1215
  980POPC   C1B13239   8.821  14.131   6.241  0.0466 -0.1134  0.1348
  980POPC   C2B13240   8.628  14.082   6.596 -0.3461 -0.1833  0.1730
  980POPC   C3B13241   8.598  14.286   7.038 -0.1547 -0.0285  0.1684
  980POPC   C4B13242   8.388  14.312   7.405 -0.0830  0.0055  0.0666
  981POPC   NC313243   3.752   0.955   5.359  0.1877 -0.0913 -0.0118
  981POPC   PO413244   3.985   0.982   5.789  0.1657 -0.1106  0.0156
  981POPC   GL113245   3.970   0.921   6.183 -0.2208 -0.0730  0.0168
  981POPC   GL213246   3.856   0.644   6.175 -0.0718 -0.1950 -0.1599
  981POPC   C1A13247   3.907   1.245   6.670  0.1368  0.3436  0.0766
  981POPC   D2A13248   3.763   1.412   7.078  0.0093 -0.0225 -0.0487
  981POPC   C3A13249   3.433   1.586   7.008 -0.3511  0.1959  0.3134
  981POPC   C4A13250   3.084   1.602   7.193 -0.0141 -0.0231 -0.4218
  981POPC   C1B13251   3.883   0.445   6.567  0.1529 -0.0013 -0.0051
  981POPC   C2B13252   3.647   0.291   6.845 -0.0998 -0.0099 -0.2918
  981POPC   C3B13253   3.744  -0.103   7.078 -0.2114 -0.2385  0.0892
  981POPC   C4B13254   3.701  -0.382   7.376 -0.1044  0.0993 -0.1497
  982YOPC   NC313255  10.312   4.546   5.644 -0.2285  0.0769  0.2541
  982YOPC   PO413256  10.511   4.157   5.757 -0.1193 -0.0306  0.0880
  982YOPC   GL113257  10.756   4.134   6.104  0.5240 -0.1480  0.1215
  982YOPC   GL213258  10.889   4.015   6.350  0.2312  0.2105 -0.2737
  982YOPC   C1A13259  10.463   3.976   6.564  0.0806 -0.3166 -0.1245
  982YOPC   D2A13260  10.164   3.793   6.587 -0.0672  0.0474  0.3458
  982YOPC   C3A13261   9.910   3.423   6.762  0.5671 -0.0674  0.3907
  982YOPC   C4A13262   9.848   3.190   6.997  0.0914 -0.0103 -0.0459
  982YOPC   C1B13263  10.894   4.188   6.761  0.0744 -0.0490 -0.0565
  982YOPC   C2B13264  11.040   4.407   7.149  0.0742  0.0924  0.2363
  982YOPC   D3B13265  10.767   4.587   7.445 -0.1421  0.3320  0.0524
  982YOPC   C4B13266  10.606   4.511   7.891  0.2006  0.1431  0.0262
  983YOPC   NC313267  16.474  17.954   5.251 -0.4232 -0.1740 -0.4011
  983YOPC   PO413268  16.290  17.598   5.666 -0.3044 -0.0336  0.0086
  983YOPC   GL113269  16.397  17.569   6.050  0.2052 -0.3051 -0.0864
  983YOPC   GL213270  16.777  17.768   6.199  0.0045 -0.0137 -0.0438
  983YOPC   C1A13271  16.378  17.450   6.378  0.3191 -0.0912  0.1066
  983YOPC   D2A13272  16.400  17.633   6.734  0.0703 -0.1258  0.0643
  983YOPC   C3A13273  16.390  17.888   7.030  0.0118 -0.1481  0.0163
  983YOPC   C4A13274  16.517  18.188   7.295 -0.2126 -0.2584 -0.0501
  983YOPC   C1B13275  16.411  18.031   6.352 -0.0985  0.0264 -0.0011
  983YOPC   C2B13276  16.289  18.300   6.640 -0.0819  0.1932 -0.2793
  983YOPC   D3B13277  16.075  18.388   7.099  0.3573  0.1848  0.2022
  983YOPC   C4B13278  15.995  18.510   7.498  0.1431  0.2794 -0.0285
  984YOPC   NC313279  11.123  17.203   5.170 -0.0296  0.1361  0.0123
  984YOPC   PO413280  11.365  17.020   5.506  0.1504 -0.0218 -0.1553
  984YOPC   GL113281  11.227  17.060   6.000  0.1454 -0.0186 -0.2717
  984YOPC   GL213282  10.950  16.870   6.207  0.1649  0.3327  0.0888
  984YOPC   C1A13283  11.056  17.371   6.390  0.2807 -0.1089  0.3953
  984YOPC   D2A13284  10.924  17.551   6.738  0.1371 -0.0462  0.0157
  984YOPC   C3A13285  11.174  17.549   7.098 -0.1357 -0.0041  0.2170
  984YOPC   C4A13286  10.987  17.713   7.641 -0.0959  0.3995  0.0182
  984YOPC   C1B13287  11.009  16.903   6.590  0.0168 -0.1071  0.0386
  984YOPC   C2B13288  10.969  16.907   7.026 -0.0090 -0.0290  0.1120
  984YOPC   D3B13289  11.243  17.042   7.247 -0.1308  0.0589  0.2506
  984YOPC   C4B13290  11.551  16.965   7.643 -0.2219 -0.0608 -0.1077
  985YOPC   NC313291  17.135  13.259   5.217 -0.0588  0.1012 -0.6069
  985YOPC   PO413292  17.017  13.464   5.558 -0.0209 -0.2227 -0.2565
  985YOPC   GL113293  16.934  13.626   5.932 -0.1275  0.3757  0.2257
  985YOPC   GL213294  16.699  13.677   6.074 -0.1428 -0.0447  0.1523
  985YOPC   C1A13295  17.085  13.543   6.452 -0.1151 -0.1395  0.1495
  985YOPC   D2A13296  16.941  13.643   6.957 -0.2387 -0.2378  0.0332
  985YOPC   C3A13297  17.075  13.846   7.363  0.0873  0.0439 -0.1453
  985YOPC   C4A13298  17.249  13.728   7.824  0.0473  0.3672  0.0018
  985YOPC   C1B13299  16.563  13.662   6.579 -0.1816 -0.2876 -0.2181
  985YOPC   C2B13300  16.364  13.408   6.890 -0.2285  0.4956 -0.0859
  985YOPC   D3B13301  16.466  12.939   6.878  0.2652  0.2912  0.0450
  985YOPC   C4B13302  16.532  12.712   7.328 -0.1358 -0.0698 -0.1147
  986YOPC   NC313303   1.916   7.947   5.707  0.1539  0.2947 -0.0892
  986YOPC   PO413304   1.842   7.705   6.046 -0.2002 -0.1926 -0.0688
  986YOPC   GL113305   1.792   7.800   6.419  0.2093 -0.0477 -0.0964
  986YOPC   GL213306   2.099   7.972   6.428 -0.0607  0.0925  0.1563
  986YOPC   C1A13307   1.821   7.925   6.827 -0.0552 -0.0804  0.0955
  986YOPC   D2A13308   1.609   8.235   7.061  0.0106  0.2498  0.0201
  986YOPC   C3A13309   1.597   8.262   7.500  0.0722  0.1719  0.0441
  986YOPC   C4A13310   1.548   8.231   7.878  0.4053  0.1892 -0.1484
  986YOPC   C1B13311   2.173   7.587   6.651 -0.0125  0.1664 -0.1138
  986YOPC   C2B13312   2.070   7.151   6.688  0.4803 -0.3056  0.0977
  986YOPC   D3B13313   2.125   6.944   6.339 -0.2007 -0.0421  0.0845
  986YOPC   C4B13314   2.062   6.583   6.651 -0.0127  0.1189  0.3172
  987YOPC   NC313315  12.836   3.152   6.368 -0.0953 -0.1341  0.3508
  987YOPC   PO413316  12.906   2.757   6.117 -0.1849 -0.2618 -0.0197
  987YOPC   GL113317  12.826   2.592   6.522  0.0161  0.2333 -0.0926
  987YOPC   GL213318  12.685   2.336   6.538 -0.1680 -0.0187  0.1644
  987YOPC   C1A13319  12.783   2.782   6.873 -0.0478 -0.0165  0.0259
  987YOPC   D2A13320  12.639   2.786   7.246 -0.1886 -0.2069  0.0988
  987YOPC   C3A13321  12.810   2.839   7.667  0.0247 -0.0022 -0.1114
  987YOPC   C4A13322  12.923   2.750   8.111  0.1306  0.0398 -0.0473
  987YOPC   C1B13323  12.418   2.487   6.948 -0.1159 -0.3640  0.0635
  987YOPC   C2B13324  12.159   2.704   7.283  0.3188  0.0823  0.2497
  987YOPC   D3B13325  12.316   2.919   7.718 -0.2594  0.1646  0.2098
  987YOPC   C4B13326  12.477   2.670   8.037 -0.3559 -0.3766  0.0109
  988YOPC   NC313327   3.413   5.793   5.769  0.1418 -0.1985 -0.2805
  988YOPC   PO413328   3.325   6.027   6.142  0.1631 -0.0169  0.2180
  988YOPC   GL113329   3.078   6.111   6.468 -0.2252  0.3727 -0.0760
  988YOPC   GL213330   2.792   6.009   6.543 -0.0525  0.0009 -0.1846
  988YOPC   C1A13331   3.328   6.268   6.732  0.0795  0.1771 -0.0256
  988YOPC   D2A13332   3.353   6.427   7.179  0.1177 -0.1769  0.3440
  988YOPC   C3A13333   2.975   6.503   7.357  0.1568 -0.1716  0.0887
  988YOPC   C4A13334   2.496   6.441   7.551  0.0195  0.2240 -0.2394
  988YOPC   C1B13335   2.780   5.977   6.935  0.2321  0.3522  0.0057
  988YOPC   C2B13336   2.693   6.051   7.304 -0.0239  0.2926 -0.2366
  988YOPC   D3B13337   2.758   5.873   7.717 -0.0740 -0.0641  0.1093
  988YOPC   C4B13338   2.611   5.959   8.115  0.0224 -0.1850 -0.0600
  989YOPC   NC313339   6.073  17.791   5.557  0.6039  0.2113 -0.2173
  989YOPC   PO413340   5.964  17.652   5.939  0.4267 -0.1586 -0.0510
  989YOPC   GL113341   5.739  17.618   6.244  0.1674  0.0240 -0.2097
  989YOPC   GL213342   6.010  17.637   6.428 -0.2619  0.3205  0.2131
  989YOPC   C1A13343   5.548  17.504   6.538  0.1176 -0.2141 -0.0362
  989YOPC   D2A13344   5.446  17.453   6.957 -0.1355  0.0038  0.2119
  989YOPC   C3A13345   5.473  17.627   7.394 -0.2582  0.0577 -0.2174
  989YOPC   C4A13346   5.441  17.452   7.795 -0.1780 -0.1506 -0.1239
  989YOPC   C1B13347   6.210  17.816   6.709 -0.3127 -0.0212  0.2465
  989YOPC   C2B13348   6.195  18.231   6.826  0.2174 -0.1698  0.2988
  989YOPC   D3B13349   6.008  18.366   6.990  0.1221 -0.0765 -0.0293
  989YOPC   C4B13350   5.976  18.626   7.387 -0.2309 -0.4128  0.2491
  990YOPC   NC313351  14.983  16.785   5.821 -0.0534 -0.0796  0.1597
  990YOPC   PO413352  14.948  17.241   5.942  0.0263  0.0353  0.0509
  990YOPC   GL113353  14.899  17.348   6.393 -0.0885 -0.2076  0.0543
  990YOPC   GL213354  15.036  17.474   6.667 -0.0342  0.0005  0.1363
  990YOPC   C1A13355  14.677  17.075   6.670 -0.1185 -0.2944 -0.0659
  990YOPC   D2A13356  14.344  17.072   7.074  0.2104 -0.0426  0.0965
  990YOPC   C3A13357  14.690  17.284   7.348 -0.1157 -0.0567 -0.0189
  990YOPC   C4A13358  14.974  17.635   7.294  0.0424  0.0571  0.0925
  990YOPC   C1B13359  14.639  17.571   6.869  0.0836  0.1005 -0.0811
  990YOPC   C2B13360  14.277  17.582   7.161  0.1021 -0.2124  0.0418
  990YOPC   D3B13361  14.232  17.619   7.690  0.0300  0.0648  0.0394
  990YOPC   C4B13362  14.056  17.855   7.968  0.4179 -0.4032  0.0748
  991YOPC   NC313363   8.852  17.767   5.135 -0.1007 -0.1288  0.1072
  991YOPC   PO413364   8.679  17.498   5.234  0.0621 -0.0699  0.0837
  991YOPC   GL113365   8.841  17.620   5.586  0.1441 -0.3344 -0.3561
  991YOPC   GL213366   9.044  17.328   5.631  0.0058 -0.2923 -0.1660
  991YOPC   C1A13367   8.832  18.121   5.768 -0.0749  0.3692  0.0425
  991YOPC   D2A13368   8.917  18.439   6.109 -0.2337 -0.3751 -0.0817
  991YOPC   C3A13369   9.091  18.488   6.522  0.0040  0.2796  0.0679
  991YOPC   C4A13370   9.146  18.448   6.942  0.2849 -0.0314  0.1201
  991YOPC   C1B13371   9.395  17.136   5.941 -0.0788 -0.1137  0.2183
  991YOPC   C2B13372   9.651  16.769   6.116  0.0501 -0.0385  0.1287
  991YOPC   D3B13373   9.396  16.630   6.524  0.0974  0.2071 -0.3205
  991YOPC   C4B13374   9.118  16.453   6.861  0.2808 -0.0526  0.3331
  992YOPC   NC313375  15.637  17.802   5.612 -0.1420  0.0664  0.5346
  992YOPC   PO413376  15.362  17.632   5.853  0.0878 -0.0893  0.1744
  992YOPC   GL113377  15.366  17.282   6.194  0.0323  0.0941  0.0079
  992YOPC   GL213378  15.547  17.417   6.463  0.1036  0.3727  0.0080
  992YOPC   C1A13379  15.231  16.942   6.456  0.0840 -0.0567  0.1800
  992YOPC   D2A13380  15.067  16.693   6.614 -0.1666  0.0709 -0.1772
  992YOPC   C3A13381  14.860  16.727   6.980 -0.2082  0.0050 -0.1522
  992YOPC   C4A13382  14.815  16.825   7.440  0.0489  0.1817 -0.1140
  992YOPC   C1B13383  15.595  17.068   6.807  0.0130  0.1528 -0.1570
  992YOPC   C2B13384  15.650  17.096   7.201 -0.0734  0.3874  0.0783
  992YOPC   D3B13385  15.614  17.489   7.472 -0.1334 -0.3266  0.0609
  992YOPC   C4B13386  15.402  17.869   7.466  0.1729 -0.0241 -0.1308
  993YOPC   NC313387   9.683   6.486   5.776  0.1062  0.0762  0.1951
  993YOPC   PO413388   9.691   6.063   5.885  0.1304 -0.0153  0.0647
  993YOPC   GL113389   9.599   6.246   6.245 -0.1347 -0.1060  0.2771
  993YOPC   GL213390   9.707   6.586   6.344  0.0776 -0.0793  0.0848
  993YOPC   C1A13391   9.602   6.287   6.749 -0.1721 -0.0191  0.2320
  993YOPC   D2A13392   9.664   6.211   7.099  0.0266  0.1077  0.1734
  993YOPC   C3A13393   9.744   6.466   7.415  0.1156  0.4258 -0.2083
  993YOPC   C4A13394   9.759   6.681   7.724  0.0179  0.3664  0.1829
  993YOPC   C1B13395   9.604   6.823   6.713  0.0620  0.4919  0.0511
  993YOPC   C2B13396   9.727   6.899   7.159  0.0258  0.0088 -0.1211
  993YOPC   D3B13397   9.659   7.247   7.494 -0.3921 -0.2609 -0.0294
  993YOPC   C4B13398   9.548   7.210   7.886  0.2299 -0.1151 -0.0270
  994YOPC   NC313399   3.854   5.941   6.075 -0.0098 -0.1356  0.2316
  994YOPC   PO413400   4.113   5.566   6.318 -0.1396  0.2210 -0.1860
  994YOPC   GL113401   3.885   5.637   6.614  0.1769  0.1278  0.0530
  994YOPC   GL213402   3.579   5.759   6.495 -0.0225  0.0134 -0.0843
  994YOPC   C1A13403   3.859   5.517   7.144  0.0915 -0.0190  0.2897
  994YOPC   D2A13404   4.084   5.441   7.529 -0.2041 -0.0063 -0.3935
  994YOPC   C3A13405   4.056   5.624   7.867 -0.2098 -0.0248  0.0699
  994YOPC   C4A13406   4.458   5.736   8.110 -0.0480  0.1119 -0.0081
  994YOPC   C1B13407   3.433   5.820   6.967  0.0119  0.3748  0.3891
  994YOPC   C2B13408   3.184   5.898   7.302 -0.0821  0.2935 -0.1602
  994YOPC   D3B13409   3.308   5.977   7.701  0.3167 -0.1319 -0.1596
  994YOPC   C4B13410   3.031   6.306   7.836  0.4528  0.2597 -0.1155
  995YOPC   NC313411   5.421   2.253   5.373  0.1807  0.2318  0.1282
  995YOPC   PO413412   5.081   2.170   5.728  0.0945 -0.0204  0.0519
  995YOPC   GL113413   5.141   2.199   6.028 -0.0565  0.2082 -0.0381
  995YOPC   GL213414   5.117   2.509   6.134 -0.4692 -0.0823  0.0089
  995YOPC   C1A13415   5.204   2.118   6.500 -0.1627 -0.0004  0.0030
  995YOPC   D2A13416   5.220   1.976   7.059  0.0436 -0.2047  0.1346
  995YOPC   C3A13417   5.141   1.776   7.497 -0.1841  0.1199  0.3666
  995YOPC   C4A13418   4.946   1.211   7.560  0.1945  0.0108  0.1471
  995YOPC   C1B13419   5.193   2.598   6.544 -0.1474  0.2578 -0.2335
  995YOPC   C2B13420   5.294   2.903   6.921  0.4481  0.0610 -0.2104
  995YOPC   D3B13421   5.204   2.825   7.433 -0.2478 -0.1691 -0.3635
  995YOPC   C4B13422   4.983   2.791   7.803 -0.0353 -0.2373 -0.1063
  996YOPC   NC313423   2.065   7.336   5.749 -0.4050  0.1615 -0.0262
  996YOPC   PO413424   2.497   7.477   5.893 -0.3779  0.0787  0.3379
  996YOPC   GL113425   2.649   7.504   6.341  0.2876  0.1927 -0.3750
  996YOPC   GL213426   2.624   7.829   6.465 -0.2122 -0.0655  0.1102
  996YOPC   C1A13427   2.621   7.350   6.719 -0.3300  0.1358 -0.0298
  996YOPC   D2A13428   2.567   7.539   7.073 -0.0315  0.0249  0.1618
  996YOPC   C3A13429   2.219   7.699   7.108  0.1151 -0.3800 -0.0904
  996YOPC   C4A13430   1.884   7.917   7.346  0.0919 -0.2162 -0.0143
  996YOPC   C1B13431   2.881   7.770   6.772  0.1759  0.1044  0.0768
  996YOPC   C2B13432   3.073   7.694   7.219  0.2187  0.2622 -0.0127
  996YOPC   D3B13433   2.801   7.491   7.576 -0.1103 -0.3772  0.2163
  996YOPC   C4B13434   2.663   7.292   7.961 -0.2360 -0.0650  0.1751
  997YOPC   NC313435   1.541   4.622   6.161 -0.1799  0.1345 -0.5870
  997YOPC   PO413436   1.124   4.880   5.942 -0.1031 -0.3227 -0.2061
  997YOPC   GL113437   1.323   5.130   6.322 -0.1124 -0.0247 -0.0082
  997YOPC   GL213438   1.272   4.864   6.534  0.1702 -0.0461  0.0107
  997YOPC   C1A13439   1.362   5.325   6.724 -0.0461 -0.1541 -0.5723
  997YOPC   D2A13440   1.402   5.357   7.148 -0.1561  0.1833 -0.3758
  997YOPC   C3A13441   1.432   5.704   7.416  0.0359 -0.0073 -0.1694
  997YOPC   C4A13442   1.250   6.075   7.582  0.0291  0.1525 -0.2514
  997YOPC   C1B13443   1.492   4.887   6.920 -0.3580  0.2422  0.1603
  997YOPC   C2B13444   1.641   4.922   7.372 -0.0127  0.0517 -0.2962
  997YOPC   D3B13445   1.604   5.117   7.764 -0.0863  0.2198 -0.0576
  997YOPC   C4B13446   1.280   5.557   7.905 -0.2879 -0.1677 -0.1524
  998YOPC   NC313447   0.278  10.893   5.806  0.2064 -0.3240 -0.0968
  998YOPC   PO413448   0.738  11.000   5.697 -0.0130  0.4188 -0.1494
  998YOPC   GL113449   0.748  11.272   6.114  0.0336 -0.1251  0.0769
  998YOPC   GL213450   1.035  11.229   6.307  0.2057  0.0415  0.1323
  998YOPC   C1A13451   0.538  11.165   6.483 -0.1091 -0.1164  0.0323
  998YOPC   D2A13452   0.502  11.024   6.874  0.2314  0.0224  0.0555
  998YOPC   C3A13453   0.542  11.130   7.255  0.0983  0.1315  0.2102
  998YOPC   C4A13454   0.648  11.383   7.618 -0.0629 -0.0378  0.0408
  998YOPC   C1B13455   0.930  10.885   6.533  0.0599 -0.0055 -0.1334
  998YOPC   C2B13456   1.001  10.851   6.986  0.0030  0.1376 -0.0476
  998YOPC   D3B13457   0.917  10.973   7.489 -0.2825  0.0212 -0.0494
  998YOPC   C4B13458   0.932  11.138   7.968  0.2073  0.0399 -0.0591
  999YOPC   NC313459  15.159  15.706   5.502  0.1487 -0.2150  0.3112
  999YOPC   PO413460  15.020  15.398   5.540 -0.1646  0.2053 -0.2077
  999YOPC   GL113461  14.767  15.437   5.828 -0.4250 -0.1659  0.2963
  999YOPC   GL213462  14.431  15.460   5.852 -0.0186  0.0752 -0.2100
  999YOPC   C1A13463  14.745  15.475   6.258 -0.1311 -0.0392 -0.1175
  999YOPC   D2A13464  14.648  15.519   6.642 -0.0099  0.2693  0.3580
  999YOPC   C3A13465  14.335  15.327   6.781 -0.1220 -0.0920 -0.1378
  999YOPC   C4A13466  14.051  15.378   7.082 -0.2934 -0.2299 -0.0230
  999YOPC   C1B13467  14.135  15.433   6.280  0.2707 -0.1477  0.0453
  999YOPC   C2B13468  13.753  15.604   6.440  0.0190 -0.3012 -0.2346
  999YOPC   D3B13469  13.449  15.408   6.699  0.0619  0.1338 -0.0663
  999YOPC   C4B13470  13.259  15.053   6.542 -0.2929 -0.0268  0.1094
 1000YOPC   NC313471   2.472  10.961   5.663  0.0740 -0.2570  0.0723
 1000YOPC   PO413472   2.340  11.245   5.894 -0.2920 -0.1981  0.0594
 1000YOPC   GL113473   2.019  11.341   6.273 -0.2875 -0.1129  0.0472
 1000YOPC   GL213474   1.666  11.233   6.091 -0.2547  0.0055  0.0091
 1000YOPC   C1A13475   1.974  11.448   6.769 -0.2697 -0.3661  0.0492
 1000YOPC   D2A13476   1.810  11.365   7.096 -0.1714  0.0347 -0.0579
 1000YOPC   C3A13477   1.661  11.589   7.443  0.2900  0.4391  0.1574
 1000YOPC   C4A13478   1.580  11.839   7.748 -0.1236 -0.0237  0.1546
 1000YOPC   C1B13479   1.561  11.334   6.510  0.1674 -0.2064  0.1633
 1000YOPC   C2B13480   1.302  11.158   6.813 -0.1730  0.0081  0.1389
 1000YOPC   D3B13481   1.424  11.123   7.238  0.1037  0.1124  0.2992
 1000YOPC   C4B13482   1.500  11.122   7.556 -0.0357 -0.0506  0.0058
 1001YOPC   NC313483   0.218  13.459   5.416 -0.0857  0.3012 -0.3674
 1001YOPC   PO413484   0.263  13.109   5.742 -0.3010  0.0319 -0.1766
 1001YOPC   GL113485   0.004  12.850   5.903  0.2537  0.0197 -0.0605
 1001YOPC   GL213486  -0.310  12.692   5.841  0.2303 -0.1206  0.1631
 1001YOPC   C1A13487   0.070  12.703   6.297  0.0726  0.0062 -0.1033
 1001YOPC   D2A13488   0.027  12.895   6.698 -0.1227 -0.1263 -0.0227
 1001YOPC   C3A13489  -0.296  12.955   7.046  0.1320 -0.0142  0.1176
 1001YOPC   C4A13490  -0.457  12.960   7.341 -0.4823 -0.2472 -0.2266
 1001YOPC   C1B13491  -0.428  12.633   6.163 -0.0235  0.0948  0.0184
 1001YOPC   C2B13492  -0.430  12.774   6.554  0.2134  0.2807  0.1731
 1001YOPC   D3B13493  -0.721  12.573   6.907 -0.2529  0.0957  0.1400
 1001YOPC   C4B13494  -0.880  12.184   7.205  0.0583  0.5782 -0.5086
 1002YOPC   NC313495  13.089   8.905   5.105  0.1500  0.2971  0.1102
 1002YOPC   PO413496  13.103   9.047   5.586 -0.0956  0.0971 -0.0161
 1002YOPC   GL113497  13.292   9.017   6.072 -0.0665  0.2094  0.0461
 1002YOPC   GL213498  13.285   9.333   6.016  0.3756  0.3939 -0.1154
 1002YOPC   C1A13499  12.987   8.845   6.400 -0.1833  0.0130 -0.0455
 1002YOPC   D2A13500  12.876   8.559   6.663  0.3014 -0.3605 -0.1362
 1002YOPC   C3A13501  12.625   8.887   6.997  0.0212 -0.0122  0.2067
 1002YOPC   C4A13502  12.243   8.993   7.277  0.0478  0.3133  0.1504
 1002YOPC   C1B13503  12.938   9.313   6.280 -0.1469 -0.0500  0.0716
 1002YOPC   C2B13504  12.818   9.375   6.649  0.1806  0.0819 -0.1420
 1002YOPC   D3B13505  12.475   9.283   6.749 -0.0946 -0.0959  0.1976
 1002YOPC   C4B13506  12.166   9.408   7.025  0.1288  0.1529  0.1702
 1003YOPC   NC313507   5.056   5.687   5.666 -0.2055  0.0877 -0.1832
 1003YOPC   PO413508   4.781   6.017   5.733  0.1483 -0.0199  0.1164
 1003YOPC   GL113509   4.953   5.870   6.124  0.2405  0.3893 -0.0248
 1003YOPC   GL213510   5.309   5.754   6.225 -0.3194 -0.1714 -0.0042
 1003YOPC   C1A13511   4.910   6.041   6.603 -0.2618  0.0823 -0.0518
 1003YOPC   D2A13512   5.294   6.159   6.825 -0.1977  0.2945 -0.0785
 1003YOPC   C3A13513   5.520   5.857   7.120 -0.1178  0.1209  0.0274
 1003YOPC   C4A13514   5.574   5.464   7.393  0.1013 -0.0390 -0.2149
 1003YOPC   C1B13515   5.036   5.549   6.546 -0.0980  0.1334  0.0912
 1003YOPC   C2B13516   5.064   5.671   6.955  0.2975 -0.2749  0.1461
 1003YOPC   D3B13517   4.774   5.552   7.307  0.0089 -0.0404 -0.2634
 1003YOPC   C4B13518   4.538   5.585   7.635 -0.0296  0.2175  0.4828
 1004YOPC   NC313519  10.567   3.236   5.967 -0.0645 -0.1551  0.1248
 1004YOPC   PO413520  10.642   2.881   6.206  0.1941 -0.2319 -0.0413
 1004YOPC   GL113521  10.723   2.947   6.609 -0.0579  0.0958 -0.0215
 1004YOPC   GL213522  11.008   2.972   6.755 -0.3632  0.0102 -0.2820
 1004YOPC   C1A13523  10.366   3.249   6.888 -0.0917  0.1758 -0.1992
 1004YOPC   D2A13524  10.395   3.670   7.084 -0.1322  0.1725  0.1331
 1004YOPC   C3A13525  10.521   3.621   7.456 -0.1895  0.0502  0.0528
 1004YOPC   C4A13526  10.533   3.489   7.807 -0.0435 -0.0868 -0.2505
 1004YOPC   C1B13527  10.695   2.821   7.109  0.0743  0.1331  0.0882
 1004YOPC   C2B13528  10.890   2.648   7.564  0.1259  0.1032 -0.1824
 1004YOPC   D3B13529  10.662   2.741   7.809  0.0984 -0.0492  0.2023
 1004YOPC   C4B13530  10.467   2.565   8.135  0.1334  0.1358  0.1777
 1005YOPC   NC313531   3.993  10.674   6.251  0.0998 -0.0884  0.1725
 1005YOPC   PO413532   3.665  10.437   5.916  0.0773 -0.3169 -0.0721
 1005YOPC   GL113533   3.476  10.458   6.328 -0.1804 -0.0755 -0.1254
 1005YOPC   GL213534   3.672  10.153   6.481  0.0793  0.1123 -0.0115
 1005YOPC   C1A13535   3.136  10.421   6.704 -0.0651 -0.2313  0.1085
 1005YOPC   D2A13536   3.112  10.279   7.080  0.0590 -0.1268  0.4780
 1005YOPC   C3A13537   2.777  10.277   7.393 -0.1359 -0.2321 -0.1115
 1005YOPC   C4A13538   2.451  10.285   7.616 -0.0281  0.4171  0.0361
 1005YOPC   C1B13539   3.960  10.376   6.793 -0.0843  0.0808  0.0139
 1005YOPC   C2B13540   4.148  10.453   7.178  0.1837 -0.2901  0.0102
 1005YOPC   D3B13541   3.866  10.439   7.614  0.3869  0.0282  0.1223
 1005YOPC   C4B13542   3.773   9.999   7.758 -0.0277 -0.2651 -0.1156
 1006YOPC   NC313543  17.639   3.113   5.990  0.1723 -0.4390 -0.1571
 1006YOPC   PO413544  17.747   2.691   6.122  0.1463 -0.1703  0.0627
 1006YOPC   GL113545  17.875   2.796   6.534  0.2171  0.1559 -0.0193
 1006YOPC   GL213546  17.766   3.088   6.532  0.3900  0.1224 -0.0629
 1006YOPC   C1A13547  17.804   2.613   6.953  0.1351  0.0435 -0.0690
 1006YOPC   D2A13548  17.623   2.676   7.392 -0.4188  0.1592  0.3805
 1006YOPC   C3A13549  17.606   2.383   7.712  0.2245  0.0166  0.1361
 1006YOPC   C4A13550  17.403   1.987   7.908 -0.0248  0.2264  0.2851
 1006YOPC   C1B13551  17.596   3.046   7.025 -0.0492 -0.1856  0.2514
 1006YOPC   C2B13552  17.523   3.166   7.416  0.1071  0.1285 -0.2368
 1006YOPC   D3B13553  17.671   3.049   7.836 -0.1153 -0.0777 -0.0632
 1006YOPC   C4B13554  17.685   3.014   8.235 -0.3443 -0.0965 -0.1919
 1007YOPC   NC313555  16.682  16.524   5.581 -0.1328 -0.1783 -0.2571
 1007YOPC   PO413556  16.790  16.886   5.795  0.0186 -0.2388 -0.0249
 1007YOPC   GL113557  17.018  16.939   6.229 -0.2165 -0.0674  0.1192
 1007YOPC   GL213558  16.877  17.205   6.362 -0.1429  0.4809  0.0957
 1007YOPC   C1A13559  17.187  17.062   6.731  0.1473 -0.4358 -0.2455
 1007YOPC   D2A13560  17.090  17.206   7.080 -0.1581  0.0088  0.2907
 1007YOPC   C3A13561  17.288  17.324   7.533  0.1239 -0.0452 -0.1089
 1007YOPC   C4A13562  17.214  17.498   7.976 -0.0159 -0.1307  0.3188
 1007YOPC   C1B13563  16.589  17.167   6.789 -0.0750 -0.1226 -0.1884
 1007YOPC   C2B13564  16.391  17.224   7.097  0.3629  0.2533  0.1012
 1007YOPC   D3B13565  16.347  17.428   7.471  0.0026 -0.0199  0.1758
 1007YOPC   C4B13566  15.978  17.570   7.796 -0.2960  0.0572 -0.4137
 1008YOPC   NC313567  16.291   1.529   5.806  0.1750  0.0940 -0.2961
 1008YOPC   PO413568  16.803   1.550   5.870 -0.0192 -0.0648 -0.1736
 1008YOPC   GL113569  16.602   1.671   6.175  0.1089 -0.2468  0.4621
 1008YOPC   GL213570  16.706   1.812   6.381 -0.1864 -0.1385 -0.0103
 1008YOPC   C1A13571  16.193   1.862   6.297  0.1913 -0.1568  0.0261
 1008YOPC   D2A13572  16.114   2.141   6.583  0.3103 -0.0201  0.0674
 1008YOPC   C3A13573  16.122   1.968   7.047  0.1012  0.0538  0.2647
 1008YOPC   C4A13574  16.203   1.767   7.405  0.0329  0.0236 -0.2779
 1008YOPC   C1B13575  16.464   1.821   6.718  0.2871  0.0391  0.1053
 1008YOPC   C2B13576  16.512   2.233   6.885  0.1713  0.3025 -0.4690
 1008YOPC   D3B13577  16.659   2.421   7.300 -0.0983  0.0774 -0.1180
 1008YOPC   C4B13578  16.590   2.347   7.739  0.2035 -0.0806 -0.0516
 1009YOPC   NC313579   4.356   6.861   6.220 -0.1851 -0.0079 -0.1224
 1009YOPC   PO413580   4.056   6.432   6.102  0.0839 -0.1014  0.3079
 1009YOPC   GL113581   4.176   6.481   6.488  0.0669  0.1452  0.0024
 1009YOPC   GL213582   4.140   6.151   6.518  0.4209  0.0562  0.3845
 1009YOPC   C1A13583   4.443   6.395   6.855  0.0523 -0.0173  0.1456
 1009YOPC   D2A13584   4.861   6.184   7.037  0.2161  0.2470 -0.2351
 1009YOPC   C3A13585   4.826   6.030   7.416  0.2421 -0.3920  0.0172
 1009YOPC   C4A13586   4.793   6.062   7.840 -0.1572  0.3224  0.1398
 1009YOPC   C1B13587   3.884   6.065   6.911  0.0731  0.0988  0.2259
 1009YOPC   C2B13588   3.747   6.042   7.301  0.3461 -0.0790 -0.1968
 1009YOPC   D3B13589   3.791   6.036   7.714  0.1721  0.4547  0.3296
 1009YOPC   C4B13590   3.640   5.827   8.076  0.1819 -0.0781  0.0825
 1010YOPC   NC313591  12.056   3.713   6.007 -0.0666  0.2707  0.3747
 1010YOPC   PO413592  11.723   3.538   6.160 -0.2947  0.0599 -0.1702
 1010YOPC   GL113593  11.417   3.668   6.410 -0.1871 -0.2420  0.0259
 1010YOPC   GL213594  11.362   3.985   6.592  0.1659  0.0751  0.1218
 1010YOPC   C1A13595  11.751   3.878   6.767 -0.3788  0.0587 -0.1684
 1010YOPC   D2A13596  11.740   3.933   7.235 -0.1387 -0.2634 -0.1846
 1010YOPC   C3A13597  11.959   4.152   7.508 -0.0795 -0.0442  0.2867
 1010YOPC   C4A13598  11.743   4.381   7.836 -0.2412  0.4589 -0.1735
 1010YOPC   C1B13599  11.327   4.060   6.972 -0.2673 -0.0703 -0.0282
 1010YOPC   C2B13600  11.321   3.957   7.423  0.2237  0.0276  0.0565
 1010YOPC   D3B13601  10.965   4.137   7.601  0.4119 -0.0848 -0.0120
 1010YOPC   C4B13602  10.592   3.985   7.832 -0.1587  0.0826 -0.1503
 1011YOPC   NC313603  16.290  11.623   5.365 -0.1259 -0.0804 -0.2535
 1011YOPC   PO413604  16.433  11.335   5.570 -0.1013 -0.0354  0.0463
 1011YOPC   GL113605  16.301  11.286   5.980  0.2181  0.3272  0.4014
 1011YOPC   GL213606  16.330  10.963   6.098  0.0771 -0.1979 -0.1612
 1011YOPC   C1A13607  16.449  11.566   6.292 -0.2426  0.0234 -0.0384
 1011YOPC   D2A13608  16.304  11.472   6.754  0.0905 -0.3115 -0.1710
 1011YOPC   C3A13609  16.263  11.824   7.074  0.3836 -0.1771 -0.1925
 1011YOPC   C4A13610  16.145  11.824   7.463 -0.0971 -0.0558 -0.3670
 1011YOPC   C1B13611  16.530  11.048   6.494  0.1692 -0.0709 -0.1049
 1011YOPC   C2B13612  16.571  10.990   6.903  0.1098 -0.0994 -0.1610
 1011YOPC   D3B13613  16.237  10.858   7.020 -0.1474 -0.0141 -0.2372
 1011YOPC   C4B13614  16.124  10.848   7.529 -0.1896  0.1409  0.3612
 1012YOPC   NC313615  14.537  10.742   5.907  0.0014  0.1164 -0.0674
 1012YOPC   PO413616  14.605  10.312   5.865  0.1735  0.1038  0.1158
 1012YOPC   GL113617  14.418  10.373   6.216  0.2177 -0.1512  0.0513
 1012YOPC   GL213618  14.339  10.117   6.317  0.0203 -0.0504 -0.2244
 1012YOPC   C1A13619  13.938  10.512   6.314  0.1176 -0.2340  0.0283
 1012YOPC   D2A13620  13.633  10.920   6.524  0.3321  0.0558 -0.1687
 1012YOPC   C3A13621  13.416  10.859   6.929 -0.1743  0.3155  0.0082
 1012YOPC   C4A13622  13.369  11.012   7.358 -0.0609 -0.0884 -0.2446
 1012YOPC   C1B13623  14.304  10.379   6.643  0.0673  0.0321  0.0526
 1012YOPC   C2B13624  14.126  10.299   7.090  0.0634 -0.1107  0.1379
 1012YOPC   D3B13625  14.426  10.445   7.259 -0.2806  0.0662  0.3048
 1012YOPC   C4B13626  14.603  10.833   7.452  0.1631 -0.2794  0.0770
 1013YOPC   NC313627   2.665  16.522   5.515 -0.0498  0.1306 -0.3458
 1013YOPC   PO413628   3.115  16.582   5.716 -0.0719  0.1746 -0.0879
 1013YOPC   GL113629   3.022  16.519   6.016  0.1117 -0.2985  0.1225
 1013YOPC   GL213630   3.326  16.450   6.276 -0.0182 -0.0328  0.0974
 1013YOPC   C1A13631   2.791  16.318   6.339 -0.2986 -0.1143 -0.2880
 1013YOPC   D2A13632   2.763  15.856   6.444 -0.0781  0.0494  0.1463
 1013YOPC   C3A13633   2.668  15.603   6.791  0.0549 -0.2809  0.4227
 1013YOPC   C4A13634   2.573  15.537   7.158  0.1075  0.1300  0.1952
 1013YOPC   C1B13635   3.218  16.457   6.658  0.2101  0.1711  0.0181
 1013YOPC   C2B13636   3.260  16.477   7.161  0.2252 -0.0113 -0.3474
 1013YOPC   D3B13637   3.618  16.472   7.482  0.0593 -0.3981  0.1466
 1013YOPC   C4B13638   3.809  16.412   7.915 -0.0155 -0.0752 -0.0858
 1014YOPC   NC313639   2.292  12.619   5.738  0.1644 -0.2067  0.0506
 1014YOPC   PO413640   1.797  12.778   5.832 -0.0659  0.0650 -0.2079
 1014YOPC   GL113641   1.686  12.883   6.192 -0.2258  0.2123  0.0009
 1014YOPC   GL213642   1.480  13.140   6.312 -0.3243  0.0452 -0.0835
 1014YOPC   C1A13643   1.630  12.625   6.573  0.1639  0.0527 -0.2415
 1014YOPC   D2A13644   1.810  12.692   7.001  0.1423  0.0052  0.3384
 1014YOPC   C3A13645   2.129  12.601   7.201  0.1392  0.2134  0.2036
 1014YOPC   C4A13646   2.271  12.417   7.486 -0.0435  0.0119 -0.1638
 1014YOPC   C1B13647   1.483  13.091   6.745  0.0944 -0.0465  0.0418
 1014YOPC   C2B13648   1.503  13.421   7.083 -0.1235  0.2880  0.2283
 1014YOPC   D3B13649   1.297  13.406   7.413 -0.0847 -0.0732 -0.0646
 1014YOPC   C4B13650   1.284  13.718   7.737 -0.0937 -0.2477 -0.2775
 1015YOPC   NC313651  14.347  14.102   5.501  0.0187 -0.1126 -0.0996
 1015YOPC   PO413652  14.633  13.728   5.614  0.1168 -0.3421 -0.1663
 1015YOPC   GL113653  14.588  13.729   5.989 -0.0553 -0.5528  0.0835
 1015YOPC   GL213654  14.346  13.848   6.091 -0.0010 -0.1537 -0.1033
 1015YOPC   C1A13655  14.635  13.602   6.421  0.1825 -0.0270  0.0184
 1015YOPC   D2A13656  15.060  13.596   6.582 -0.2664  0.2665 -0.0219
 1015YOPC   C3A13657  15.319  13.482   6.942  0.1069 -0.1117  0.0253
 1015YOPC   C4A13658  15.504  13.452   7.312 -0.0135  0.0425  0.0100
 1015YOPC   C1B13659  14.128  13.795   6.520  0.0139 -0.0219 -0.0599
 1015YOPC   C2B13660  14.114  13.884   6.877 -0.0821 -0.0947 -0.1778
 1015YOPC   D3B13661  14.225  13.772   7.224 -0.1697  0.0654  0.0354
 1015YOPC   C4B13662  14.401  13.482   7.515  0.0923 -0.1429 -0.1890
 1016YOPC   NC313663  10.164   1.780   5.774  0.2484 -0.0602  0.1732
 1016YOPC   PO413664  10.476   1.919   6.120 -0.0883 -0.4368 -0.1838
 1016YOPC   GL113665  10.477   1.926   6.539  0.1581 -0.2680 -0.0573
 1016YOPC   GL213666  10.165   1.868   6.637 -0.1046  0.0916  0.1328
 1016YOPC   C1A13667  10.679   1.896   6.930  0.1021 -0.2233 -0.0908
 1016YOPC   D2A13668  10.655   1.731   7.417  0.1272  0.0175 -0.0087
 1016YOPC   C3A13669  10.449   1.795   7.772 -0.0614  0.2419  0.2174
 1016YOPC   C4A13670  10.362   2.008   8.114  0.0898  0.3839  0.3180
 1016YOPC   C1B13671  10.088   1.731   7.056  0.0680 -0.0379 -0.0479
 1016YOPC   C2B13672  10.124   1.592   7.480 -0.0574 -0.0406 -0.3810
 1016YOPC   D3B13673   9.971   1.843   7.830  0.1491 -0.1065  0.1692
 1016YOPC   C4B13674   9.717   2.079   8.075 -0.0532  0.1479 -0.2223
 1017YOPC   NC313675   2.157  14.945   5.725  0.0575  0.0025 -0.3640
 1017YOPC   PO413676   2.329  14.489   5.662 -0.0803 -0.1205  0.0145
 1017YOPC   GL113677   2.049  14.283   5.937 -0.2583 -0.0092 -0.2522
 1017YOPC   GL213678   2.010  13.927   6.016  0.2431 -0.0922 -0.1026
 1017YOPC   C1A13679   1.973  14.430   6.316 -0.0191 -0.3478 -0.1075
 1017YOPC   D2A13680   1.500  14.595   6.476  0.1397 -0.0420  0.0265
 1017YOPC   C3A13681   1.457  14.936   6.811 -0.0842 -0.0696 -0.0481
 1017YOPC   C4A13682   1.314  15.099   7.099  0.2169 -0.0547  0.2164
 1017YOPC   C1B13683   2.131  13.980   6.443 -0.4441 -0.0554 -0.2609
 1017YOPC   C2B13684   2.225  14.000   6.819 -0.2684 -0.2139  0.1588
 1017YOPC   D3B13685   1.980  14.158   7.182 -0.3732  0.1497  0.3321
 1017YOPC   C4B13686   2.061  14.507   7.334  0.1301 -0.1231 -0.0559
 1018YOPC   NC313687  11.451  11.873   5.412  0.0091 -0.0459 -0.1553
 1018YOPC   PO413688  11.178  11.447   5.454 -0.2649 -0.0055  0.0634
 1018YOPC   GL113689  11.062  11.614   5.865  0.0576  0.0859 -0.0597
 1018YOPC   GL213690  11.214  11.878   5.905 -0.1479 -0.5485  0.0995
 1018YOPC   C1A13691  11.020  11.478   6.290 -0.1557 -0.1500 -0.2725
 1018YOPC   D2A13692  11.056  11.518   6.723 -0.1366  0.0369  0.1504
 1018YOPC   C3A13693  11.242  11.824   6.894  0.1665  0.2736 -0.1124
 1018YOPC   C4A13694  11.099  12.195   6.935  0.2172  0.0943  0.2785
 1018YOPC   C1B13695  11.592  11.875   6.048  0.3938 -0.2366  0.0641
 1018YOPC   C2B13696  11.847  12.149   6.302 -0.2418 -0.2668 -0.0822
 1018YOPC   D3B13697  12.003  12.075   6.712  0.1546  0.0872  0.1422
 1018YOPC   C4B13698  12.411  12.012   6.893  0.1067  0.1402  0.0182
 1019YOPC   NC313699   9.682  18.143   5.316  0.0435  0.1296  0.1468
 1019YOPC   PO413700  10.183  18.048   5.402 -0.2488 -0.1323  0.1282
 1019YOPC   GL113701   9.984  17.987   5.673 -0.1849  0.0849 -0.0807
 1019YOPC   GL213702   9.871  18.225   5.957 -0.0548  0.2335 -0.1999
 1019YOPC   C1A13703   9.744  17.744   6.078 -0.0052 -0.1522 -0.0095
 1019YOPC   D2A13704   9.692  17.302   6.280 -0.3285 -0.2705 -0.1354
 1019YOPC   C3A13705   9.910  17.035   6.476 -0.0081  0.0977  0.1183
 1019YOPC   C4A13706  10.125  16.957   6.239  0.1589  0.1035  0.0802
 1019YOPC   C1B13707   9.972  18.431   6.271  0.0226 -0.0208  0.2237
 1019YOPC   C2B13708   9.800  18.876   6.544 -0.0737  0.0548  0.0455
 1019YOPC   D3B13709   9.683  18.732   6.965 -0.0089 -0.0077  0.1247
 1019YOPC   C4B13710   9.544  18.603   7.249  0.0420 -0.4215  0.3151
 1020YOPC   NC313711   6.940   9.098   6.399  0.0901 -0.0856  0.0818
 1020YOPC   PO413712   6.750   9.368   6.146  0.0830 -0.3475  0.3028
 1020YOPC   GL113713   6.611   9.645   6.456  0.3445 -0.3253 -0.2073
 1020YOPC   GL213714   6.303   9.669   6.766  0.0463  0.3625  0.3225
 1020YOPC   C1A13715   6.769   9.585   6.837  0.0316 -0.0851  0.1626
 1020YOPC   D2A13716   6.959   9.389   7.169  0.0162 -0.0334 -0.0614
 1020YOPC   C3A13717   6.936   9.362   7.667 -0.0875  0.0001 -0.0497
 1020YOPC   C4A13718   6.924   9.337   8.064 -0.0853  0.0797 -0.2590
 1020YOPC   C1B13719   6.121  10.016   6.854 -0.1148 -0.3936 -0.0968
 1020YOPC   C2B13720   6.183  10.238   7.190 -0.0744  0.1093  0.1535
 1020YOPC   D3B13721   6.282  10.043   7.600 -0.0863  0.2200  0.2273
 1020YOPC   C4B13722   6.082   9.876   7.925  0.0466  0.2899  0.0115
 1021YOPC   NC313723  14.762   7.749   6.090 -0.1279  0.4542 -0.1305
 1021YOPC   PO413724  14.783   8.268   5.987 -0.3248  0.0935  0.1522
 1021YOPC   GL113725  14.930   8.554   6.262 -0.2752  0.1389 -0.0877
 1021YOPC   GL213726  15.127   8.810   6.261  0.1000  0.0263 -0.1418
 1021YOPC   C1A13727  14.759   8.710   6.700  0.0294  0.1323 -0.1495
 1021YOPC   D2A13728  14.459   8.683   6.966  0.0001 -0.1968  0.3605
 1021YOPC   C3A13729  14.387   8.765   7.387 -0.2753  0.4605  0.0001
 1021YOPC   C4A13730  14.408   8.622   7.819 -0.0396 -0.1289  0.0327
 1021YOPC   C1B13731  15.259   8.646   6.685 -0.2264  0.1119 -0.1844
 1021YOPC   C2B13732  15.574   8.607   6.891  0.2726  0.3371  0.0599
 1021YOPC   D3B13733  15.491   8.712   7.260  0.1331  0.1544 -0.0143
 1021YOPC   C4B13734  15.630   8.950   7.512  0.2032 -0.0229 -0.0430
 1022YOPC   NC313735  17.055   9.419   6.107  0.0290 -0.0017 -0.1800
 1022YOPC   PO413736  16.799   9.734   5.907 -0.0086 -0.0772  0.1539
 1022YOPC   GL113737  16.857   9.797   6.364  0.0338 -0.0402  0.3439
 1022YOPC   GL213738  17.107   9.686   6.562  0.3015  0.0644 -0.3218
 1022YOPC   C1A13739  16.727  10.003   6.699 -0.0041 -0.2456 -0.2991
 1022YOPC   D2A13740  16.786  10.109   7.218  0.2281 -0.0363 -0.3008
 1022YOPC   C3A13741  16.840   9.710   7.453  0.1219 -0.3689 -0.1625
 1022YOPC   C4A13742  16.985   9.684   7.985 -0.3843  0.2220  0.0983
 1022YOPC   C1B13743  17.198   9.809   6.941 -0.1766 -0.1745 -0.0679
 1022YOPC   C2B13744  17.286   9.918   7.395 -0.3174 -0.1171 -0.3656
 1022YOPC   D3B13745  17.212  10.060   7.689  0.0797  0.0991 -0.3253
 1022YOPC   C4B13746  17.306  10.131   8.173  0.0511  0.0464 -0.0377
 1023YOPC   NC313747  14.108  12.653   4.916 -0.3952  0.1733  0.0061
 1023YOPC   PO413748  14.403  12.480   5.333  0.0336  0.1221  0.0022
 1023YOPC   GL113749  14.559  12.247   5.773  0.2709  0.1916  0.0730
 1023YOPC   GL213750  14.904  12.253   5.900 -0.3967 -0.1285 -0.0738
 1023YOPC   C1A13751  14.373  12.161   6.211 -0.1465 -0.1216  0.1266
 1023YOPC   D2A13752  14.345  12.463   6.512 -0.2032  0.0656  0.1566
 1023YOPC   C3A13753  14.414  12.592   6.915 -0.0098 -0.1063 -0.0744
 1023YOPC   C4A13754  14.643  12.529   7.366  0.1795 -0.0389  0.0494
 1023YOPC   C1B13755  14.913  12.350   6.266  0.2506  0.0567 -0.5300
 1023YOPC   C2B13756  14.938  12.429   6.735  0.1281  0.3233  0.1248
 1023YOPC   D3B13757  14.913  12.775   6.939  0.0807  0.0104 -0.2109
 1023YOPC   C4B13758  15.004  13.190   7.183  0.1649  0.4994 -0.4167
 1024YOPC   NC313759   5.173  18.082   5.464  0.0301 -0.1290  0.3500
 1024YOPC   PO413760   5.244  18.307   5.874  0.0994 -0.1469 -0.0446
 1024YOPC   GL113761   5.563  18.570   5.961 -0.0821  0.0511 -0.2133
 1024YOPC   GL213762   5.616  18.880   5.891 -0.3749 -0.3638  0.1843
 1024YOPC   C1A13763   5.868  18.600   6.333  0.1157  0.2416  0.1243
 1024YOPC   D2A13764   5.941  18.699   6.692  0.3385 -0.2354 -0.1737
 1024YOPC   C3A13765   5.730  18.990   7.152 -0.0544  0.2974  0.2931
 1024YOPC   C4A13766   5.700  19.006   7.559  0.0829  0.4042  0.0343
 1024YOPC   C1B13767   5.613  18.993   6.316  0.3552  0.1487 -0.1693
 1024YOPC   C2B13768   5.519  19.042   6.709  0.0059  0.3751  0.0353
 1024YOPC   D3B13769   5.261  18.812   6.861  0.0563 -0.1386  0.0179
 1024YOPC   C4B13770   5.020  18.457   6.873 -0.1564  0.0046 -0.1662
 1025YOPC   NC313771   7.981   7.896   6.022 -0.1204  0.0547 -0.1213
 1025YOPC   PO413772   7.544   7.716   6.150 -0.0515  0.0036  0.0461
 1025YOPC   GL113773   7.579   7.804   6.544  0.1253 -0.1814 -0.2153
 1025YOPC   GL213774   7.871   7.962   6.485 -0.1092 -0.2748  0.1424
 1025YOPC   C1A13775   7.708   7.738   6.901  0.0995  0.1555 -0.1255
 1025YOPC   D2A13776   8.113   7.877   7.128 -0.1210 -0.2041 -0.1150
 1025YOPC   C3A13777   8.370   7.598   7.356  0.1769  0.1312 -0.2529
 1025YOPC   C4A13778   8.767   7.705   7.615 -0.2062  0.1769 -0.0827
 1025YOPC   C1B13779   8.221   8.114   6.687 -0.0897  0.0067  0.1638
 1025YOPC   C2B13780   8.353   8.399   7.165 -0.0491 -0.3435  0.0315
 1025YOPC   D3B13781   8.629   8.474   7.439  0.0905 -0.0315  0.3017
 1025YOPC   C4B13782   8.904   8.327   7.766 -0.2645  0.0097  0.1994
 1026YOPC   NC313783  12.538   5.419   5.657  0.1298 -0.0284  0.4502
 1026YOPC   PO413784  12.394   5.234   5.971  0.0530  0.3648 -0.0527
 1026YOPC   GL113785  12.368   5.371   6.447 -0.0211  0.0657 -0.0393
 1026YOPC   GL213786  12.309   5.739   6.403  0.1986  0.1001  0.0199
 1026YOPC   C1A13787  12.404   5.273   6.865 -0.0367  0.0406 -0.2137
 1026YOPC   D2A13788  12.545   5.229   7.246 -0.1170  0.0374  0.1927
 1026YOPC   C3A13789  12.304   5.119   7.434 -0.0952 -0.0237 -0.0231
 1026YOPC   C4A13790  12.109   5.161   7.616  0.2506  0.0383 -0.2797
 1026YOPC   C1B13791  12.084   5.695   6.679  0.1231  0.0776  0.2995
 1026YOPC   C2B13792  11.994   5.421   7.132 -0.2135  0.0128  0.1070
 1026YOPC   D3B13793  11.733   5.477   7.541  0.4228  0.1141  0.0754
 1026YOPC   C4B13794  11.674   5.513   8.023 -0.0143  0.2367 -0.2607
 1027YOPC   NC313795   1.883  16.118   5.644 -0.2476  0.0645  0.0061
 1027YOPC   PO413796   2.229  16.355   5.639  0.0163 -0.1588  0.2753
 1027YOPC   GL113797   1.833  16.536   5.908 -0.0342  0.2373  0.1533
 1027YOPC   GL213798   1.589  16.268   6.073 -0.1789 -0.2804  0.1394
 1027YOPC   C1A13799   1.811  16.553   6.414 -0.1405  0.0615  0.1336
 1027YOPC   D2A13800   1.627  16.661   6.653 -0.0949  0.5165 -0.1379
 1027YOPC   C3A13801   1.772  16.678   7.088 -0.1613 -0.2255  0.0883
 1027YOPC   C4A13802   1.760  16.576   7.614  0.0963 -0.1200 -0.0935
 1027YOPC   C1B13803   1.746  16.027   6.421 -0.1268 -0.1512  0.0830
 1027YOPC   C2B13804   1.857  16.214   6.860 -0.0878 -0.0641 -0.3002
 1027YOPC   D3B13805   1.737  16.072   7.155 -0.1304 -0.0279 -0.1824
 1027YOPC   C4B13806   1.907  16.063   7.632 -0.2333  0.2484  0.2100
 1028YOPC   NC313807   7.439  11.412   5.542 -0.1497  0.0101  0.0628
 1028YOPC   PO413808   7.789  11.428   5.729 -0.1254 -0.0651  0.0270
 1028YOPC   GL113809   7.802  11.610   6.092 -0.3260  0.2219 -0.1771
 1028YOPC   GL213810   7.912  11.934   6.087 -0.2796  0.0679  0.0804
 1028YOPC   C1A13811   7.823  11.426   6.502  0.0021  0.2867  0.1816
 1028YOPC   D2A13812   8.171  11.517   6.913 -0.1120 -0.2118  0.1470
 1028YOPC   C3A13813   8.053  11.684   7.365 -0.2248 -0.3054 -0.2274
 1028YOPC   C4A13814   8.201  11.490   7.830 -0.1811 -0.0571  0.0597
 1028YOPC   C1B13815   7.958  12.384   6.277 -0.0315  0.1078  0.1031
 1028YOPC   C2B13816   7.976  12.617   6.648  0.2819 -0.1073  0.5003
 1028YOPC   D3B13817   7.849  12.355   7.058  0.0409  0.1584 -0.2067
 1028YOPC   C4B13818   7.503  12.389   7.281  0.2270 -0.1227 -0.0875
 1029YOPC   NC313819   5.826   0.280   5.370 -0.0013  0.2655 -0.0171
 1029YOPC   PO413820   6.050   0.086   5.737  0.2670  0.3379 -0.1434
 1029YOPC   GL113821   6.158  -0.146   5.951  0.1380 -0.2944  0.0995
 1029YOPC   GL213822   5.894  -0.279   6.096 -0.2073  0.5360 -0.4429
 1029YOPC   C1A13823   6.336  -0.389   6.320  0.0119  0.1796  0.0196
 1029YOPC   D2A13824   6.575  -0.334   6.619 -0.0655  0.2037  0.0333
 1029YOPC   C3A13825   6.633  -0.523   7.052 -0.0179  0.1215  0.1642
 1029YOPC   C4A13826   6.678  -0.519   7.571  0.0377  0.1328  0.3353
 1029YOPC   C1B13827   5.850  -0.369   6.479 -0.2055  0.1564  0.1097
 1029YOPC   C2B13828   5.771  -0.629   6.885  0.0731  0.1003 -0.0009
 1029YOPC   D3B13829   5.671  -0.414   7.262 -0.1125 -0.0286  0.3697
 1029YOPC   C4B13830   5.765  -0.655   7.698 -0.3715 -0.0417 -0.1647
 1030YOPC   NC313831  16.696   7.326   6.347 -0.0183 -0.1817  0.2021
 1030YOPC   PO413832  16.315   7.587   6.226  0.0677  0.2392  0.0719
 1030YOPC   GL113833  16.577   7.591   6.747  0.0792  0.1435 -0.2650
 1030YOPC   GL213834  16.899   7.455   6.795  0.1455  0.0674 -0.1676
 1030YOPC   C1A13835  16.496   7.508   7.128 -0.1301 -0.2697 -0.1448
 1030YOPC   D2A13836  16.611   7.516   7.640 -0.0561 -0.1282  0.0548
 1030YOPC   C3A13837  16.440   7.692   8.051 -0.1589  0.2397 -0.1274
 1030YOPC   C4A13838  16.331   7.583   8.407 -0.2154  0.0425 -0.2524
 1030YOPC   C1B13839  16.989   7.417   7.318 -0.3415  0.0982 -0.0276
 1030YOPC   C2B13840  17.147   7.532   7.690 -0.2219  0.2134 -0.0165
 1030YOPC   D3B13841  16.914   7.624   8.027 -0.2589  0.2081 -0.0182
 1030YOPC   C4B13842  16.838   7.342   8.347  0.0325 -0.0489 -0.4375
 1031YOPC   NC313843   1.209   9.388   5.783 -0.1010  0.2012 -0.1781
 1031YOPC   PO413844   0.969   9.817   5.895  0.0392  0.2776 -0.2568
 1031YOPC   GL113845   0.964  10.106   6.232  0.0211 -0.0738 -0.1483
 1031YOPC   GL213846   0.668  10.215   6.186 -0.0689 -0.1953 -0.0968
 1031YOPC   C1A13847   1.204  10.443   6.475 -0.4009 -0.1861 -0.2803
 1031YOPC   D2A13848   1.209  10.338   6.999 -0.0684 -0.1300  0.2265
 1031YOPC   C3A13849   1.414  10.639   7.380  0.0474  0.0820  0.0781
 1031YOPC   C4A13850   1.277  10.695   7.831 -0.2236  0.3613  0.2249
 1031YOPC   C1B13851   0.368  10.240   6.436 -0.1175  0.1137  0.1282
 1031YOPC   C2B13852   0.425  10.246   6.834  0.2101  0.0668  0.1555
 1031YOPC   D3B13853   0.739  10.476   6.826  0.1379 -0.0093 -0.1360
 1031YOPC   C4B13854   0.688  10.623   7.232  0.0003 -0.0078  0.0433
 1032YOPC   NC313855  15.690   6.769   6.101  0.0272  0.2062  0.1238
 1032YOPC   PO413856  15.639   6.481   6.292  0.0299  0.0270 -0.1775
 1032YOPC   GL113857  15.545   6.792   6.585 -0.0060  0.1909  0.1507
 1032YOPC   GL213858  15.821   7.026   6.643  0.0570 -0.2560 -0.2277
 1032YOPC   C1A13859  15.380   6.855   7.058  0.1925 -0.3912  0.1290
 1032YOPC   D2A13860  15.314   6.704   7.425 -0.2448 -0.2428 -0.0415
 1032YOPC   C3A13861  15.402   6.713   7.845  0.0489 -0.1973  0.1276
 1032YOPC   C4A13862  15.323   7.189   8.074 -0.3946 -0.0529  0.2619
 1032YOPC   C1B13863  15.769   7.145   6.969 -0.0574  0.1618 -0.2190
 1032YOPC   C2B13864  15.597   7.160   7.376 -0.1969  0.0367  0.1547
 1032YOPC   D3B13865  15.723   7.129   7.738 -0.0102 -0.4289 -0.0345
 1032YOPC   C4B13866  15.900   7.052   8.102  0.0128  0.1342  0.1564
 1033YOPC   NC313867   6.353   8.451   5.994  0.1767 -0.1589  0.0071
 1033YOPC   PO413868   6.716   8.202   6.103 -0.1903  0.0895  0.2912
 1033YOPC   GL113869   6.747   8.362   6.496 -0.3870  0.1998  0.0926
 1033YOPC   GL213870   6.648   8.711   6.503 -0.2825  0.0386  0.1264
 1033YOPC   C1A13871   6.825   8.211   6.903 -0.2606 -0.1848  0.0009
 1033YOPC   D2A13872   7.316   8.018   6.929 -0.1444 -0.1281 -0.3983
 1033YOPC   C3A13873   7.499   7.977   7.294 -0.3267  0.1169  0.2255
 1033YOPC   C4A13874   7.842   7.785   7.523 -0.1552  0.0671  0.0548
 1033YOPC   C1B13875   6.358   8.632   6.814  0.3810 -0.2830  0.1702
 1033YOPC   C2B13876   6.126   8.940   7.123  0.1588 -0.1251 -0.0191
 1033YOPC   D3B13877   6.321   9.336   7.194  0.2793  0.0323  0.1775
 1033YOPC   C4B13878   6.454   9.479   7.644  0.0151  0.1648  0.0071
 1034YOPC   NC313879   6.037  16.935   5.045  0.1030 -0.1404  0.0256
 1034YOPC   PO413880   6.115  17.341   5.329  0.4235 -0.1138 -0.0926
 1034YOPC   GL113881   6.183  17.287   5.694  0.1095  0.1858 -0.2877
 1034YOPC   GL213882   5.998  17.082   5.945 -0.1128 -0.1618  0.0009
 1034YOPC   C1A13883   6.447  17.261   5.941  0.0414  0.2862 -0.0066
 1034YOPC   D2A13884   6.652  17.168   6.384  0.1852  0.0777 -0.1471
 1034YOPC   C3A13885   6.462  16.984   6.610  0.1149 -0.1414  0.2532
 1034YOPC   C4A13886   6.070  16.670   6.611  0.2575  0.0680  0.1341
 1034YOPC   C1B13887   6.293  16.810   6.148 -0.1398 -0.1171  0.2696
 1034YOPC   C2B13888   6.347  16.360   6.310 -0.0191 -0.1201 -0.5563
 1034YOPC   D3B13889   6.651  16.452   6.616  0.0169  0.1812 -0.0637
 1034YOPC   C4B13890   6.812  16.550   6.980  0.1723 -0.2095 -0.0086
 1035YOPC   NC313891  14.972  11.356   5.368  0.0100 -0.0209 -0.1032
 1035YOPC   PO413892  15.262  11.431   5.701 -0.0921 -0.2371 -0.1162
 1035YOPC   GL113893  15.372  11.665   6.067 -0.3764  0.1300 -0.3403
 1035YOPC   GL213894  15.414  11.544   6.342  0.3926  0.0784  0.0052
 1035YOPC   C1A13895  15.695  11.946   6.272  0.3739 -0.0749  0.4597
 1035YOPC   D2A13896  15.836  12.284   6.628  0.3651  0.3682  0.2572
 1035YOPC   C3A13897  16.183  12.271   6.832 -0.2613  0.3112  0.1323
 1035YOPC   C4A13898  16.455  12.244   7.251 -0.1628 -0.0689  0.1212
 1035YOPC   C1B13899  15.457  11.467   6.803 -0.0715 -0.0464  0.2115
 1035YOPC   C2B13900  15.767  11.532   7.255  0.5570 -0.1826  0.1635
 1035YOPC   D3B13901  15.896  11.407   7.596 -0.2111 -0.2769  0.1226
 1035YOPC   C4B13902  16.166  11.232   7.894  0.1685  0.0512 -0.3298
 1036YOPC   NC313903  12.126  15.132   5.551  0.0817  0.0744  0.1172
 1036YOPC   PO413904  11.846  14.996   5.691 -0.2179 -0.3315  0.1265
 1036YOPC   GL113905  11.508  15.019   6.035  0.0463  0.1677  0.0190
 1036YOPC   GL213906  11.170  15.185   5.997 -0.2070  0.2009 -0.2774
 1036YOPC   C1A13907  11.400  15.092   6.506  0.0252 -0.6305  0.2102
 1036YOPC   D2A13908  11.557  14.752   6.663  0.0651  0.2170 -0.1587
 1036YOPC   C3A13909  11.296  14.710   7.000 -0.4433 -0.0669  0.0218
 1036YOPC   C4A13910  10.902  14.823   7.181 -0.1734 -0.0014 -0.1349
 1036YOPC   C1B13911  10.960  15.016   6.281 -0.0636 -0.1518 -0.1073
 1036YOPC   C2B13912  10.911  14.716   6.614  0.0206 -0.0731 -0.2991
 1036YOPC   D3B13913  10.501  14.606   6.711 -0.3814  0.0213  0.0843
 1036YOPC   C4B13914  10.395  14.486   7.060 -0.1520  0.0387 -0.1658
 1037YOPC   NC313915   7.984  12.835   5.135  0.2350  0.2978  0.0729
 1037YOPC   PO413916   8.013  12.876   5.517 -0.0231 -0.0745 -0.1017
 1037YOPC   GL113917   7.954  12.799   5.939  0.1425 -0.1691  0.2351
 1037YOPC   GL213918   8.293  12.775   5.991 -0.1167  0.1390 -0.3461
 1037YOPC   C1A13919   8.065  13.078   6.424  0.2512  0.2831  0.1307
 1037YOPC   D2A13920   8.037  12.999   6.936  0.3621  0.1622  0.0761
 1037YOPC   C3A13921   7.702  12.818   7.138  0.0235 -0.1664 -0.0120
 1037YOPC   C4A13922   7.806  12.674   7.563  0.1381  0.3864  0.1232
 1037YOPC   C1B13923   8.411  12.755   6.419  0.1613  0.2070  0.0261
 1037YOPC   C2B13924   8.467  12.678   6.902 -0.2182  0.0052  0.1392
 1037YOPC   D3B13925   8.274  12.321   7.324 -0.1934 -0.3062  0.3280
 1037YOPC   C4B13926   7.886  12.126   7.470 -0.1485  0.0120  0.2055
 1038YOPC   NC313927   6.120  10.687   6.262  0.0599 -0.0738  0.2581
 1038YOPC   PO413928   6.553  10.766   6.239  0.0142 -0.0894 -0.3885
 1038YOPC   GL113929   6.749  10.741   6.511  0.1870 -0.1282  0.0423
 1038YOPC   GL213930   7.000  10.627   6.513  0.1575  0.2242  0.1733
 1038YOPC   C1A13931   6.810  11.128   6.792  0.0232  0.0793  0.1835
 1038YOPC   D2A13932   6.560  11.473   6.720  0.0818  0.0601  0.1819
 1038YOPC   C3A13933   6.573  11.846   6.923 -0.0902 -0.0938 -0.1455
 1038YOPC   C4A13934   6.492  12.055   7.400  0.1376 -0.0976  0.1380
 1038YOPC   C1B13935   7.190  10.844   6.878  0.0295  0.1532  0.0789
 1038YOPC   C2B13936   7.426  10.858   7.337  0.0672 -0.4037  0.0196
 1038YOPC   D3B13937   7.651  10.470   7.531 -0.1506 -0.0228 -0.0534
 1038YOPC   C4B13938   7.549   9.966   7.652 -0.0405 -0.0457  0.0661
 1039YOPC   NC313939   9.438  11.868   4.950  0.0074  0.0802  0.0062
 1039YOPC   PO413940   9.751  11.679   5.190  0.0670 -0.0987 -0.1724
 1039YOPC   GL113941   9.718  11.815   5.652 -0.0142 -0.0409  0.0413
 1039YOPC   GL213942   9.813  12.145   5.699 -0.0759 -0.0139 -0.1452
 1039YOPC   C1A13943   9.808  11.779   6.134 -0.4324  0.3398  0.0611
 1039YOPC   D2A13944   9.809  12.253   6.467 -0.0952  0.1281  0.3934
 1039YOPC   C3A13945   9.904  12.262   7.009  0.0304 -0.3355  0.0862
 1039YOPC   C4A13946   9.566  12.109   7.322 -0.1538 -0.2137 -0.1557
 1039YOPC   C1B13947   9.838  12.502   6.069 -0.1067 -0.0608  0.1358
 1039YOPC   C2B13948  10.189  12.602   6.330 -0.0384 -0.0355 -0.1188
 1039YOPC   D3B13949  10.084  12.642   6.719 -0.2086 -0.0264 -0.0726
 1039YOPC   C4B13950  10.333  12.719   7.084 -0.1157  0.1659  0.1469
 1040YOPC   NC313951  17.113  11.975   5.702 -0.3209 -0.0973 -0.0135
 1040YOPC   PO413952  17.119  11.449   5.623  0.1805  0.2102 -0.1036
 1040YOPC   GL113953  17.072  11.554   6.056 -0.1535 -0.2343  0.1731
 1040YOPC   GL213954  17.342  11.567   6.124  0.1154  0.0418  0.3719
 1040YOPC   C1A13955  16.911  11.431   6.372  0.3207 -0.2905 -0.5048
 1040YOPC   D2A13956  16.801  11.472   6.778  0.1008  0.3535 -0.0130
 1040YOPC   C3A13957  16.566  11.418   7.188 -0.1263  0.2060 -0.0294
 1040YOPC   C4A13958  16.201  11.292   7.242  0.1324 -0.0121 -0.1296
 1040YOPC   C1B13959  17.668  11.699   6.382  0.1219 -0.1134  0.3023
 1040YOPC   C2B13960  17.690  12.117   6.489 -0.6154 -0.0527  0.1924
 1040YOPC   D3B13961  17.981  12.146   6.879  0.0166  0.1724  0.1276
 1040YOPC   C4B13962  18.016  11.948   7.279  0.1664 -0.1075 -0.1733
 1041YOPC   NC313963   3.444   5.000   6.045  0.1166 -0.0909  0.0959
 1041YOPC   PO413964   3.816   4.967   6.030  0.0202 -0.0626  0.1717
 1041YOPC   GL113965   3.835   4.942   6.446  0.0715  0.0431 -0.1340
 1041YOPC   GL213966   4.137   5.115   6.682 -0.2065 -0.0561  0.0049
 1041YOPC   C1A13967   3.668   4.716   6.747  0.3422 -0.2203 -0.2270
 1041YOPC   D2A13968   3.823   4.472   7.066  0.2536 -0.0985 -0.0886
 1041YOPC   C3A13969   3.941   4.351   7.452 -0.1547  0.0539  0.0913
 1041YOPC   C4A13970   3.690   4.353   7.736  0.1950  0.0436  0.1774
 1041YOPC   C1B13971   3.958   5.020   7.101 -0.0828  0.0098 -0.0731
 1041YOPC   C2B13972   3.892   4.856   7.552  0.0081 -0.1428  0.0462
 1041YOPC   D3B13973   3.725   5.078   7.899 -0.2342  0.1339 -0.1848
 1041YOPC   C4B13974   3.468   5.389   8.132  0.2431 -0.3290  0.1568
 1042YOPC   NC313975   8.145  10.125   5.678  0.1768  0.1761 -0.0777
 1042YOPC   PO413976   8.583  10.074   5.449 -0.2426 -0.0085 -0.3328
 1042YOPC   GL113977   8.651   9.964   5.888 -0.3591 -0.0748 -0.0597
 1042YOPC   GL213978   8.861   9.721   5.877 -0.0667 -0.0959  0.1852
 1042YOPC   C1A13979   8.957  10.176   6.125 -0.2399  0.2351  0.5083
 1042YOPC   D2A13980   9.108  10.376   6.411  0.2646 -0.0980  0.0023
 1042YOPC   C3A13981   9.486  10.462   6.556 -0.0277  0.0312 -0.2170
 1042YOPC   C4A13982   9.659  10.712   6.815  0.2968  0.1814  0.0415
 1042YOPC   C1B13983   9.078   9.705   6.265  0.0069 -0.1611 -0.3014
 1042YOPC   C2B13984   9.174   9.586   6.693  0.0974  0.1319  0.3842
 1042YOPC   D3B13985   9.117   9.846   7.031 -0.0359 -0.1238 -0.0590
 1042YOPC   C4B13986   9.175  10.064   7.388 -0.0857 -0.0017  0.1151
 1043YOPC   NC313987   4.689   7.876   5.926 -0.0162 -0.2941 -0.2026
 1043YOPC   PO413988   5.171   7.958   5.810  0.0496  0.0309  0.1212
 1043YOPC   GL113989   4.941   8.077   6.392 -0.0037 -0.0077  0.3149
 1043YOPC   GL213990   4.832   8.353   6.322  0.0646 -0.2836  0.4464
 1043YOPC   C1A13991   5.025   8.045   6.774  0.1050 -0.4750  0.2366
 1043YOPC   D2A13992   5.108   8.039   7.234  0.0388 -0.4247 -0.0446
 1043YOPC   C3A13993   4.896   8.121   7.629 -0.2203 -0.1764  0.1454
 1043YOPC   C4A13994   4.983   8.000   8.028 -0.1209  0.0465  0.2772
 1043YOPC   C1B13995   4.876   8.555   6.761  0.0590 -0.1389 -0.0571
 1043YOPC   C2B13996   4.885   8.521   7.248 -0.0130 -0.0308 -0.0593
 1043YOPC   D3B13997   4.867   8.772   7.658 -0.0219  0.0713  0.0972
 1043YOPC   C4B13998   4.817   8.813   8.077 -0.1404  0.5277  0.3898
 1044YOPC   NC313999  11.264   4.701   5.376  0.1071  0.1062 -0.3870
 1044YOPC   PO414000  11.479   4.822   5.739 -0.1532 -0.0092  0.1285
 1044YOPC   GL114001  11.477   4.615   6.112  0.1386  0.0586  0.0194
 1044YOPC   GL214002  11.188   4.441   6.266 -0.2154 -0.5237 -0.2654
 1044YOPC   C1A14003  11.750   4.577   6.487 -0.1564  0.1003  0.2450
 1044YOPC   D2A14004  11.745   4.378   6.894  0.3749 -0.0834  0.0156
 1044YOPC   C3A14005  11.604   4.376   7.308  0.0932 -0.2982  0.0373
 1044YOPC   C4A14006  11.316   4.516   7.556  0.0843 -0.3003 -0.2583
 1044YOPC   C1B14007  11.221   4.506   6.670  0.0048 -0.0140 -0.0864
 1044YOPC   C2B14008  11.341   4.741   7.026 -0.0802 -0.0329  0.3465
 1044YOPC   D3B14009  11.007   4.969   7.184 -0.0506 -0.0575 -0.0784
 1044YOPC   C4B14010  10.649   5.252   7.183 -0.0738  0.2071 -0.0749
 1045YOPC   NC314011   8.936   5.346   5.856  0.1016  0.0539 -0.0134
 1045YOPC   PO414012   8.795   5.760   6.009  0.1242 -0.2084 -0.3246
 1045YOPC   GL114013   8.596   5.822   6.528  0.2059  0.0070  0.1201
 1045YOPC   GL214014   8.233   5.879   6.588  0.2744  0.3699 -0.1024
 1045YOPC   C1A14015   8.569   5.752   6.991 -0.2609 -0.1920  0.1584
 1045YOPC   D2A14016   8.546   5.801   7.425  0.2025 -0.0193  0.0274
 1045YOPC   C3A14017   8.455   6.050   7.809  0.1814 -0.1429  0.0018
 1045YOPC   C4A14018   8.574   6.145   8.184  0.2292 -0.2085 -0.0316
 1045YOPC   C1B14019   8.205   6.079   7.016  0.0776 -0.3745 -0.4054
 1045YOPC   C2B14020   8.248   6.264   7.431  0.0342  0.2053  0.1522
 1045YOPC   D3B14021   8.370   6.616   7.528 -0.1084 -0.1565 -0.1671
 1045YOPC   C4B14022   8.390   7.080   7.357 -0.6986  0.1741 -0.1754
 1046YOPC   NC314023  17.050   3.911   6.149 -0.2970  0.2512  0.0532
 1046YOPC   PO414024  16.715   3.653   6.305 -0.0489 -0.2068  0.0982
 1046YOPC   GL114025  16.479   3.847   6.625  0.0964  0.0725  0.1457
 1046YOPC   GL214026  16.321   4.115   6.665 -0.0171 -0.0184  0.1168
 1046YOPC   C1A14027  16.572   3.837   7.009 -0.0389  0.2480  0.2083
 1046YOPC   D2A14028  16.540   4.017   7.390  0.0342 -0.0286 -0.0176
 1046YOPC   C3A14029  16.716   4.473   7.509 -0.2087  0.0361  0.1348
 1046YOPC   C4A14030  17.068   4.564   7.515  0.1672 -0.0396  0.2063
 1046YOPC   C1B14031  16.681   4.291   6.925  0.1373 -0.0993 -0.2143
 1046YOPC   C2B14032  16.593   4.731   7.110  0.1797 -0.3250  0.1808
 1046YOPC   D3B14033  16.471   4.914   7.451  0.1224  0.1267  0.0418
 1046YOPC   C4B14034  16.523   5.306   7.654 -0.2683 -0.1868 -0.0455
 1047YOPC   NC314035  11.389  12.531   4.917  0.0603 -0.0900  0.1907
 1047YOPC   PO414036  11.645  12.257   5.044 -0.1534  0.1099 -0.0252
 1047YOPC   GL114037  11.514  12.399   5.464 -0.0232  0.2457 -0.1778
 1047YOPC   GL214038  11.190  12.441   5.530  0.0680  0.0692  0.3091
 1047YOPC   C1A14039  11.493  12.344   5.911  0.3105 -0.2664  0.1039
 1047YOPC   D2A14040  11.591  12.630   6.330  0.0662 -0.0048 -0.0550
 1047YOPC   C3A14041  11.514  12.331   6.620  0.0074 -0.2222  0.1103
 1047YOPC   C4A14042  11.571  12.173   7.022  0.1774  0.1341 -0.4248
 1047YOPC   C1B14043  11.000  12.326   5.843 -0.1114  0.2458  0.3104
 1047YOPC   C2B14044  11.119  12.295   6.222 -0.2261  0.0893 -0.2384
 1047YOPC   D3B14045  11.263  11.981   6.415 -0.0374  0.2805  0.1034
 1047YOPC   C4B14046  11.486  11.599   6.496 -0.0288  0.1426 -0.0662
 1048YOPC   NC314047  17.151  10.725   5.834 -0.4595  0.1552 -0.2030
 1048YOPC   PO414048  17.262  10.333   5.827  0.0352  0.1924  0.1357
 1048YOPC   GL114049  17.227  10.425   6.313  0.1850 -0.1285 -0.1786
 1048YOPC   GL214050  17.490  10.636   6.571  0.0911  0.2326 -0.2728
 1048YOPC   C1A14051  17.138  10.272   6.714  0.4081 -0.1068 -0.2314
 1048YOPC   D2A14052  17.183  10.399   7.072  0.1212  0.2992  0.1373
 1048YOPC   C3A14053  17.093  10.483   7.515 -0.2007 -0.0286  0.1815
 1048YOPC   C4A14054  17.439  10.503   7.802 -0.0832  0.1293 -0.0550
 1048YOPC   C1B14055  17.606  10.760   6.936  0.0693  0.0748 -0.0303
 1048YOPC   C2B14056  17.524  10.748   7.347  0.0239  0.1101  0.0315
 1048YOPC   D3B14057  17.732  10.908   7.647 -0.1240 -0.1156  0.1137
 1048YOPC   C4B14058  17.525  10.920   8.040 -0.2610  0.2930 -0.1860
 1049YOPC   NC314059  11.006   0.953   6.009 -0.1103 -0.0945 -0.1091
 1049YOPC   PO414060  11.327   0.777   5.858  0.1562 -0.1391 -0.0719
 1049YOPC   GL114061  11.014   0.504   6.132  0.1455 -0.1727  0.2146
 1049YOPC   GL214062  10.778   0.347   6.023  0.0685 -0.3596 -0.0870
 1049YOPC   C1A14063  10.979   0.218   6.548  0.0690  0.1588  0.1347
 1049YOPC   D2A14064  11.273   0.040   6.872 -0.3063 -0.1116 -0.1032
 1049YOPC   C3A14065  11.286   0.089   7.285  0.1043 -0.1143  0.5313
 1049YOPC   C4A14066  11.511   0.090   7.565 -0.3299 -0.1562 -0.1005
 1049YOPC   C1B14067  10.690   0.002   6.285  0.4415 -0.1864 -0.2164
 1049YOPC   C2B14068  10.560  -0.079   6.718 -0.1261  0.1138  0.0170
 1049YOPC   D3B14069  10.783   0.075   7.091  0.4457 -0.0412 -0.0984
 1049YOPC   C4B14070  10.838  -0.146   7.500  0.1905 -0.4304 -0.1245
 1050YOPC   NC314071   9.956   0.976   5.630 -0.0505  0.0691  0.1490
 1050YOPC   PO414072  10.211   1.293   5.752  0.0833  0.3685 -0.0272
 1050YOPC   GL114073  10.354   1.325   6.187 -0.0777 -0.3677  0.3071
 1050YOPC   GL214074  10.058   1.516   6.195 -0.3663  0.3293  0.1315
 1050YOPC   C1A14075  10.435   1.431   6.627  0.3046  0.1500 -0.2780
 1050YOPC   D2A14076  10.466   1.337   7.150  0.0585 -0.2325  0.2643
 1050YOPC   C3A14077  10.770   1.116   7.479 -0.0875 -0.2019  0.0864
 1050YOPC   C4A14078  10.690   0.700   7.860 -0.1233 -0.0494  0.0106
 1050YOPC   C1B14079   9.939   1.413   6.603 -0.3577 -0.1673 -0.6822
 1050YOPC   C2B14080  10.000   1.231   6.952  0.2031 -0.1372 -0.0217
 1050YOPC   D3B14081  10.146   1.069   7.365  0.0260 -0.0786  0.0507
 1050YOPC   C4B14082  10.298   1.073   7.752  0.2274 -0.4066  0.0206
 1051YOPC   NC314083  18.206   2.661   6.022 -0.2257 -0.0161 -0.1491
 1051YOPC   PO414084  18.522   2.363   5.945  0.0447  0.2813  0.1992
 1051YOPC   GL114085  18.466   2.382   6.421  0.1755  0.2569 -0.2029
 1051YOPC   GL214086  18.563   2.072   6.748 -0.3116 -0.1050  0.0964
 1051YOPC   C1A14087  18.273   2.478   6.780  0.1112 -0.0568 -0.0009
 1051YOPC   D2A14088  18.124   2.467   7.289  0.1467  0.0593  0.0366
 1051YOPC   C3A14089  18.466   2.509   7.628 -0.0377 -0.2283  0.1069
 1051YOPC   C4A14090  18.878   2.551   7.676 -0.1321 -0.1834 -0.1520
 1051YOPC   C1B14091  18.095   2.021   6.897  0.0367 -0.1217 -0.0175
 1051YOPC   C2B14092  17.735   2.115   7.177  0.3116 -0.1045  0.2528
 1051YOPC   D3B14093  17.663   1.907   7.505  0.1270  0.2370 -0.1994
 1051YOPC   C4B14094  17.470   1.482   7.744 -0.3068 -0.1049 -0.6474
 1052YOPC   NC314095   0.765   6.676   5.806  0.0564  0.0294  0.0218
 1052YOPC   PO414096   0.383   6.690   5.956  0.0178  0.1065  0.0850
 1052YOPC   GL114097   0.403   6.797   6.387 -0.0040  0.1070  0.0438
 1052YOPC   GL214098   0.205   7.034   6.338 -0.0155  0.1150 -0.1505
 1052YOPC   C1A14099   0.515   6.776   6.895 -0.2612 -0.0353  0.2267
 1052YOPC   D2A14100   0.755   6.761   7.280  0.3250  0.1402  0.2324
 1052YOPC   C3A14101   0.816   7.051   7.588 -0.1754 -0.0176 -0.0253
 1052YOPC   C4A14102   1.055   7.134   7.934  0.1338 -0.3274  0.0888
 1052YOPC   C1B14103   0.049   7.053   6.820  0.0387 -0.2513 -0.1355
 1052YOPC   C2B14104  -0.282   7.262   7.093 -0.0363 -0.0484  0.2516
 1052YOPC   D3B14105  -0.071   7.599   7.524 -0.1696  0.2793 -0.0327
 1052YOPC   C4B14106   0.193   7.793   7.840  0.1133  0.0629 -0.1820
 1053YOPC   NC314107   3.661  13.264   5.866  0.0227 -0.0001  0.0768
 1053YOPC   PO414108   3.513  13.578   5.866  0.0727 -0.2288  0.1894
 1053YOPC   GL114109   3.494  13.336   6.310 -0.0159  0.0774  0.0619
 1053YOPC   GL214110   3.844  13.098   6.366  0.0113 -0.2180 -0.1838
 1053YOPC   C1A14111   3.445  13.178   6.627 -0.1637  0.1912 -0.0340
 1053YOPC   D2A14112   3.482  13.110   7.134  0.3493  0.0097  0.0894
 1053YOPC   C3A14113   3.454  13.343   7.535 -0.0659  0.0681  0.1573
 1053YOPC   C4A14114   3.119  13.530   7.802  0.1814  0.0525  0.1031
 1053YOPC   C1B14115   4.008  12.986   6.798 -0.2896 -0.3756 -0.1827
 1053YOPC   C2B14116   4.322  13.020   7.211  0.3322 -0.1379  0.1077
 1053YOPC   D3B14117   3.888  13.093   7.391 -0.1309  0.0461  0.2899
 1053YOPC   C4B14118   3.612  12.930   7.701  0.0097  0.0969 -0.4418
 1054YOPC   NC314119  13.976   7.666   5.691  0.2507  0.1395  0.0273
 1054YOPC   PO414120  14.376   7.936   5.894 -0.1647  0.1464 -0.0347
 1054YOPC   GL114121  14.062   7.932   6.145 -0.1122 -0.3472  0.1976
 1054YOPC   GL214122  13.808   8.018   6.138  0.2617 -0.0939 -0.1509
 1054YOPC   C1A14123  13.988   7.799   6.579  0.1046  0.5105  0.3068
 1054YOPC   D2A14124  14.259   7.808   6.973 -0.2123 -0.1481  0.1990
 1054YOPC   C3A14125  14.083   7.853   7.349  0.1307  0.3665 -0.2465
 1054YOPC   C4A14126  14.036   7.906   7.810 -0.0852 -0.1591 -0.2347
 1054YOPC   C1B14127  13.578   8.161   6.603 -0.4574  0.4291  0.2250
 1054YOPC   C2B14128  13.347   8.390   6.905 -0.3032 -0.0031  0.0564
 1054YOPC   D3B14129  13.477   8.451   7.418  0.0752 -0.0912 -0.1206
 1054YOPC   C4B14130  13.296   8.694   7.748 -0.1109 -0.0464 -0.0746
 1055YOPC   NC314131  12.855   8.149   5.415 -0.3318 -0.1938 -0.3257
 1055YOPC   PO414132  13.040   7.897   5.721 -0.2277  0.5262  0.0471
 1055YOPC   GL114133  13.299   8.051   6.129  0.2727  0.2854  0.1474
 1055YOPC   GL214134  13.468   8.409   6.083  0.1412 -0.1303  0.0893
 1055YOPC   C1A14135  13.097   8.166   6.507 -0.0543  0.2829  0.1629
 1055YOPC   D2A14136  12.836   8.115   6.890 -0.2478  0.0981 -0.1661
 1055YOPC   C3A14137  12.676   8.457   7.176 -0.0136 -0.1317 -0.0872
 1055YOPC   C4A14138  12.610   8.673   7.573  0.4287 -0.0160  0.1404
 1055YOPC   C1B14139  13.459   8.638   6.504 -0.1636 -0.0132 -0.0387
 1055YOPC   C2B14140  13.740   8.866   6.779  0.1610 -0.2070 -0.1017
 1055YOPC   D3B14141  13.538   9.092   7.165 -0.0528  0.2591 -0.1291
 1055YOPC   C4B14142  13.278   9.129   7.620 -0.1950  0.0816 -0.1159
 1056YOPC   NC314143  14.983  10.037   5.667 -0.1259 -0.2844  0.0510
 1056YOPC   PO414144  15.135  10.375   5.829 -0.3717  0.0186  0.1112
 1056YOPC   GL114145  14.943  10.633   6.184 -0.0365  0.2669  0.2003
 1056YOPC   GL214146  15.189  10.514   6.341 -0.0800 -0.1384 -0.1134
 1056YOPC   C1A14147  14.587  10.754   6.514  0.2203 -0.0262 -0.1277
 1056YOPC   D2A14148  14.555  10.751   6.892 -0.0808 -0.0864 -0.0784
 1056YOPC   C3A14149  14.427  11.167   6.898  0.0234 -0.0283 -0.0942
 1056YOPC   C4A14150  14.333  11.318   7.285 -0.1269  0.0161  0.1386
 1056YOPC   C1B14151  15.148  10.627   6.782  0.3857 -0.0792 -0.5861
 1056YOPC   C2B14152  14.929  10.619   7.231  0.1546  0.2641  0.3413
 1056YOPC   D3B14153  15.031  10.781   7.601  0.1048 -0.1288  0.5287
 1056YOPC   C4B14154  14.821  10.982   7.976 -0.4388 -0.4019  0.0330
 1057YOPC   NC314155  11.426  10.965   5.476 -0.2542 -0.0534 -0.3718
 1057YOPC   PO414156  11.605  10.522   5.498 -0.0829  0.1067  0.3296
 1057YOPC   GL114157  11.822  10.740   5.762  0.1727  0.1515 -0.0703
 1057YOPC   GL214158  11.648  10.831   5.905  0.0519 -0.0286  0.0074
 1057YOPC   C1A14159  12.000  10.780   6.254  0.1788 -0.2201  0.1334
 1057YOPC   D2A14160  11.891  10.629   6.710 -0.1165  0.1399  0.0668
 1057YOPC   C3A14161  11.546  10.702   6.915  0.2588 -0.0577  0.1412
 1057YOPC   C4A14162  11.344  10.838   7.182  0.2208 -0.0313 -0.2953
 1057YOPC   C1B14163  11.372  10.720   6.279  0.0833  0.0909  0.0099
 1057YOPC   C2B14164  11.064  10.446   6.252  0.0345 -0.1665  0.0585
 1057YOPC   D3B14165  11.068  10.110   6.505 -0.3665  0.1851  0.0420
 1057YOPC   C4B14166  11.046   9.683   6.344 -0.0865  0.1451  0.2045
 1058YOPC   NC314167   2.742  13.292   5.217  0.0458  0.1221 -0.0679
 1058YOPC   PO414168   2.590  12.946   5.539 -0.1086  0.0267  0.0574
 1058YOPC   GL114169   2.504  12.959   6.001 -0.1002 -0.2632 -0.2248
 1058YOPC   GL214170   2.231  12.941   6.085 -0.0254  0.3542 -0.1562
 1058YOPC   C1A14171   2.597  13.030   6.503  0.1730  0.0875  0.1721
 1058YOPC   D2A14172   2.445  12.977   6.911 -0.1448 -0.2925  0.4756
 1058YOPC   C3A14173   2.533  13.055   7.309  0.0047  0.1052 -0.0201
 1058YOPC   C4A14174   2.273  12.892   7.590 -0.1287 -0.0567  0.0185
 1058YOPC   C1B14175   2.082  12.899   6.559  0.1039 -0.0560 -0.1111
 1058YOPC   C2B14176   1.968  13.250   6.938 -0.0503  0.2015 -0.1307
 1058YOPC   D3B14177   1.910  13.063   7.275 -0.0163 -0.1587  0.2590
 1058YOPC   C4B14178   1.606  13.059   7.589  0.1976  0.0671  0.0104
 1059YOPC   NC314179  15.723  14.073   5.113 -0.3545  0.1306 -0.3040
 1059YOPC   PO414180  15.631  14.452   5.352 -0.1325 -0.1397 -0.1041
 1059YOPC   GL114181  15.714  14.679   5.667  0.0512 -0.0201 -0.2101
 1059YOPC   GL214182  15.451  14.689   5.864  0.1611 -0.2770  0.0194
 1059YOPC   C1A14183  15.803  14.387   6.078  0.2633  0.2457 -0.1844
 1059YOPC   D2A14184  15.759  14.434   6.512 -0.2273 -0.0941 -0.2787
 1059YOPC   C3A14185  15.955  14.642   6.928  0.0682  0.2063 -0.1356
 1059YOPC   C4A14186  16.228  15.019   7.082 -0.1456  0.1957  0.2465
 1059YOPC   C1B14187  15.485  14.876   6.258 -0.2476 -0.0229  0.0357
 1059YOPC   C2B14188  15.524  14.873   6.716  0.0191  0.0773  0.3489
 1059YOPC   D3B14189  15.493  14.512   7.017  0.4584  0.0719 -0.3044
 1059YOPC   C4B14190  15.793  14.501   7.408  0.2511  0.1788 -0.1318
 1060YOPC   NC314191  12.443   6.885   5.616  0.0495 -0.0477  0.0117
 1060YOPC   PO414192  12.216   7.051   5.919 -0.0180  0.2628 -0.1895
 1060YOPC   GL114193  12.042   7.302   6.237 -0.1819  0.3307  0.0064
 1060YOPC   GL214194  11.641   7.303   6.192 -0.0835 -0.1317 -0.2550
 1060YOPC   C1A14195  12.143   7.562   6.515 -0.0576  0.1915  0.1175
 1060YOPC   D2A14196  12.100   7.677   6.999  0.2219 -0.0441 -0.3241
 1060YOPC   C3A14197  12.003   7.519   7.403  0.3629 -0.2184  0.1358
 1060YOPC   C4A14198  11.955   7.658   7.840 -0.4186  0.1292 -0.1906
 1060YOPC   C1B14199  11.690   7.212   6.602  0.0269  0.3169 -0.1226
 1060YOPC   C2B14200  11.768   7.246   7.074  0.2488  0.4830  0.2555
 1060YOPC   D3B14201  11.558   7.080   7.287  0.0745  0.0027  0.3122
 1060YOPC   C4B14202  11.408   6.949   7.664  0.3094  0.0854 -0.0490
 1061YOPC   NC314203   3.840  15.707   5.701  0.0122 -0.2588 -0.1778
 1061YOPC   PO414204   3.923  16.003   5.978 -0.2367  0.2389 -0.1602
 1061YOPC   GL114205   3.792  16.311   6.250  0.0131 -0.0822 -0.0669
 1061YOPC   GL214206   3.922  16.678   6.194  0.0117  0.3288  0.3732
 1061YOPC   C1A14207   3.730  16.268   6.554  0.2911  0.1670  0.1108
 1061YOPC   D2A14208   3.548  16.082   6.928  0.1064 -0.4845 -0.1269
 1061YOPC   C3A14209   3.444  15.669   6.818  0.0977  0.1689 -0.0877
 1061YOPC   C4A14210   3.183  15.459   6.645 -0.3451  0.0061  0.1643
 1061YOPC   C1B14211   3.751  16.776   6.554 -0.2063  0.0873 -0.1345
 1061YOPC   C2B14212   3.715  16.584   6.917 -0.1595  0.0921 -0.0210
 1061YOPC   D3B14213   3.649  16.954   7.273  0.1188  0.2768 -0.0096
 1061YOPC   C4B14214   3.673  17.345   7.571  0.3169  0.2501  0.0188
 1062YOPC   NC314215   3.179   3.782   6.154 -0.3922  0.0213  0.0937
 1062YOPC   PO414216   3.542   3.467   6.093 -0.0806  0.1127  0.0233
 1062YOPC   GL114217   3.689   3.619   6.493 -0.1536  0.2297 -0.0825
 1062YOPC   GL214218   4.042   3.517   6.607 -0.3706  0.0586  0.1052
 1062YOPC   C1A14219   3.743   3.891   6.892  0.1694  0.0699 -0.1812
 1062YOPC   D2A14220   3.800   3.962   7.261  0.2514 -0.0575  0.2873
 1062YOPC   C3A14221   3.436   3.908   7.546  0.2145  0.0240  0.4340
 1062YOPC   C4A14222   3.029   3.815   7.548  0.0605 -0.1364 -0.1157
 1062YOPC   C1B14223   4.134   3.626   7.016  0.0193  0.0077 -0.2105
 1062YOPC   C2B14224   4.256   3.897   7.436 -0.1394  0.0339 -0.0567
 1062YOPC   D3B14225   4.048   3.901   7.747  0.2981 -0.2466  0.0589
 1062YOPC   C4B14226   3.682   3.921   7.999  0.0029 -0.2912  0.1033
 1063YOPC   NC314227  13.071   2.265   6.182  0.0652 -0.0714 -0.0764
 1063YOPC   PO414228  13.363   1.928   6.206 -0.2442  0.4130  0.2908
 1063YOPC   GL114229  13.537   1.984   6.648  0.2044 -0.0059  0.0710
 1063YOPC   GL214230  13.770   1.751   6.518 -0.0154 -0.1589 -0.0460
 1063YOPC   C1A14231  13.637   2.198   6.965  0.1696 -0.0866  0.2765
 1063YOPC   D2A14232  13.601   2.209   7.424  0.1078 -0.1549 -0.3054
 1063YOPC   C3A14233  13.637   2.454   7.711  0.0144 -0.0486 -0.0237
 1063YOPC   C4A14234  13.871   2.861   7.760 -0.0546 -0.2119 -0.1651
 1063YOPC   C1B14235  13.905   1.712   7.043  0.2875  0.0579  0.0489
 1063YOPC   C2B14236  14.002   1.897   7.462 -0.1345 -0.4457  0.1031
 1063YOPC   D3B14237  13.879   1.736   7.839 -0.3957  0.0054  0.4625
 1063YOPC   C4B14238  14.057   1.346   8.091 -0.0950  0.0237 -0.2014
 1064YOPC   NC314239  15.455  14.927   5.364 -0.2007 -0.2215 -0.0535
 1064YOPC   PO414240  15.117  14.900   5.521  0.0514 -0.0474  0.2104
 1064YOPC   GL114241  15.047  14.984   5.941  0.1243 -0.2758  0.3501
 1064YOPC   GL214242  14.874  14.616   5.970  0.0243 -0.1963  0.0991
 1064YOPC   C1A14243  14.984  14.922   6.407  0.0765 -0.0344  0.1563
 1064YOPC   D2A14244  14.986  15.149   6.633 -0.1923  0.3097 -0.1599
 1064YOPC   C3A14245  14.775  15.260   7.056  0.2264  0.0381  0.1599
 1064YOPC   C4A14246  14.514  15.634   7.164  0.3116  0.0190 -0.0454
 1064YOPC   C1B14247  14.752  14.382   6.390 -0.0953 -0.0986  0.2261
 1064YOPC   C2B14248  14.479  14.082   6.563 -0.1508  0.0686 -0.0329
 1064YOPC   D3B14249  14.511  14.178   7.056  0.1714  0.0195 -0.2443
 1064YOPC   C4B14250  14.644  14.024   7.463  0.2318  0.1498 -0.0568
 1065YOPC   NC314251  11.622  18.061   4.939 -0.1784  0.1445  0.0283
 1065YOPC   PO414252  11.766  18.003   5.333 -0.1071 -0.1152 -0.0143
 1065YOPC   GL114253  11.938  17.800   5.708 -0.0744 -0.1577  0.2220
 1065YOPC   GL214254  11.761  17.663   5.916  0.0698 -0.1035 -0.3649
 1065YOPC   C1A14255  12.349  17.606   5.770 -0.0291 -0.0421 -0.3697
 1065YOPC   D2A14256  12.659  17.403   6.012  0.5959  0.2346  0.0721
 1065YOPC   C3A14257  12.562  17.189   6.405 -0.1164  0.3101 -0.2346
 1065YOPC   C4A14258  12.557  17.266   6.776  0.1307  0.0432  0.3153
 1065YOPC   C1B14259  11.629  17.377   6.214 -0.0268  0.0489 -0.0979
 1065YOPC   C2B14260  11.504  17.372   6.654  0.1564 -0.0541 -0.1624
 1065YOPC   D3B14261  11.755  17.123   7.089  0.4039  0.1059 -0.0904
 1065YOPC   C4B14262  11.875  16.779   7.343 -0.0046 -0.1367 -0.0628
 1066YOPC   NC314263   4.463  14.804   5.240 -0.1622 -0.0806  0.1131
 1066YOPC   PO414264   4.800  14.683   5.555 -0.1302 -0.1506 -0.2295
 1066YOPC   GL114265   4.633  14.642   5.951  0.4067  0.1183  0.2284
 1066YOPC   GL214266   4.248  14.717   6.103  0.0050 -0.0509 -0.0481
 1066YOPC   C1A14267   4.657  14.450   6.412  0.2241  0.1854  0.0482
 1066YOPC   D2A14268   4.918  14.665   6.816 -0.3513  0.0428 -0.6439
 1066YOPC   C3A14269   5.059  14.339   7.161  0.0194  0.0862 -0.0782
 1066YOPC   C4A14270   4.918  13.900   7.202  0.0515  0.3102 -0.3443
 1066YOPC   C1B14271   4.186  14.585   6.552 -0.1929 -0.0134 -0.2736
 1066YOPC   C2B14272   4.126  14.536   6.977 -0.0622  0.0189  0.2156
 1066YOPC   D3B14273   3.927  14.215   7.230  0.3804  0.0746  0.0243
 1066YOPC   C4B14274   3.708  13.857   7.555  0.0811  0.1534  0.1781
 1067YOPC   NC314275   7.231   7.445   5.787 -0.2560 -0.3984  0.0157
 1067YOPC   PO414276   7.114   7.479   6.247  0.2480 -0.3051  0.3906
 1067YOPC   GL114277   7.054   7.383   6.558 -0.0076  0.3836  0.1254
 1067YOPC   GL214278   6.890   6.969   6.575 -0.0824 -0.2128  0.0902
 1067YOPC   C1A14279   7.113   7.512   7.012 -0.2957  0.0384 -0.1889
 1067YOPC   D2A14280   6.951   7.894   7.272  0.2414  0.1708  0.0447
 1067YOPC   C3A14281   7.130   8.269   7.396 -0.1225  0.0634  0.3391
 1067YOPC   C4A14282   6.916   8.526   7.701  0.1102 -0.0465 -0.2186
 1067YOPC   C1B14283   7.296   7.060   6.784  0.0930  0.0506 -0.1320
 1067YOPC   C2B14284   7.546   7.117   7.095  0.0832  0.1037  0.0491
 1067YOPC   D3B14285   7.400   7.320   7.436 -0.0837  0.1596 -0.1849
 1067YOPC   C4B14286   7.430   7.605   7.705  0.5674  0.2884 -0.0667
 1068YOPC   NC314287  14.776  14.692   5.210  0.0096  0.0887  0.1576
 1068YOPC   PO414288  14.595  14.526   5.478 -0.0637  0.0526 -0.0211
 1068YOPC   GL114289  14.310  14.622   5.790  0.0101 -0.0321 -0.0275
 1068YOPC   GL214290  14.119  14.928   5.989 -0.1923 -0.0325 -0.2216
 1068YOPC   C1A14291  14.284  14.468   6.175  0.1211 -0.1456 -0.1297
 1068YOPC   D2A14292  14.094  14.389   6.628  0.0640  0.0842  0.1810
 1068YOPC   C3A14293  13.782  14.405   6.809 -0.0694  0.1949  0.0698
 1068YOPC   C4A14294  13.430  14.746   6.895 -0.1444 -0.2052 -0.0936
 1068YOPC   C1B14295  13.955  14.998   6.447  0.1923 -0.1185 -0.0476
 1068YOPC   C2B14296  13.892  14.888   6.881  0.0055 -0.0506  0.1460
 1068YOPC   D3B14297  13.601  15.159   7.149 -0.0743  0.0200 -0.0605
 1068YOPC   C4B14298  13.216  15.369   7.129 -0.2514  0.2361 -0.1317
 1069YOPC   NC314299   4.792  11.050   6.063 -0.0660  0.2233 -0.0027
 1069YOPC   PO414300   5.082  11.332   6.051  0.0282  0.0630 -0.0708
 1069YOPC   GL114301   5.126  11.675   6.340 -0.2082  0.0502 -0.1362
 1069YOPC   GL214302   5.345  11.906   6.217  0.2355 -0.0184 -0.1557
 1069YOPC   C1A14303   5.226  11.895   6.737 -0.1625  0.0215 -0.4003
 1069YOPC   D2A14304   5.101  11.920   7.240  0.0065 -0.0941  0.0392
 1069YOPC   C3A14305   5.144  12.247   7.527  0.0319  0.1140 -0.1463
 1069YOPC   C4A14306   4.791  12.534   7.578  0.1593  0.1136  0.2931
 1069YOPC   C1B14307   5.402  12.279   6.521 -0.2767  0.3726 -0.5193
 1069YOPC   C2B14308   5.374  12.312   7.017 -0.2838 -0.5730 -0.0785
 1069YOPC   D3B14309   5.616  12.204   7.386  0.1740  0.0847 -0.2040
 1069YOPC   C4B14310   5.872  11.954   7.582  0.0887 -0.3808  0.0281
 1070YOPC   NC314311  15.788  12.270   5.693 -0.1232  0.1584 -0.2038
 1070YOPC   PO414312  15.801  12.755   5.635  0.2980  0.2880  0.4625
 1070YOPC   GL114313  15.917  12.754   6.071 -0.3667  0.1175 -0.0907
 1070YOPC   GL214314  16.160  12.904   6.067 -0.2137  0.1242 -0.0412
 1070YOPC   C1A14315  16.146  12.660   6.581 -0.1647  0.1370 -0.0510
 1070YOPC   D2A14316  15.956  12.794   6.972  0.0497 -0.0213 -0.1838
 1070YOPC   C3A14317  15.965  12.587   7.324  0.2393  0.1373  0.1121
 1070YOPC   C4A14318  15.903  12.282   7.290  0.0488  0.0835 -0.1335
 1070YOPC   C1B14319  16.353  13.103   6.354 -0.1894 -0.0495 -0.2292
 1070YOPC   C2B14320  16.749  13.135   6.503 -0.1311 -0.2058 -0.0576
 1070YOPC   D3B14321  17.095  12.877   6.475  0.2681  0.0233 -0.2797
 1070YOPC   C4B14322  17.062  12.518   6.195  0.0675 -0.2477  0.0549
 1071YOPC   NC314323   2.085  14.162   5.352  0.2061  0.2139  0.2297
 1071YOPC   PO414324   1.696  14.054   5.594  0.2636  0.1585  0.0755
 1071YOPC   GL114325   1.483  14.119   5.914 -0.4185  0.2122 -0.0524
 1071YOPC   GL214326   1.408  14.429   5.890  0.0364 -0.0911  0.1105
 1071YOPC   C1A14327   1.600  14.090   6.303 -0.0378  0.0588  0.0733
 1071YOPC   D2A14328   1.684  14.111   6.720  0.0015  0.1933 -0.4093
 1071YOPC   C3A14329   1.581  14.485   7.074 -0.3839 -0.0821  0.0472
 1071YOPC   C4A14330   1.777  14.965   7.262 -0.1594  0.3481 -0.0335
 1071YOPC   C1B14331   1.630  14.707   5.984 -0.1582  0.0352 -0.0206
 1071YOPC   C2B14332   1.837  14.913   6.288 -0.1160 -0.1428  0.1181
 1071YOPC   D3B14333   1.941  14.888   6.684  0.1856  0.1418 -0.0351
 1071YOPC   C4B14334   2.154  14.606   6.888 -0.1465 -0.1634  0.0169
 1072YOPC   NC314335   6.477  10.547   5.801 -0.1745  0.2327  0.0378
 1072YOPC   PO414336   6.311  10.256   6.106 -0.0977 -0.0277 -0.4481
 1072YOPC   GL114337   6.423  10.317   6.551  0.0871  0.1014  0.2854
 1072YOPC   GL214338   6.150  10.432   6.642  0.2907 -0.4193 -0.1083
 1072YOPC   C1A14339   6.581  10.081   6.893 -0.0447 -0.1001 -0.3282
 1072YOPC   D2A14340   6.509   9.799   7.219 -0.3912  0.1281  0.0855
 1072YOPC   C3A14341   6.812   9.906   7.512 -0.1007 -0.1040  0.1891
 1072YOPC   C4A14342   7.064   9.807   7.872 -0.1402  0.1494 -0.3253
 1072YOPC   C1B14343   5.952  10.688   6.976  0.0573  0.0848 -0.2084
 1072YOPC   C2B14344   5.807  10.880   7.283 -0.2295  0.0723  0.0287
 1072YOPC   D3B14345   5.891  10.602   7.626  0.2463  0.0775 -0.1749
 1072YOPC   C4B14346   6.228  10.492   7.845  0.1521  0.4572 -0.2909
 1073YOPC   NC314347   3.967   2.546   6.115 -0.0647  0.2829 -0.3997
 1073YOPC   PO414348   3.601   2.807   6.015 -0.1586 -0.2550  0.3812
 1073YOPC   GL114349   3.432   2.777   6.493 -0.2714  0.0834  0.3943
 1073YOPC   GL214350   3.740   2.709   6.595 -0.0398  0.0008  0.0000
 1073YOPC   C1A14351   3.211   2.912   6.812  0.1135 -0.4517  0.0525
 1073YOPC   D2A14352   3.387   3.086   7.258  0.1603 -0.0435 -0.0254
 1073YOPC   C3A14353   3.273   3.387   7.512  0.1683 -0.0962  0.0525
 1073YOPC   C4A14354   2.983   3.461   7.840 -0.2587  0.2231 -0.0428
 1073YOPC   C1B14355   3.754   2.353   6.951 -0.1488  0.1311  0.2049
 1073YOPC   C2B14356   3.676   2.273   7.391  0.2456  0.0184 -0.0616
 1073YOPC   D3B14357   3.381   2.046   7.805  0.3613 -0.0938 -0.0164
 1073YOPC   C4B14358   3.088   1.657   7.823  0.0362  0.3554 -0.2250
 1074YOPC   NC314359  18.205  14.001   5.016 -0.0995  0.2255  0.2063
 1074YOPC   PO414360  17.743  13.904   5.159  0.3103  0.0137  0.0477
 1074YOPC   GL114361  17.595  13.954   5.647  0.0876 -0.3134 -0.1787
 1074YOPC   GL214362  17.725  13.759   5.812 -0.3536  0.1208 -0.0782
 1074YOPC   C1A14363  17.517  14.372   5.991 -0.1443 -0.0489 -0.1824
 1074YOPC   D2A14364  17.413  14.542   6.343  0.1751  0.0078  0.1339
 1074YOPC   C3A14365  17.273  14.319   6.724 -0.5350  0.0484 -0.0356
 1074YOPC   C4A14366  17.315  14.143   7.066 -0.0953  0.0191  0.2051
 1074YOPC   C1B14367  17.744  13.703   6.285 -0.1142  0.1143  0.0189
 1074YOPC   C2B14368  17.541  13.912   6.665  0.5909  0.1299  0.0557
 1074YOPC   D3B14369  17.482  13.590   7.013 -0.0095  0.0196 -0.1383
 1074YOPC   C4B14370  17.545  13.610   7.455 -0.1314  0.0693 -0.1438
 1075YOPC   NC314371   4.548   7.327   5.929  0.0640  0.0434 -0.0505
 1075YOPC   PO414372   4.830   7.023   6.012  0.0542 -0.0773 -0.0143
 1075YOPC   GL114373   4.681   7.278   6.435  0.3039 -0.2018  0.0973
 1075YOPC   GL214374   4.661   6.857   6.598  0.0270 -0.2511 -0.1947
 1075YOPC   C1A14375   4.738   7.601   6.659  0.2656 -0.0169 -0.0398
 1075YOPC   D2A14376   4.859   7.670   7.044 -0.1793  0.1228 -0.0681
 1075YOPC   C3A14377   4.831   7.674   7.461 -0.0530  0.1038  0.1248
 1075YOPC   C4A14378   4.922   7.443   7.830 -0.0262 -0.4153 -0.0014
 1075YOPC   C1B14379   4.902   7.106   6.822 -0.0079 -0.0106 -0.1062
 1075YOPC   C2B14380   5.003   7.166   7.161  0.0888 -0.1725  0.0981
 1075YOPC   D3B14381   4.729   7.059   7.459 -0.2765  0.0604 -0.0998
 1075YOPC   C4B14382   4.609   7.043   7.847 -0.2092 -0.2838  0.0867
 1076YOPC   NC314383   7.465   4.714   5.959 -0.1440  0.1243  0.0001
 1076YOPC   PO414384   7.531   4.309   6.033  0.2159  0.0674 -0.1851
 1076YOPC   GL114385   7.648   4.579   6.408  0.5191 -0.0030  0.1471
 1076YOPC   GL214386   7.754   4.869   6.456  0.0002 -0.0632 -0.0269
 1076YOPC   C1A14387   7.766   4.544   6.903 -0.0049 -0.0462  0.1559
 1076YOPC   D2A14388   7.793   4.818   7.261 -0.0629 -0.1502 -0.1611
 1076YOPC   C3A14389   8.170   5.156   7.325  0.4427 -0.0520 -0.4622
 1076YOPC   C4A14390   8.308   5.401   7.569 -0.0114  0.0296  0.2514
 1076YOPC   C1B14391   7.625   5.326   6.498 -0.2460 -0.0275  0.0509
 1076YOPC   C2B14392   7.240   5.459   6.702 -0.1232 -0.3216  0.0826
 1076YOPC   D3B14393   7.131   5.379   7.093  0.1152 -0.0665 -0.0253
 1076YOPC   C4B14394   7.247   5.119   7.283  0.2287 -0.0978  0.0063
 1077YOPC   NC314395  16.936  14.915   5.522 -0.2654  0.0802  0.1253
 1077YOPC   PO414396  17.127  15.267   5.481  0.0312  0.4046  0.0205
 1077YOPC   GL114397  17.328  15.245   5.862 -0.3360 -0.1347 -0.1318
 1077YOPC   GL214398  17.224  14.875   5.938  0.0252  0.0878  0.0698
 1077YOPC   C1A14399  17.403  15.092   6.388 -0.1259  0.1216 -0.0870
 1077YOPC   D2A14400  17.285  14.856   6.770 -0.0206 -0.2416 -0.2127
 1077YOPC   C3A14401  17.551  15.083   7.076 -0.2994 -0.0975  0.3174
 1077YOPC   C4A14402  17.799  15.056   7.478  0.0147 -0.0112  0.2325
 1077YOPC   C1B14403  16.966  15.057   6.202  0.1925 -0.0051  0.1989
 1077YOPC   C2B14404  16.761  15.499   6.380 -0.1513  0.2405  0.0926
 1077YOPC   D3B14405  16.909  15.844   6.700  0.3532 -0.0656 -0.1782
 1077YOPC   C4B14406  16.892  16.150   6.940 -0.2481 -0.0625  0.1932
 1078YOPC   NC314407  16.612  13.835   5.568  0.1198 -0.0658 -0.2174
 1078YOPC   PO414408  16.260  13.814   5.770 -0.2938 -0.0497 -0.0643
 1078YOPC   GL114409  16.151  14.017   6.183 -0.1614  0.0301  0.0531
 1078YOPC   GL214410  16.379  14.270   6.107  0.1906  0.0326  0.0979
 1078YOPC   C1A14411  16.123  14.020   6.638 -0.2924  0.3944  0.0066
 1078YOPC   D2A14412  15.976  14.186   7.071  0.0998  0.0157 -0.3588
 1078YOPC   C3A14413  16.099  14.165   7.540 -0.2715  0.3011  0.0174
 1078YOPC   C4A14414  16.336  13.872   7.715  0.0161 -0.3153 -0.0150
 1078YOPC   C1B14415  16.290  14.470   6.488  0.1598  0.2201  0.1613
 1078YOPC   C2B14416  16.480  14.701   6.799  0.1828  0.0931  0.0049
 1078YOPC   D3B14417  16.434  14.448   7.105 -0.0129  0.1810  0.2836
 1078YOPC   C4B14418  16.607  14.135   7.409  0.1498  0.0202  0.0258
 1079YOPC   NC314419   7.533  15.423   5.451  0.0459  0.0937 -0.2017
 1079YOPC   PO414420   7.581  15.860   5.304 -0.1512  0.3382  0.1244
 1079YOPC   GL114421   7.376  15.875   5.689  0.0610  0.0592  0.1927
 1079YOPC   GL214422   7.498  16.184   5.776  0.2855 -0.0153 -0.1071
 1079YOPC   C1A14423   7.077  15.962   5.958 -0.5280 -0.0871 -0.2100
 1079YOPC   D2A14424   6.914  16.154   6.241  0.0221  0.0298 -0.0013
 1079YOPC   C3A14425   6.676  16.405   5.944  0.3418 -0.2432  0.1038
 1079YOPC   C4A14426   6.777  16.899   5.873 -0.0793  0.2219  0.2504
 1079YOPC   C1B14427   7.486  16.266   6.187 -0.1833 -0.0078 -0.1263
 1079YOPC   C2B14428   7.212  16.379   6.621 -0.0735 -0.2634 -0.3130
 1079YOPC   D3B14429   6.967  16.069   6.791  0.2105  0.0547 -0.0942
 1079YOPC   C4B14430   6.561  15.894   6.504 -0.1294 -0.0546 -0.1348
 1080YOPC   NC314431  15.624   0.805   5.796 -0.0821  0.2424 -0.0391
 1080YOPC   PO414432  15.720   0.378   5.529 -0.2235 -0.2362 -0.1065
 1080YOPC   GL114433  15.595   0.313   5.981 -0.0213 -0.2291  0.0395
 1080YOPC   GL214434  15.204   0.185   6.060 -0.0786 -0.1034  0.0185
 1080YOPC   C1A14435  15.780   0.436   6.363 -0.0862  0.1722 -0.0936
 1080YOPC   D2A14436  15.907   0.224   6.725  0.4919 -0.0174  0.1695
 1080YOPC   C3A14437  16.070   0.430   7.034  0.3633  0.2332 -0.2895
 1080YOPC   C4A14438  16.068   0.523   7.567 -0.0374  0.1812 -0.0424
 1080YOPC   C1B14439  15.060  -0.080   6.422 -0.4388  0.1764 -0.0470
 1080YOPC   C2B14440  15.348  -0.155   6.777 -0.0401  0.1486  0.2695
 1080YOPC   D3B14441  15.291  -0.614   6.880  0.0801 -0.2836 -0.2386
 1080YOPC   C4B14442  15.546  -0.923   6.979 -0.0608 -0.0571  0.3221
 1081YOPC   NC314443   6.754  14.451   5.431  0.1257  0.2714 -0.0524
 1081YOPC   PO414444   6.700  14.845   5.598  0.1043  0.1470  0.2749
 1081YOPC   GL114445   6.412  14.906   5.935  0.1528 -0.2414 -0.2082
 1081YOPC   GL214446   6.290  14.736   6.085 -0.0463 -0.2914 -0.0114
 1081YOPC   C1A14447   6.332  15.221   6.285  0.0578  0.0225  0.1987
 1081YOPC   D2A14448   6.233  14.935   6.638  0.0660  0.1553 -0.2247
 1081YOPC   C3A14449   5.715  14.905   6.731 -0.4179 -0.3719 -0.2941
 1081YOPC   C4A14450   5.243  14.987   6.788 -0.2149  0.0506 -0.0982
 1081YOPC   C1B14451   6.590  14.679   6.416 -0.0185  0.0894  0.1597
 1081YOPC   C2B14452   6.949  14.804   6.539  0.3377 -0.1123 -0.0812
 1081YOPC   D3B14453   7.328  14.739   6.276  0.2771 -0.1561  0.0052
 1081YOPC   C4B14454   7.425  14.350   6.102 -0.2362  0.0251  0.3213
 1082YOPC   NC314455   7.641   2.965   5.672  0.0409 -0.0129  0.0896
 1082YOPC   PO414456   7.560   3.429   5.790  0.2315 -0.0763  0.0523
 1082YOPC   GL114457   7.474   3.382   6.253 -0.2487 -0.1292 -0.1202
 1082YOPC   GL214458   7.282   3.544   6.526  0.0037 -0.1702  0.0963
 1082YOPC   C1A14459   7.669   3.165   6.590 -0.0994  0.1383 -0.3743
 1082YOPC   D2A14460   7.740   3.169   7.032 -0.3731  0.5096 -0.0424
 1082YOPC   C3A14461   7.528   3.439   7.341 -0.0301 -0.0395  0.2074
 1082YOPC   C4A14462   7.110   3.517   7.574 -0.1766 -0.0563 -0.4169
 1082YOPC   C1B14463   7.153   3.144   6.610  0.0349 -0.0334  0.2560
 1082YOPC   C2B14464   6.840   2.892   6.589 -0.3116 -0.2346  0.0599
 1082YOPC   D3B14465   6.990   2.777   6.943  0.1646 -0.0344  0.2699
 1082YOPC   C4B14466   7.341   2.740   7.310 -0.2896 -0.2479 -0.1336
 1083YOPC   NC314467   7.198   1.647   5.568 -0.2716 -0.0522 -0.1409
 1083YOPC   PO414468   7.633   1.568   5.446 -0.3521  0.1125 -0.0791
 1083YOPC   GL114469   7.597   1.301   5.884 -0.0561  0.1285  0.0526
 1083YOPC   GL214470   7.272   1.369   6.037  0.0340 -0.1117 -0.2099
 1083YOPC   C1A14471   7.807   1.427   6.238  0.0925 -0.0643  0.1037
 1083YOPC   D2A14472   7.865   1.546   6.681  0.3590 -0.1651  0.1214
 1083YOPC   C3A14473   7.534   1.835   6.703 -0.0924 -0.1420  0.2574
 1083YOPC   C4A14474   7.371   2.064   6.391  0.1441 -0.0275  0.2346
 1083YOPC   C1B14475   7.272   1.486   6.475 -0.0218 -0.0315  0.3780
 1083YOPC   C2B14476   7.221   1.503   6.878  0.1061 -0.1933 -0.0754
 1083YOPC   D3B14477   7.362   1.780   7.168  0.0393  0.0416 -0.1884
 1083YOPC   C4B14478   7.760   1.791   7.349  0.0272 -0.0468  0.0229
 1084YOPC   NC314479   2.698  17.873   5.390 -0.3581  0.3247  0.1112
 1084YOPC   PO414480   2.465  18.060   5.766  0.4843  0.0425  0.0230
 1084YOPC   GL114481   2.378  17.934   6.138  0.1882 -0.0337  0.2221
 1084YOPC   GL214482   2.486  17.694   6.170 -0.1611 -0.2378 -0.0203
 1084YOPC   C1A14483   2.254  18.080   6.531  0.0316 -0.2253  0.0649
 1084YOPC   D2A14484   2.017  18.174   6.842 -0.0833  0.0642 -0.0227
 1084YOPC   C3A14485   1.868  18.629   6.921  0.4441 -0.0551  0.0007
 1084YOPC   C4A14486   2.089  18.973   7.149 -0.1741 -0.0301  0.1041
 1084YOPC   C1B14487   2.577  17.735   6.602 -0.0225 -0.0832 -0.3002
 1084YOPC   C2B14488   2.511  17.816   7.046 -0.2807  0.2109  0.2676
 1084YOPC   D3B14489   2.533  18.138   7.339  0.1691 -0.2502  0.0515
 1084YOPC   C4B14490   2.739  18.302   7.671 -0.1803 -0.0870 -0.1078
 1085YOPC   NC314491  13.372  18.311   5.314 -0.2024  0.1567  0.2430
 1085YOPC   PO414492  13.726  18.246   5.602  0.0173 -0.1656 -0.1333
 1085YOPC   GL114493  13.921  18.093   5.971 -0.0894  0.2512 -0.0580
 1085YOPC   GL214494  13.876  17.860   6.142  0.0015 -0.2388 -0.0595
 1085YOPC   C1A14495  13.849  18.235   6.433  0.0829 -0.1713  0.0398
 1085YOPC   D2A14496  13.966  18.266   6.899 -0.0032  0.6231  0.2672
 1085YOPC   C3A14497  14.155  18.591   7.213 -0.1890  0.1331 -0.1739
 1085YOPC   C4A14498  14.139  18.646   7.602  0.1712  0.0125 -0.3843
 1085YOPC   C1B14499  13.883  17.687   6.564 -0.1245  0.0607 -0.1213
 1085YOPC   C2B14500  13.831  17.727   6.965  0.1157 -0.2205 -0.0087
 1085YOPC   D3B14501  13.868  17.792   7.304  0.0978 -0.0614  0.0961
 1085YOPC   C4B14502  13.694  17.855   7.641  0.1445 -0.1247 -0.0918
 1086YOPC   NC314503   3.531   9.582   5.611  0.4205  0.1011 -0.1918
 1086YOPC   PO414504   3.066   9.810   5.726  0.2671 -0.1073  0.2536
 1086YOPC   GL114505   2.965   9.805   6.072  0.0758 -0.2226  0.1326
 1086YOPC   GL214506   3.150  10.001   6.427 -0.2742 -0.1650  0.2321
 1086YOPC   C1A14507   2.548   9.701   6.308 -0.4521  0.1075 -0.2256
 1086YOPC   D2A14508   2.273   9.864   6.638 -0.1459  0.3082 -0.0598
 1086YOPC   C3A14509   2.186  10.130   6.497  0.0396 -0.1078 -0.0727
 1086YOPC   C4A14510   2.215  10.491   6.312  0.2670 -0.2406  0.2007
 1086YOPC   C1B14511   3.376   9.916   6.884  0.2294  0.0528 -0.0384
 1086YOPC   C2B14512   3.428   9.745   7.237 -0.0396 -0.0602  0.1671
 1086YOPC   D3B14513   3.260   9.428   7.378 -0.0778  0.0460 -0.0396
 1086YOPC   C4B14514   3.050   9.047   7.412  0.3356 -0.0580 -0.4646
 1087YOPC   NC314515  10.883  14.276   5.624  0.1298  0.1295 -0.0383
 1087YOPC   PO414516  11.133  13.912   5.456 -0.1016 -0.0206 -0.2372
 1087YOPC   GL114517  11.168  13.771   5.832  0.3141  0.1327 -0.3053
 1087YOPC   GL214518  11.336  14.143   5.942 -0.2037  0.4681  0.0973
 1087YOPC   C1A14519  11.279  13.538   6.218  0.3849 -0.2273  0.0468
 1087YOPC   D2A14520  11.408  13.501   6.607  0.0825 -0.0223  0.0141
 1087YOPC   C3A14521  11.390  13.109   6.897 -0.0731  0.3783  0.3889
 1087YOPC   C4A14522  11.305  13.201   7.289 -0.1984  0.0463  0.0088
 1087YOPC   C1B14523  11.234  14.014   6.341 -0.1475 -0.1130  0.0519
 1087YOPC   C2B14524  10.978  13.859   6.693 -0.0569 -0.1176  0.1713
 1087YOPC   D3B14525  11.222  13.830   7.047  0.2970 -0.1855  0.1658
 1087YOPC   C4B14526  11.294  13.697   7.433 -0.0223  0.3077  0.0408
 1088YOPC   NC314527  14.270  12.956   5.526 -0.0813 -0.0270 -0.0766
 1088YOPC   PO414528  13.890  12.763   5.429 -0.3240 -0.3710 -0.0462
 1088YOPC   GL114529  13.813  12.698   5.855 -0.0534  0.3737  0.0408
 1088YOPC   GL214530  14.127  12.555   5.902  0.1332  0.1851 -0.1653
 1088YOPC   C1A14531  14.100  12.892   6.281 -0.2208 -0.1550 -0.4073
 1088YOPC   D2A14532  14.014  12.946   6.865  0.1317 -0.3255  0.0731
 1088YOPC   C3A14533  14.076  13.212   7.214 -0.1339  0.0745 -0.1280
 1088YOPC   C4A14534  13.836  13.243   7.611 -0.3273 -0.3176 -0.0747
 1088YOPC   C1B14535  14.528  12.697   6.028 -0.0692  0.1168  0.2539
 1088YOPC   C2B14536  14.821  12.809   6.383 -0.2531  0.1087 -0.3099
 1088YOPC   D3B14537  15.057  13.219   6.213  0.0421  0.3288  0.0352
 1088YOPC   C4B14538  15.189  13.577   6.020 -0.3992 -0.2367 -0.2466
 1089YOPC   NC314539   8.282  18.210   4.955 -0.2495  0.0862 -0.1970
 1089YOPC   PO414540   7.947  18.007   5.199 -0.1375  0.0423 -0.1756
 1089YOPC   GL114541   7.869  17.931   5.729  0.1789 -0.0217  0.1659
 1089YOPC   GL214542   7.594  17.899   5.649  0.1282 -0.0302  0.2225
 1089YOPC   C1A14543   7.914  17.922   6.198 -0.2107  0.1997  0.2006
 1089YOPC   D2A14544   8.121  18.144   6.515 -0.1546 -0.0847  0.0483
 1089YOPC   C3A14545   8.399  17.890   6.892  0.2128 -0.0534 -0.1132
 1089YOPC   C4A14546   8.382  17.695   7.227  0.2433 -0.1585 -0.0798
 1089YOPC   C1B14547   7.377  17.800   5.985 -0.0643 -0.0288 -0.1304
 1089YOPC   C2B14548   7.472  17.688   6.411  0.3212  0.1442  0.0123
 1089YOPC   D3B14549   7.691  17.911   6.643  0.6181 -0.1515 -0.2596
 1089YOPC   C4B14550   7.910  18.078   6.990 -0.0669 -0.0395 -0.0867
 1090YOPC   NC314551  16.795   3.189   6.183  0.0929 -0.1501  0.2372
 1090YOPC   PO414552  17.142   3.068   5.929 -0.1097 -0.2920  0.0618
 1090YOPC   GL114553  17.321   2.869   6.324  0.3320  0.1282 -0.3446
 1090YOPC   GL214554  17.385   2.608   6.541 -0.2776  0.0289 -0.2450
 1090YOPC   C1A14555  17.256   3.088   6.692 -0.0328  0.3517  0.0352
 1090YOPC   D2A14556  17.266   3.419   7.057 -0.1682  0.0012  0.2212
 1090YOPC   C3A14557  16.829   3.371   7.144 -0.0683 -0.0727 -0.0337
 1090YOPC   C4A14558  16.665   3.598   7.535 -0.0784  0.0562 -0.1733
 1090YOPC   C1B14559  17.299   2.626   7.044 -0.1963  0.0455  0.1742
 1090YOPC   C2B14560  17.039   2.772   7.439 -0.0532  0.2946 -0.0351
 1090YOPC   D3B14561  17.052   3.211   7.566  0.2802 -0.3084 -0.0430
 1090YOPC   C4B14562  17.191   3.242   7.964 -0.1669 -0.1408 -0.1910
 1091YOPC   NC314563   4.606   4.447   5.880 -0.1299  0.4161  0.0211
 1091YOPC   PO414564   4.587   4.722   6.278  0.1258  0.0042 -0.0949
 1091YOPC   GL114565   4.578   4.677   6.772 -0.1909  0.1252 -0.0270
 1091YOPC   GL214566   4.223   4.643   6.768 -0.2056  0.1741 -0.0733
 1091YOPC   C1A14567   4.743   4.785   7.144 -0.1785  0.1348  0.2084
 1091YOPC   D2A14568   4.991   4.700   7.454 -0.0528  0.3160  0.1566
 1091YOPC   C3A14569   4.998   5.157   7.640 -0.3646 -0.0308  0.1854
 1091YOPC   C4A14570   5.112   5.422   7.952  0.2220 -0.0218  0.1229
 1091YOPC   C1B14571   4.287   4.615   7.168  0.0049  0.2548  0.1208
 1091YOPC   C2B14572   4.509   4.329   7.482 -0.0775  0.0984  0.0302
 1091YOPC   D3B14573   4.340   4.340   7.787  0.0653  0.0917 -0.4433
 1091YOPC   C4B14574   4.024   4.608   7.955 -0.1529 -0.1398 -0.0018
 1092YOPC   NC314575  15.286  11.746   5.290 -0.0290 -0.1888 -0.0616
 1092YOPC   PO414576  15.279  12.026   5.665 -0.2109 -0.0500  0.1791
 1092YOPC   GL114577  15.376  12.197   6.033  0.1381  0.0861 -0.3334
 1092YOPC   GL214578  15.279  12.555   6.040  0.1029 -0.1967  0.1163
 1092YOPC   C1A14579  15.358  12.286   6.486  0.0431 -0.1699  0.2719
 1092YOPC   D2A14580  15.294  12.189   6.933 -0.0188  0.0040 -0.1193
 1092YOPC   C3A14581  15.434  12.439   7.200 -0.2219 -0.2966  0.1218
 1092YOPC   C4A14582  15.367  12.289   7.646  0.0237  0.1484 -0.3249
 1092YOPC   C1B14583  15.472  12.817   6.283  0.1538  0.2464  0.3411
 1092YOPC   C2B14584  15.844  13.072   6.498  0.1127 -0.2058 -0.2492
 1092YOPC   D3B14585  15.695  13.191   6.896  0.0473 -0.1071 -0.0517
 1092YOPC   C4B14586  15.474  12.952   7.181 -0.2135  0.1793  0.0369
 1093YOPC   NC314587  13.273  13.243   5.665 -0.1588 -0.0632  0.0171
 1093YOPC   PO414588  12.945  12.992   5.568 -0.0419  0.1591 -0.0659
 1093YOPC   GL114589  12.810  12.921   6.027  0.0578 -0.0316  0.0227
 1093YOPC   GL214590  12.502  13.088   6.040 -0.1517 -0.0637 -0.1835
 1093YOPC   C1A14591  12.943  12.610   6.296 -0.2655 -0.1193  0.1861
 1093YOPC   D2A14592  13.095  12.712   6.666  0.1917  0.1189 -0.2509
 1093YOPC   C3A14593  13.285  13.091   6.792 -0.0893  0.0740  0.0928
 1093YOPC   C4A14594  13.505  13.114   7.152  0.1109  0.0388  0.0882
 1093YOPC   C1B14595  12.842  13.313   6.364  0.1004  0.2231 -0.4472
 1093YOPC   C2B14596  12.887  13.585   6.664  0.1709 -0.2349  0.1911
 1093YOPC   D3B14597  12.731  13.669   7.088  0.0789  0.0406  0.0989
 1093YOPC   C4B14598  12.752  13.831   7.437 -0.0634 -0.1899 -0.0563
 1094YOPC   NC314599  12.150  10.665   5.340  0.2914 -0.2256 -0.0141
 1094YOPC   PO414600  11.938  11.102   5.439  0.1220  0.0152  0.0616
 1094YOPC   GL114601  11.972  11.207   5.862  0.3050  0.3404  0.0167
 1094YOPC   GL214602  11.563  11.353   5.877 -0.1985  0.2015 -0.0149
 1094YOPC   C1A14603  12.221  11.280   6.226  0.0031  0.0409  0.0800
 1094YOPC   D2A14604  12.296  11.158   6.747 -0.0819  0.2311 -0.0978
 1094YOPC   C3A14605  12.317  11.440   7.026  0.0583 -0.1779 -0.1564
 1094YOPC   C4A14606  12.117  11.428   7.486 -0.0869 -0.3350  0.1265
 1094YOPC   C1B14607  11.766  11.193   6.314  0.2584 -0.0735 -0.0869
 1094YOPC   C2B14608  11.728  11.150   6.711 -0.2923 -0.1553  0.1838
 1094YOPC   D3B14609  11.430  11.193   6.810 -0.0477  0.0096  0.0083
 1094YOPC   C4B14610  10.969  11.126   6.955 -0.3859 -0.2241 -0.0275
 1095YOPC   NC314611   9.160   1.326   5.580  0.1382 -0.1989 -0.0298
 1095YOPC   PO414612   9.253   1.623   5.772  0.0320  0.0702 -0.1326
 1095YOPC   GL114613   9.367   1.370   6.187  0.0504 -0.1189 -0.1469
 1095YOPC   GL214614   9.639   1.253   6.237  0.2472 -0.0649  0.3036
 1095YOPC   C1A14615   9.136   1.112   6.529 -0.1837  0.2171  0.0295
 1095YOPC   D2A14616   9.047   1.044   6.959 -0.2056 -0.2307  0.2568
 1095YOPC   C3A14617   8.808   0.786   7.165 -0.1168  0.1502 -0.0300
 1095YOPC   C4A14618   8.493   0.647   7.489  0.1858 -0.1061  0.0470
 1095YOPC   C1B14619   9.641   0.980   6.659 -0.2469 -0.0279  0.1276
 1095YOPC   C2B14620   9.619   0.852   7.082  0.4457 -0.3483  0.3260
 1095YOPC   D3B14621   9.988   0.680   7.096  0.1750  0.0382  0.2084
 1095YOPC   C4B14622  10.191   0.302   6.814  0.2083 -0.3590 -0.0494
 1096YOPC   NC314623   4.555  15.865   5.116  0.2223  0.2151 -0.0162
 1096YOPC   PO414624   4.769  16.056   5.389  0.2844  0.0621 -0.0799
 1096YOPC   GL114625   4.863  16.045   5.768 -0.0900  0.2031  0.2007
 1096YOPC   GL214626   5.061  15.861   5.835 -0.3758  0.0438  0.1990
 1096YOPC   C1A14627   4.932  16.310   6.191  0.1118 -0.0983 -0.3459
 1096YOPC   D2A14628   4.683  16.575   6.440 -0.1967  0.0223 -0.2857
 1096YOPC   C3A14629   4.749  16.924   6.617  0.4047 -0.0387  0.6074
 1096YOPC   C4A14630   4.848  17.063   6.995  0.2387  0.1272 -0.1543
 1096YOPC   C1B14631   5.345  15.985   6.114 -0.0835 -0.0152 -0.3332
 1096YOPC   C2B14632   5.584  15.877   6.418  0.1425 -0.3067  0.0423
 1096YOPC   D3B14633   5.580  16.034   6.845 -0.1782  0.0631 -0.2839
 1096YOPC   C4B14634   5.611  16.319   7.259 -0.1739  0.1760  0.0328
 1097YOPC   NC314635  14.064  14.107   4.744 -0.0280  0.0127  0.1337
 1097YOPC   PO414636  13.954  14.193   5.163 -0.1238 -0.0755 -0.0268
 1097YOPC   GL114637  13.884  14.179   5.646 -0.1102 -0.2871  0.2217
 1097YOPC   GL214638  13.565  14.135   5.654  0.0772 -0.0439 -0.4172
 1097YOPC   C1A14639  13.905  14.097   6.108 -0.0689  0.1637  0.0197
 1097YOPC   D2A14640  13.695  13.806   6.192  0.1409  0.0989 -0.0596
 1097YOPC   C3A14641  13.376  13.678   6.495  0.1016  0.2543 -0.0964
 1097YOPC   C4A14642  13.215  13.505   6.998  0.0061 -0.3343 -0.1114
 1097YOPC   C1B14643  13.653  14.488   5.987 -0.0302 -0.1274  0.2970
 1097YOPC   C2B14644  13.607  14.687   6.313  0.2673 -0.2268  0.1634
 1097YOPC   D3B14645  13.587  15.158   6.139 -0.0086  0.0458  0.1885
 1097YOPC   C4B14646  13.448  15.581   6.060 -0.0010 -0.1378  0.2863
 1098YOPC   NC314647   8.163   6.719   5.256  0.0404 -0.0587 -0.0181
 1098YOPC   PO414648   8.241   6.307   5.439 -0.0757  0.1570  0.0334
 1098YOPC   GL114649   8.167   6.301   5.949  0.2067 -0.2153  0.4521
 1098YOPC   GL214650   7.926   6.246   6.124  0.0108  0.0946 -0.1566
 1098YOPC   C1A14651   8.317   6.695   6.234 -0.4798 -0.1740  0.5197
 1098YOPC   D2A14652   8.178   6.930   6.539 -0.2411 -0.3297 -0.0445
 1098YOPC   C3A14653   8.131   6.777   6.996  0.2791 -0.1720  0.1890
 1098YOPC   C4A14654   7.888   6.793   7.315 -0.1638  0.2498 -0.1342
 1098YOPC   C1B14655   8.039   6.397   6.550 -0.1102 -0.1442 -0.1268
 1098YOPC   C2B14656   7.724   6.821   6.730  0.0135 -0.0431  0.0931
 1098YOPC   D3B14657   7.726   7.176   6.618 -0.0201 -0.0754  0.3098
 1098YOPC   C4B14658   8.069   7.433   6.555  0.1765 -0.2701 -0.2073
 1099YOPC   NC314659   1.136   8.484   6.183  0.0658 -0.4040 -0.3071
 1099YOPC   PO414660   0.724   8.558   6.090 -0.2030  0.0231 -0.1899
 1099YOPC   GL114661   0.667   8.146   6.310 -0.2382  0.1341 -0.0559
 1099YOPC   GL214662   0.364   7.996   6.416  0.1268 -0.1069  0.1364
 1099YOPC   C1A14663   0.793   7.955   6.717  0.1222  0.2370  0.1018
 1099YOPC   D2A14664   0.911   7.753   7.081  0.0161 -0.1297 -0.0178
 1099YOPC   C3A14665   1.116   7.945   7.378 -0.4016  0.5568 -0.0711
 1099YOPC   C4A14666   1.388   7.845   7.618 -0.0612  0.4173 -0.3340
 1099YOPC   C1B14667   0.091   8.079   6.793  0.4329  0.0937  0.0406
 1099YOPC   C2B14668  -0.052   8.253   7.049 -0.0011  0.0794 -0.0906
 1099YOPC   D3B14669   0.134   8.192   7.488 -0.2510 -0.3948  0.2405
 1099YOPC   C4B14670   0.167   8.417   7.959 -0.0630 -0.2172  0.1500
 1100YOPC   NC314671  10.936  12.848   5.205 -0.4967 -0.2572  0.2216
 1100YOPC   PO414672  10.604  13.070   5.104 -0.1714  0.0061  0.0315
 1100YOPC   GL114673  10.467  12.886   5.505 -0.2612 -0.2328  0.2538
 1100YOPC   GL214674  10.192  13.052   5.552  0.1215 -0.4845  0.0389
 1100YOPC   C1A14675  10.478  12.661   5.879  0.1456  0.2292 -0.1135
 1100YOPC   D2A14676  10.618  12.459   6.230 -0.0687 -0.0645 -0.0135
 1100YOPC   C3A14677  10.545  12.470   6.701 -0.1024 -0.1228  0.0625
 1100YOPC   C4A14678  10.534  12.235   6.992  0.1608 -0.1347  0.0516
 1100YOPC   C1B14679   9.980  12.985   5.999  0.0669 -0.3259  0.5499
 1100YOPC   C2B14680   9.794  12.872   6.396 -0.0015 -0.2549  0.3761
 1100YOPC   D3B14681   9.617  13.205   6.809 -0.2385  0.3406 -0.2666
 1100YOPC   C4B14682   9.344  13.089   7.063 -0.1264  0.1348 -0.1195
 1101YOPC   NC314683  16.220   8.487   5.597 -0.1287 -0.0356 -0.0951
 1101YOPC   PO414684  16.545   8.413   5.891 -0.0785 -0.2516 -0.0937
 1101YOPC   GL114685  16.687   8.412   6.268  0.1169  0.0805  0.0114
 1101YOPC   GL214686  16.516   8.380   6.566  0.1556  0.1836  0.0764
 1101YOPC   C1A14687  16.896   8.644   6.440 -0.2390  0.0925 -0.3339
 1101YOPC   D2A14688  16.989   9.078   6.446  0.0079  0.2222 -0.1691
 1101YOPC   C3A14689  16.776   9.357   6.745  0.2457  0.0634 -0.0383
 1101YOPC   C4A14690  16.663   9.581   6.975 -0.0245  0.1985  0.0215
 1101YOPC   C1B14691  16.547   8.569   7.027  0.2601  0.3329 -0.1196
 1101YOPC   C2B14692  16.729   8.460   7.433  0.0336 -0.0894  0.0789
 1101YOPC   D3B14693  17.050   8.768   7.324  0.0692  0.0901 -0.2017
 1101YOPC   C4B14694  16.947   8.829   6.882 -0.0124  0.0808 -0.3016
 1102YOPC   NC314695   2.980  15.615   5.338 -0.1517  0.0371  0.2752
 1102YOPC   PO414696   3.369  15.730   5.695  0.4026  0.0546  0.0149
 1102YOPC   GL114697   3.512  15.710   6.063 -0.1048  0.0848  0.2630
 1102YOPC   GL214698   3.443  15.370   6.250 -0.2744  0.1688  0.1464
 1102YOPC   C1A14699   3.378  15.952   6.438 -0.3736  0.1148 -0.0861
 1102YOPC   D2A14700   3.045  15.963   6.827  0.1393  0.1548  0.0961
 1102YOPC   C3A14701   3.087  15.682   7.166 -0.1796  0.1331  0.0531
 1102YOPC   C4A14702   3.159  15.475   7.602  0.0791 -0.1078 -0.1777
 1102YOPC   C1B14703   3.644  15.247   6.630 -0.0009  0.0503  0.2811
 1102YOPC   C2B14704   3.797  15.308   6.905  0.0461  0.1262 -0.3447
 1102YOPC   D3B14705   3.903  14.958   7.130 -0.3701 -0.1257  0.1911
 1102YOPC   C4B14706   3.866  14.723   7.469 -0.0015 -0.2163  0.1265
 1103YOPC   NC314707  15.010   3.828   6.099 -0.0668  0.1417  0.0982
 1103YOPC   PO414708  15.256   3.439   6.190 -0.1272 -0.5426  0.1059
 1103YOPC   GL114709  14.938   3.236   6.373 -0.2878  0.3757  0.0099
 1103YOPC   GL214710  14.988   2.948   6.308 -0.1178  0.0753  0.2230
 1103YOPC   C1A14711  14.811   3.249   6.789 -0.1537 -0.0972 -0.0381
 1103YOPC   D2A14712  14.854   2.946   7.123  0.4518  0.0660 -0.1436
 1103YOPC   C3A14713  14.769   3.126   7.460  0.0188 -0.0565 -0.1860
 1103YOPC   C4A14714  14.722   3.423   7.688 -0.0779 -0.1440  0.0731
 1103YOPC   C1B14715  14.979   2.739   6.655  0.0462  0.2459 -0.0622
 1103YOPC   C2B14716  15.068   2.520   6.946 -0.1494 -0.1902  0.0391
 1103YOPC   D3B14717  15.029   2.498   7.348  0.2111  0.1400 -0.2728
 1103YOPC   C4B14718  15.275   2.516   7.660 -0.0061  0.2418 -0.0818
 1104YOPC   NC314719  12.807  10.366   5.689 -0.0560  0.1618 -0.1214
 1104YOPC   PO414720  12.537   9.963   5.714 -0.0650 -0.0999  0.1500
 1104YOPC   GL114721  12.527  10.156   6.089 -0.0464  0.3602  0.0709
 1104YOPC   GL214722  12.272  10.387   6.181 -0.1733  0.4805 -0.2217
 1104YOPC   C1A14723  12.747  10.360   6.381  0.2453 -0.1185  0.1370
 1104YOPC   D2A14724  12.845  10.341   6.771 -0.0744 -0.2317  0.1753
 1104YOPC   C3A14725  12.615  10.194   7.119  0.0073  0.1745 -0.2873
 1104YOPC   C4A14726  12.777  10.171   7.503 -0.0808  0.2943  0.2549
 1104YOPC   C1B14727  12.300  10.374   6.708 -0.0561 -0.0120  0.0890
 1104YOPC   C2B14728  12.188   9.977   7.060  0.2213  0.0940  0.0156
 1104YOPC   D3B14729  12.320   9.922   7.407  0.0828 -0.0416 -0.1420
 1104YOPC   C4B14730  12.421   9.455   7.454 -0.0066 -0.1557  0.3186
 1105YOPC   NC314731   1.007   0.737   6.029  0.0425  0.0569 -0.4349
 1105YOPC   PO414732   1.352   0.475   5.978  0.1266 -0.2848  0.3625
 1105YOPC   GL114733   1.365   0.412   6.423  0.1366  0.2091 -0.0166
 1105YOPC   GL214734   1.071   0.265   6.441  0.0780 -0.2832  0.2205
 1105YOPC   C1A14735   1.369   0.226   6.851  0.6475  0.1056  0.0696
 1105YOPC   D2A14736   1.005   0.091   6.987 -0.0804  0.3186 -0.1267
 1105YOPC   C3A14737   0.930   0.233   7.386 -0.0113  0.0650  0.2116
 1105YOPC   C4A14738   1.042   0.446   7.667 -0.1218 -0.3375  0.1828
 1105YOPC   C1B14739   0.696   0.175   6.636 -0.2077  0.0973 -0.0618
 1105YOPC   C2B14740   0.562  -0.185   6.834 -0.0915 -0.0343 -0.1696
 1105YOPC   D3B14741   0.565  -0.169   7.232 -0.2634  0.1135  0.0516
 1105YOPC   C4B14742   0.430  -0.220   7.636  0.1061  0.2091  0.0733
 1106YOPC   NC314743  15.281   2.156   5.910  0.3956  0.1657  0.1451
 1106YOPC   PO414744  14.760   2.281   5.876 -0.0799 -0.0816 -0.2082
 1106YOPC   GL114745  14.960   2.363   6.266  0.1502  0.0592 -0.0515
 1106YOPC   GL214746  14.689   2.442   6.455 -0.0817  0.2123  0.3330
 1106YOPC   C1A14747  15.122   2.145   6.639 -0.2144  0.2429 -0.0959
 1106YOPC   D2A14748  15.082   1.709   6.702 -0.1520 -0.0181  0.0504
 1106YOPC   C3A14749  15.214   1.613   7.065  0.0324  0.1779  0.1629
 1106YOPC   C4A14750  15.265   1.439   7.504  0.0298 -0.1508  0.1102
 1106YOPC   C1B14751  14.481   2.545   6.911  0.0373  0.0808  0.2680
 1106YOPC   C2B14752  14.562   2.689   7.403  0.0655 -0.3030  0.2501
 1106YOPC   D3B14753  14.549   2.334   7.758 -0.1913 -0.0738 -0.1478
 1106YOPC   C4B14754  14.388   2.194   8.196 -0.2108 -0.1210  0.0196
 1107YOPC   NC314755  16.625   1.081   5.760  0.3538  0.2535  0.0632
 1107YOPC   PO414756  16.144   1.060   5.820  0.1358  0.1559 -0.0864
 1107YOPC   GL114757  15.954   0.912   6.274  0.3038  0.0578 -0.2209
 1107YOPC   GL214758  16.221   0.812   6.400  0.1493  0.2572  0.2211
 1107YOPC   C1A14759  15.787   0.877   6.636 -0.1604 -0.0581 -0.1641
 1107YOPC   D2A14760  15.934   0.955   7.106  0.1601 -0.0242 -0.1076
 1107YOPC   C3A14761  16.261   0.914   7.265  0.0876 -0.0590  0.1431
 1107YOPC   C4A14762  16.425   0.834   7.665  0.1092  0.2514  0.0530
 1107YOPC   C1B14763  16.316   0.312   6.465  0.1742 -0.4055 -0.0379
 1107YOPC   C2B14764  16.068   0.014   6.221  0.1009  0.1935 -0.1305
 1107YOPC   D3B14765  15.619  -0.048   6.373  0.0122 -0.1091  0.0232
 1107YOPC   C4B14766  15.352   0.306   6.584 -0.1349 -0.1071 -0.0535
 1108YOPC   NC314767  14.222   6.000   6.095  0.0279  0.0688 -0.3585
 1108YOPC   PO414768  14.555   5.736   6.347  0.1561 -0.2179  0.2887
 1108YOPC   GL114769  14.432   6.023   6.687  0.3371 -0.0030  0.1268
 1108YOPC   GL214770  14.200   5.878   6.816 -0.1090  0.3529  0.0750
 1108YOPC   C1A14771  14.092   6.328   6.975 -0.0704  0.4132 -0.0104
 1108YOPC   D2A14772  13.898   6.524   7.316 -0.0845  0.4311 -0.4345
 1108YOPC   C3A14773  13.441   6.663   7.228 -0.2582 -0.1043  0.2533
 1108YOPC   C4A14774  13.153   6.722   6.982  0.0650  0.0250 -0.0276
 1108YOPC   C1B14775  14.068   5.604   7.198  0.1381 -0.1178 -0.0553
 1108YOPC   C2B14776  13.838   5.599   7.564 -0.2969  0.1813 -0.0027
 1108YOPC   D3B14777  13.706   5.376   7.868  0.2263 -0.4816  0.1195
 1108YOPC   C4B14778  13.540   5.518   8.054 -0.0440 -0.0252 -0.1789
 1109YOPC   NC314779  16.452  10.842   5.644 -0.1263  0.0575 -0.0167
 1109YOPC   PO414780  16.379  10.487   5.859 -0.3051 -0.2228 -0.2095
 1109YOPC   GL114781  16.013  10.385   6.127  0.0702  0.2764 -0.1494
 1109YOPC   GL214782  16.029  10.664   6.263 -0.0175  0.3665 -0.0589
 1109YOPC   C1A14783  15.673  10.178   6.417 -0.0446 -0.0398  0.2801
 1109YOPC   D2A14784  15.345  10.125   6.682 -0.1264 -0.1005  0.0115
 1109YOPC   C3A14785  15.348  10.246   7.169  0.1110 -0.0583 -0.2201
 1109YOPC   C4A14786  15.325  10.410   7.647  0.0582  0.1538 -0.1523
 1109YOPC   C1B14787  16.064  10.962   6.562 -0.2498  0.2583 -0.3781
 1109YOPC   C2B14788  15.873  11.201   6.878 -0.1669  0.1932  0.2379
 1109YOPC   D3B14789  15.604  11.038   7.188  0.0240  0.0675  0.3467
 1109YOPC   C4B14790  15.397  10.742   7.202  0.2469 -0.0196  0.1355
 1110YOPC   NC314791  12.848  15.286   5.237  0.1240  0.1614 -0.0180
 1110YOPC   PO414792  12.500  14.950   5.284  0.2071 -0.1097 -0.1008
 1110YOPC   GL114793  12.590  15.242   5.768  0.2428 -0.1858  0.0181
 1110YOPC   GL214794  12.444  15.513   5.717  0.0806  0.0175 -0.4832
 1110YOPC   C1A14795  12.821  15.151   6.097 -0.1988  0.1989  0.1122
 1110YOPC   D2A14796  13.108  14.789   6.112 -0.3600  0.1955  0.2223
 1110YOPC   C3A14797  13.163  14.584   6.488  0.3040  0.2120 -0.2909
 1110YOPC   C4A14798  13.162  14.134   6.768 -0.1467 -0.1558  0.1556
 1110YOPC   C1B14799  12.469  15.524   6.208 -0.2139  0.0926 -0.1310
 1110YOPC   C2B14800  12.441  15.293   6.596 -0.0874 -0.0899  0.3717
 1110YOPC   D3B14801  12.214  15.388   7.050  0.0322  0.0766  0.1007
 1110YOPC   C4B14802  12.021  15.440   7.331 -0.1932  0.4102 -0.3548
 1111YOPC   NC314803  17.453  11.097   5.998 -0.0317  0.1663 -0.1460
 1111YOPC   PO414804  17.579  10.699   6.063  0.0995 -0.1203 -0.2216
 1111YOPC   GL114805  17.936  10.632   6.317  0.3463 -0.1114  0.1195
 1111YOPC   GL214806  18.085  10.862   6.372  0.0321 -0.0939  0.1917
 1111YOPC   C1A14807  18.079  10.566   6.807  0.0405  0.1807 -0.0066
 1111YOPC   D2A14808  18.056  10.606   7.207  0.2731  0.0361 -0.2018
 1111YOPC   C3A14809  18.243  10.916   7.477 -0.0902 -0.4682 -0.3464
 1111YOPC   C4A14810  18.331  11.271   7.898 -0.3552  0.0679  0.0420
 1111YOPC   C1B14811  18.005  11.055   6.795  0.0115 -0.0845 -0.0019
 1111YOPC   C2B14812  17.643  11.286   7.036  0.0379 -0.1805 -0.0537
 1111YOPC   D3B14813  17.569  11.348   7.430 -0.4107 -0.2514  0.2624
 1111YOPC   C4B14814  17.452  11.723   7.461 -0.2353 -0.1687 -0.3507
 1112YOPC   NC314815  12.393   1.490   5.556  0.1501  0.4173  0.1020
 1112YOPC   PO414816  12.293   1.047   5.838  0.2596 -0.1314  0.0945
 1112YOPC   GL114817  12.157   1.067   6.328 -0.2335  0.0745  0.1107
 1112YOPC   GL214818  11.914   0.902   6.484  0.0709 -0.1518 -0.1758
 1112YOPC   C1A14819  12.310   1.102   6.787 -0.2387 -0.0230  0.2218
 1112YOPC   D2A14820  12.510   1.058   7.245  0.2056  0.0481 -0.2772
 1112YOPC   C3A14821  12.689   0.777   7.455  0.0498 -0.0372  0.2783
 1112YOPC   C4A14822  13.084   0.679   7.437 -0.1163  0.1413 -0.2059
 1112YOPC   C1B14823  11.912   0.997   7.001  0.2952 -0.1622 -0.0669
 1112YOPC   C2B14824  12.007   1.079   7.427  0.0387 -0.2405  0.0114
 1112YOPC   D3B14825  12.435   1.263   7.690 -0.0544 -0.0889 -0.0368
 1112YOPC   C4B14826  12.414   1.440   8.075  0.0936 -0.1268  0.2085
 1113YOPC   NC314827  14.355   4.455   6.360 -0.3563  0.0124 -0.2475
 1113YOPC   PO414828  13.897   4.692   6.145 -0.0634 -0.1799  0.0871
 1113YOPC   GL114829  13.840   4.760   6.645 -0.1503  0.0001 -0.1038
 1113YOPC   GL214830  14.092   4.405   6.766 -0.2150  0.2340 -0.1205
 1113YOPC   C1A14831  14.068   4.849   7.051  0.1463  0.0872 -0.1925
 1113YOPC   D2A14832  14.179   5.108   7.286  0.0851 -0.0247  0.1236
 1113YOPC   C3A14833  14.513   5.408   7.249 -0.2636 -0.2033 -0.1059
 1113YOPC   C4A14834  14.536   5.872   7.165 -0.0996  0.1455 -0.2768
 1113YOPC   C1B14835  14.134   4.057   7.143 -0.1775  0.1082  0.2230
 1113YOPC   C2B14836  14.361   3.712   7.447 -0.2036  0.4923 -0.1410
 1113YOPC   D3B14837  14.645   3.524   7.216  0.1143  0.0527  0.0641
 1113YOPC   C4B14838  14.414   3.499   6.879  0.1885 -0.2873 -0.1255
 1114YOPC   NC314839  13.438   5.482   6.225  0.0382 -0.2670 -0.0371
 1114YOPC   PO414840  13.287   5.921   6.331  0.2189 -0.3510 -0.1184
 1114YOPC   GL114841  12.901   5.801   6.542  0.0535  0.0057  0.0181
 1114YOPC   GL214842  12.935   5.444   6.567 -0.0515 -0.0122 -0.2141
 1114YOPC   C1A14843  12.568   5.751   6.843 -0.0573  0.1570  0.0668
 1114YOPC   D2A14844  12.443   5.836   7.241 -0.1161 -0.0994  0.0632
 1114YOPC   C3A14845  12.125   5.785   7.576  0.1309 -0.1106  0.2404
 1114YOPC   C4A14846  12.136   5.751   8.036 -0.0093 -0.1408 -0.1956
 1114YOPC   C1B14847  12.892   5.436   6.936  0.1891 -0.2225 -0.2337
 1114YOPC   C2B14848  12.850   5.616   7.373 -0.0270  0.0216 -0.1210
 1114YOPC   D3B14849  12.581   5.573   7.735 -0.0568  0.0930  0.3656
 1114YOPC   C4B14850  12.344   5.318   8.036 -0.3652 -0.2282 -0.0916
 1115YOPC   NC314851   2.551   1.408   6.018 -0.0042  0.2312 -0.0942
 1115YOPC   PO414852   2.085   1.456   6.044 -0.1214  0.1945 -0.2761
 1115YOPC   GL114853   2.089   1.307   6.420  0.0904  0.0919 -0.0459
 1115YOPC   GL214854   1.982   1.042   6.332 -0.0206 -0.1378 -0.1075
 1115YOPC   C1A14855   2.350   1.399   6.780  0.2166  0.1863 -0.0912
 1115YOPC   D2A14856   2.078   1.426   7.195 -0.3319 -0.2459  0.1512
 1115YOPC   C3A14857   2.165   1.728   7.516 -0.1487 -0.2367 -0.1613
 1115YOPC   C4A14858   2.032   1.662   7.759  0.3065  0.1562  0.1615
 1115YOPC   C1B14859   2.022   0.949   6.854  0.2340  0.2630 -0.1264
 1115YOPC   C2B14860   2.030   0.960   7.332 -0.0090  0.2259 -0.0989
 1115YOPC   D3B14861   1.978   0.572   7.605 -0.1185 -0.3367 -0.0332
 1115YOPC   C4B14862   1.853   0.137   7.731  0.1352 -0.1099 -0.0343
 1116YOPC   NC314863  12.364   6.038   5.493 -0.1650  0.2117  0.1445
 1116YOPC   PO414864  12.672   6.322   5.710  0.1019  0.0444 -0.1132
 1116YOPC   GL114865  12.469   6.576   6.036 -0.0358 -0.0293 -0.0842
 1116YOPC   GL214866  12.270   6.428   6.222 -0.1310 -0.0788 -0.2538
 1116YOPC   C1A14867  12.616   6.724   6.511 -0.0190  0.0880 -0.0682
 1116YOPC   D2A14868  12.640   6.935   6.869  0.3095  0.1227  0.0510
 1116YOPC   C3A14869  12.775   6.973   7.273 -0.1426  0.0959 -0.2057
 1116YOPC   C4A14870  12.999   6.685   7.464  0.0337  0.2825 -0.3906
 1116YOPC   C1B14871  12.360   6.210   6.611  0.2680  0.0424  0.3222
 1116YOPC   C2B14872  12.149   6.145   7.008  0.1359 -0.0976  0.1211
 1116YOPC   D3B14873  11.898   5.903   7.104  0.0503  0.0163  0.2084
 1116YOPC   C4B14874  11.611   5.588   6.762 -0.0466  0.1260  0.1242
 1117YOPC   NC314875  10.534  10.273   4.955  0.1815  0.2260  0.2856
 1117YOPC   PO414876  10.428  10.553   5.337 -0.2552 -0.1084  0.1389
 1117YOPC   GL114877  10.472  10.697   5.712 -0.1816 -0.0642 -0.1838
 1117YOPC   GL214878  10.205  10.631   5.930  0.1293  0.3690 -0.0993
 1117YOPC   C1A14879  10.746  10.851   6.080  0.0784 -0.2364 -0.1874
 1117YOPC   D2A14880  10.943  10.948   6.472  0.0560  0.1839 -0.1950
 1117YOPC   C3A14881  11.075  10.576   6.752  0.0343 -0.0167  0.1889
 1117YOPC   C4A14882  11.124  10.319   7.012  0.1785  0.0410 -0.1704
 1117YOPC   C1B14883  10.291  10.722   6.299  0.0807  0.1295 -0.0836
 1117YOPC   C2B14884  10.490  10.792   6.692 -0.0749  0.0960 -0.0451
 1117YOPC   D3B14885  10.196  10.908   7.094  0.0772 -0.0318  0.1551
 1117YOPC   C4B14886   9.832  10.669   7.237 -0.3256  0.1250  0.0509
 1118YOPC   NC314887   0.275  16.743   5.365 -0.1814  0.1342 -0.2216
 1118YOPC   PO414888   0.057  16.386   5.308  0.3196  0.0374  0.0154
 1118YOPC   GL114889   0.020  16.564   5.714  0.2175 -0.1736 -0.1406
 1118YOPC   GL214890  -0.039  16.901   5.755 -0.1594 -0.3904  0.1210
 1118YOPC   C1A14891   0.131  16.524   6.087 -0.3479 -0.1081 -0.1583
 1118YOPC   D2A14892   0.311  16.475   6.467  0.2955 -0.1112 -0.2096
 1118YOPC   C3A14893   0.233  16.474   6.902  0.0229 -0.1928 -0.0727
 1118YOPC   C4A14894   0.499  16.550   7.194 -0.0121  0.0552 -0.1039
 1118YOPC   C1B14895  -0.310  16.825   6.070  0.1816 -0.0118  0.1693
 1118YOPC   C2B14896  -0.654  16.739   6.318 -0.3407 -0.0353  0.2207
 1118YOPC   D3B14897  -0.788  16.312   6.375 -0.3448 -0.0405  0.0615
 1118YOPC   C4B14898  -0.798  15.960   6.049  0.1154 -0.2888  0.2006
 1119YOPC   NC314899  14.253  10.731   5.260 -0.2551 -0.1893 -0.3049
 1119YOPC   PO414900  14.307  11.120   5.592  0.1398 -0.2596 -0.0344
 1119YOPC   GL114901  14.288  11.097   6.124 -0.2191  0.0832 -0.1482
 1119YOPC   GL214902  14.581  11.170   6.272 -0.0023  0.1923 -0.0960
 1119YOPC   C1A14903  14.133  10.982   6.458  0.1197 -0.1596 -0.3334
 1119YOPC   D2A14904  14.017  10.738   6.777 -0.0746  0.0331 -0.0797
 1119YOPC   C3A14905  14.131  10.809   7.189 -0.1019 -0.2545  0.2162
 1119YOPC   C4A14906  14.112  10.623   7.647 -0.2027  0.1573 -0.2745
 1119YOPC   C1B14907  14.611  11.504   6.579 -0.1241 -0.3299 -0.4863
 1119YOPC   C2B14908  14.659  11.593   7.026  0.0442  0.1518  0.1409
 1119YOPC   D3B14909  14.387  11.852   7.126  0.1865  0.2061 -0.0154
 1119YOPC   C4B14910  14.274  12.230   7.343  0.1679  0.3300  0.2461
 1120YOPC   NC314911   1.797  15.531   5.287 -0.0293  0.2053 -0.1539
 1120YOPC   PO414912   2.070  15.431   5.675 -0.0555 -0.1349  0.1309
 1120YOPC   GL114913   2.232  15.434   6.038 -0.3758  0.0869 -0.2315
 1120YOPC   GL214914   2.456  15.563   6.197 -0.1259 -0.3469 -0.0860
 1120YOPC   C1A14915   2.251  15.157   6.425 -0.1664  0.1234  0.1293
 1120YOPC   D2A14916   2.313  15.052   6.888 -0.4242  0.2646 -0.4235
 1120YOPC   C3A14917   2.201  15.209   7.322  0.2561  0.1217 -0.4132
 1120YOPC   C4A14918   2.390  15.119   7.723  0.2058 -0.0961  0.1299
 1120YOPC   C1B14919   2.226  15.649   6.560  0.3179 -0.0018  0.4003
 1120YOPC   C2B14920   2.064  15.711   6.969 -0.1632 -0.0517  0.1528
 1120YOPC   D3B14921   1.897  15.566   7.418 -0.2405 -0.0455  0.0324
 1120YOPC   C4B14922   1.720  15.271   7.646  0.2203  0.2710 -0.1935
 1121YOPC   NC314923  12.171  15.862   5.490  0.1962 -0.1629 -0.3500
 1121YOPC   PO414924  11.851  15.493   5.427 -0.0464 -0.0753  0.0741
 1121YOPC   GL114925  11.777  15.480   5.867 -0.0274  0.2002 -0.0338
 1121YOPC   GL214926  12.067  15.431   6.008  0.0857  0.0089 -0.0297
 1121YOPC   C1A14927  11.701  15.560   6.304 -0.0153 -0.1528  0.0941
 1121YOPC   D2A14928  11.397  15.699   6.750 -0.1886 -0.0335 -0.4251
 1121YOPC   C3A14929  11.015  15.644   6.935 -0.0613  0.0454 -0.0864
 1121YOPC   C4A14930  11.047  15.231   6.943  0.0052  0.2803  0.0964
 1121YOPC   C1B14931  11.930  15.111   6.353  0.1302  0.0694  0.0618
 1121YOPC   C2B14932  12.095  14.867   6.624 -0.1829 -0.1687 -0.0912
 1121YOPC   D3B14933  12.009  14.852   7.008 -0.0885 -0.0892  0.0070
 1121YOPC   C4B14934  11.625  14.882   7.291 -0.1501  0.5135 -0.0076
 1122YOPC   NC314935  15.380   7.756   6.175  0.2012  0.0092 -0.2720
 1122YOPC   PO414936  15.149   8.052   6.284  0.1250  0.0685 -0.0287
 1122YOPC   GL114937  14.787   8.157   6.505 -0.1213  0.0884 -0.1406
 1122YOPC   GL214938  14.462   7.901   6.439 -0.1685  0.2827  0.0262
 1122YOPC   C1A14939  14.505   8.250   6.854 -0.0799  0.0343 -0.2097
 1122YOPC   D2A14940  14.424   8.254   7.234  0.1178 -0.2395  0.0771
 1122YOPC   C3A14941  14.470   8.204   7.622  0.1650 -0.0967 -0.1625
 1122YOPC   C4A14942  14.508   8.004   7.876  0.1178  0.0710 -0.0001
 1122YOPC   C1B14943  14.471   7.533   6.599 -0.0821  0.3402 -0.2963
 1122YOPC   C2B14944  14.071   7.295   6.670 -0.1503  0.0518 -0.1821
 1122YOPC   D3B14945  13.750   7.498   6.941 -0.0628 -0.2151 -0.1184
 1122YOPC   C4B14946  13.705   7.881   7.010 -0.2765 -0.2833 -0.0510
 1123YOPC   NC314947   3.638  17.136   5.739  0.1290  0.1493  0.2446
 1123YOPC   PO414948   3.649  17.642   5.741 -0.0997  0.1111 -0.3527
 1123YOPC   GL114949   3.758  17.503   6.157  0.0533  0.1335  0.1321
 1123YOPC   GL214950   3.800  17.166   6.183  0.0661 -0.1369  0.0098
 1123YOPC   C1A14951   3.569  17.516   6.508 -0.2763  0.2778 -0.0695
 1123YOPC   D2A14952   3.153  17.542   6.663  0.2433  0.0067 -0.0645
 1123YOPC   C3A14953   3.055  17.813   6.994  0.1182 -0.0009  0.0550
 1123YOPC   C4A14954   2.829  17.758   7.424 -0.2958  0.0263 -0.2045
 1123YOPC   C1B14955   3.986  17.249   6.554  0.1583 -0.1414  0.1265
 1123YOPC   C2B14956   3.848  17.176   6.876  0.1168  0.2880 -0.2315
 1123YOPC   D3B14957   3.520  17.484   7.096 -0.0012 -0.0222 -0.0815
 1123YOPC   C4B14958   3.537  17.924   6.906  0.1023  0.1080 -0.1447
 1124YOPC   NC314959   9.271   7.939   5.440  0.1428  0.3532  0.2032
 1124YOPC   PO414960   9.188   7.540   5.453 -0.1799 -0.2358  0.0899
 1124YOPC   GL114961   9.179   7.645   5.870 -0.1295  0.1422  0.2230
 1124YOPC   GL214962   9.139   7.989   5.913 -0.1866 -0.0210  0.0707
 1124YOPC   C1A14963   8.811   7.625   6.112 -0.1100  0.0137 -0.1281
 1124YOPC   D2A14964   8.442   7.726   6.383 -0.0461  0.1556 -0.0034
 1124YOPC   C3A14965   8.500   7.755   6.869  0.0379  0.0149  0.1087
 1124YOPC   C4A14966   8.727   7.897   7.140  0.0604  0.1000 -0.0558
 1124YOPC   C1B14967   9.086   8.273   6.316 -0.0554 -0.2332  0.0092
 1124YOPC   C2B14968   9.173   8.702   6.568  0.0209 -0.1361 -0.1423
 1124YOPC   D3B14969   9.261   8.781   6.954 -0.1529  0.0625  0.1625
 1124YOPC   C4B14970   9.520   8.560   7.206  0.1272 -0.0432  0.0778
 1125YOPC   NC314971   6.459   0.760   5.458 -0.2611  0.0951 -0.2478
 1125YOPC   PO414972   6.084   0.591   5.645  0.3145  0.0031 -0.0071
 1125YOPC   GL114973   6.199   0.973   5.876  0.2370 -0.2777  0.1076
 1125YOPC   GL214974   6.470   0.987   6.001  0.1231 -0.0426  0.0562
 1125YOPC   C1A14975   6.072   1.308   6.196 -0.0699 -0.0527  0.0042
 1125YOPC   D2A14976   5.904   1.472   6.456  0.0317  0.0441  0.0563
 1125YOPC   C3A14977   5.876   1.907   6.438  0.0322  0.2829  0.1147
 1125YOPC   C4A14978   5.663   2.100   6.087 -0.3018  0.2253 -0.0817
 1125YOPC   C1B14979   6.519   1.179   6.387  0.1148 -0.0072 -0.0440
 1125YOPC   C2B14980   6.512   1.214   6.867  0.0962 -0.0426  0.1569
 1125YOPC   D3B14981   6.174   1.483   6.917 -0.0211  0.2016  0.1725
 1125YOPC   C4B14982   6.122   1.790   7.151 -0.0908  0.0563  0.1027
 1126YOPC   NC314983  18.310   7.955   6.133 -0.1903  0.0654 -0.0802
 1126YOPC   PO414984  18.001   8.180   5.923  0.3919 -0.2161  0.0414
 1126YOPC   GL114985  17.962   8.485   6.244 -0.0282 -0.0035 -0.1350
 1126YOPC   GL214986  18.197   8.286   6.500 -0.0300  0.0713  0.3646
 1126YOPC   C1A14987  18.119   8.806   6.625  0.0173  0.2157 -0.1204
 1126YOPC   D2A14988  18.497   8.686   6.729 -0.1194  0.0739  0.0905
 1126YOPC   C3A14989  18.805   8.929   6.798 -0.1396  0.2031  0.4174
 1126YOPC   C4A14990  18.967   9.400   6.622 -0.0825  0.2218 -0.0701
 1126YOPC   C1B14991  18.025   8.387   6.860  0.2232 -0.2359  0.3626
 1126YOPC   C2B14992  18.178   8.728   7.138  0.0728 -0.1300 -0.1099
 1126YOPC   D3B14993  18.618   8.720   7.210 -0.3357 -0.0724  0.2614
 1126YOPC   C4B14994  18.903   8.572   7.522 -0.0430 -0.1122 -0.3614
 1127YOPC   NC314995  13.427   8.691   5.631  0.0087  0.0038  0.0248
 1127YOPC   PO414996  13.895   8.786   5.691 -0.0787  0.1480  0.1691
 1127YOPC   GL114997  13.822   8.989   5.976 -0.1351  0.3262 -0.1220
 1127YOPC   GL214998  14.143   8.942   6.121  0.3542  0.1145 -0.3194
 1127YOPC   C1A14999  13.715   9.041   6.360 -0.2050  0.0817  0.0679
 1127YOPC   D2A15000  13.345   9.215   6.568  0.1315 -0.0757 -0.1584
 1127YOPC   C3A15001  13.151   8.896   6.909 -0.3582 -0.0175  0.0510
 1127YOPC   C4A15002  13.063   8.761   7.291 -0.0410  0.1487  0.1273
 1127YOPC   C1B15003  14.202   8.907   6.609 -0.0627  0.0169  0.0567
 1127YOPC   C2B15004  14.030   8.996   7.141  0.0921 -0.0109  0.2540
 1127YOPC   D3B15005  13.803   8.886   7.524  0.0629 -0.2012 -0.1643
 1127YOPC   C4B15006  13.828   8.834   7.969 -0.1176  0.0697  0.1070
 1128YOPC   NC315007   8.373   4.593   5.687 -0.2439 -0.0397  0.0556
 1128YOPC   PO415008   8.761   4.481   5.886  0.1825 -0.1970  0.2400
 1128YOPC   GL115009   8.834   4.333   6.277 -0.0172 -0.1403 -0.1395
 1128YOPC   GL215010   8.585   4.257   6.413 -0.0851 -0.2275 -0.4402
 1128YOPC   C1A15011   9.076   4.230   6.598  0.0932  0.0726 -0.0517
 1128YOPC   D2A15012   9.193   4.206   7.119  0.1832 -0.0084  0.1221
 1128YOPC   C3A15013   9.417   3.972   7.431  0.1090 -0.0142  0.3450
 1128YOPC   C4A15014   9.640   3.594   7.468 -0.1235 -0.1008  0.1207
 1128YOPC   C1B15015   8.694   4.167   6.886  0.2327 -0.1071 -0.0623
 1128YOPC   C2B15016   8.531   4.142   7.281 -0.0154  0.0220  0.0289
 1128YOPC   D3B15017   8.861   4.103   7.454  0.0182 -0.1410 -0.3769
 1128YOPC   C4B15018   8.727   4.135   7.950 -0.1766  0.0625 -0.0273
 1129YOPC   NC315019   5.661  11.575   5.372 -0.0771 -0.2474 -0.1072
 1129YOPC   PO415020   5.901  11.852   5.683  0.0635 -0.1144 -0.0030
 1129YOPC   GL115021   5.878  11.745   6.111  0.2502  0.1562  0.1071
 1129YOPC   GL215022   5.686  11.522   6.227  0.1090  0.2176  0.2446
 1129YOPC   C1A15023   5.848  11.983   6.555  0.0235  0.0366  0.0070
 1129YOPC   D2A15024   5.716  12.006   6.844  0.2758  0.0076  0.0550
 1129YOPC   C3A15025   5.581  11.747   7.099 -0.1092  0.0004 -0.1149
 1129YOPC   C4A15026   5.550  11.304   7.034  0.0400 -0.3286 -0.0456
 1129YOPC   C1B15027   5.537  11.559   6.556  0.0208  0.2019 -0.0073
 1129YOPC   C2B15028   5.102  11.416   6.902  0.2639 -0.4625  0.0150
 1129YOPC   D3B15029   5.175  11.361   7.399  0.2880 -0.0449  0.0479
 1129YOPC   C4B15030   5.381  11.765   7.582 -0.0563 -0.2571  0.0418
 1130YOPC   NC315031   5.957   6.843   6.078  0.0545  0.3220 -0.1284
 1130YOPC   PO415032   5.750   6.445   5.987  0.1682 -0.0333  0.0776
 1130YOPC   GL115033   5.731   6.401   6.445  0.0159  0.0988  0.0574
 1130YOPC   GL215034   5.587   6.525   6.541 -0.2854  0.1655 -0.2352
 1130YOPC   C1A15035   5.770   6.025   6.685 -0.1176 -0.1672 -0.0947
 1130YOPC   D2A15036   5.637   5.637   6.691  0.2850  0.0302  0.0204
 1130YOPC   C3A15037   5.426   5.338   6.854 -0.0500 -0.1862 -0.0119
 1130YOPC   C4A15038   5.162   5.247   7.178 -0.0852  0.3057 -0.1610
 1130YOPC   C1B15039   5.570   6.540   6.976  0.1829  0.2032  0.1235
 1130YOPC   C2B15040   5.776   6.264   7.253 -0.2156  0.2338 -0.2803
 1130YOPC   D3B15041   5.883   6.467   7.670 -0.1252  0.2204 -0.1049
 1130YOPC   C4B15042   6.108   6.599   7.928  0.1463 -0.2188  0.2701
 1131YOPC   NC315043  11.423  15.229   5.512  0.1231  0.0190  0.1406
 1131YOPC   PO415044  11.329  15.540   5.628  0.0035 -0.0007  0.0838
 1131YOPC   GL115045  10.995  15.757   5.860  0.0789 -0.1184  0.3665
 1131YOPC   GL215046  11.140  16.107   5.917  0.1162  0.0616 -0.1229
 1131YOPC   C1A15047  10.704  15.967   6.164 -0.1881  0.3705 -0.1707
 1131YOPC   D2A15048  10.318  15.662   6.365  0.0110 -0.0504  0.0895
 1131YOPC   C3A15049  10.220  15.385   6.706 -0.0925 -0.1147 -0.1444
 1131YOPC   C4A15050  10.411  15.021   7.069 -0.1362 -0.0882  0.2178
 1131YOPC   C1B15051  11.255  16.489   6.087  0.2242  0.0351 -0.3911
 1131YOPC   C2B15052  11.440  16.686   6.436  0.1716 -0.0045 -0.1319
 1131YOPC   D3B15053  11.776  16.940   6.480  0.3941  0.2466 -0.1531
 1131YOPC   C4B15054  12.015  17.324   6.654  0.1445 -0.0063  0.2279
 1132YOPC   NC315055   2.293   0.925   5.852 -0.0451 -0.0245  0.1145
 1132YOPC   PO415056   2.743   1.002   5.789  0.4869  0.0137 -0.0711
 1132YOPC   GL115057   2.814   1.057   6.232 -0.0851 -0.2280  0.0286
 1132YOPC   GL215058   3.183   1.062   6.315  0.1093  0.0753 -0.0109
 1132YOPC   C1A15059   2.685   1.056   6.667 -0.2816 -0.2499 -0.0576
 1132YOPC   D2A15060   2.550   0.907   7.079 -0.1262 -0.0553 -0.2201
 1132YOPC   C3A15061   2.413   0.703   7.465  0.0113  0.0560 -0.1394
 1132YOPC   C4A15062   2.341   0.751   7.948  0.0848 -0.2009  0.1780
 1132YOPC   C1B15063   3.592   0.828   6.586  0.0318  0.1304  0.2732
 1132YOPC   C2B15064   3.812   0.718   7.013 -0.2100  0.1709  0.3724
 1132YOPC   D3B15065   3.586   0.583   7.367 -0.3309  0.3243  0.2406
 1132YOPC   C4B15066   3.307   0.643   7.625  0.3338  0.2065  0.3187
 1133YOPC   NC315067   2.934   0.643   5.425  0.3083  0.1228 -0.2069
 1133YOPC   PO415068   3.342   0.575   5.546 -0.1174  0.1922  0.2129
 1133YOPC   GL115069   3.090   0.619   5.892 -0.0366 -0.1761  0.2503
 1133YOPC   GL215070   3.298   0.618   6.161  0.0329 -0.3518  0.2286
 1133YOPC   C1A15071   2.793   0.435   6.222  0.1240  0.1754 -0.1351
 1133YOPC   D2A15072   2.536   0.140   6.404 -0.0152 -0.0863  0.3751
 1133YOPC   C3A15073   2.716  -0.168   6.503  0.0158 -0.0021 -0.0653
 1133YOPC   C4A15074   2.777  -0.258   6.912  0.0032  0.2117  0.0733
 1133YOPC   C1B15075   3.116   0.684   6.585  0.1986 -0.0140 -0.0779
 1133YOPC   C2B15076   3.253   0.666   6.967  0.1057  0.0787 -0.1208
 1133YOPC   D3B15077   3.222   0.293   7.208 -0.1932  0.2314  0.0084
 1133YOPC   C4B15078   3.003   0.244   7.480  0.1752 -0.1612 -0.1425
 1134YOPC   NC315079   0.981   5.349   5.913 -0.4272 -0.2438  0.0108
 1134YOPC   PO415080   0.740   5.846   5.894 -0.1806  0.2572 -0.3500
 1134YOPC   GL115081   0.911   5.839   6.323 -0.2560  0.0269 -0.3140
 1134YOPC   GL215082   0.979   5.535   6.410 -0.1721  0.0284  0.0061
 1134YOPC   C1A15083   1.157   6.180   6.579  0.0748  0.1054 -0.1738
 1134YOPC   D2A15084   1.464   6.246   6.820  0.1525 -0.2065  0.0744
 1134YOPC   C3A15085   1.879   6.192   6.820 -0.0903  0.1283  0.4226
 1134YOPC   C4A15086   2.279   6.025   6.605 -0.2272 -0.1172  0.1261
 1134YOPC   C1B15087   0.979   5.716   6.784 -0.0509  0.2381 -0.0141
 1134YOPC   C2B15088   1.155   5.946   7.009 -0.4501  0.2028 -0.1582
 1134YOPC   D3B15089   1.139   6.411   7.143  0.1260  0.2718 -0.1596
 1134YOPC   C4B15090   1.087   6.643   6.814  0.0785 -0.3331  0.0709
 1135YOPC   NC315091  12.665  18.378   5.754  0.4504 -0.0204  0.0895
 1135YOPC   PO415092  13.110  18.572   5.694 -0.0658 -0.0026 -0.0632
 1135YOPC   GL115093  12.849  18.747   6.089 -0.4845  0.2604 -0.2157
 1135YOPC   GL215094  12.588  18.624   6.207  0.0670  0.1372  0.3673
 1135YOPC   C1A15095  12.971  18.849   6.466  0.0826  0.2152 -0.2409
 1135YOPC   D2A15096  13.220  18.817   6.883  0.1767  0.3587 -0.1798
 1135YOPC   C3A15097  13.075  18.588   7.321  0.2484 -0.0542  0.1996
 1135YOPC   C4A15098  12.835  18.398   7.720  0.2430 -0.0097 -0.0878
 1135YOPC   C1B15099  12.500  18.642   6.675 -0.1249  0.1780 -0.0218
 1135YOPC   C2B15100  12.688  18.841   6.993 -0.1918  0.1048  0.0310
 1135YOPC   D3B15101  12.892  19.145   6.910  0.1283  0.3038 -0.0998
 1135YOPC   C4B15102  12.784  19.511   6.724  0.1600 -0.0416  0.0382
 1136YOPC   NC315103   9.454  10.488   5.325  0.4645 -0.1771 -0.0263
 1136YOPC   PO415104   9.234  10.844   5.446  0.3132  0.1074  0.2123
 1136YOPC   GL115105   9.072  10.973   5.751 -0.0132 -0.1477 -0.2094
 1136YOPC   GL215106   8.897  10.805   5.936  0.0506  0.0523  0.0588
 1136YOPC   C1A15107   9.149  11.337   6.130  0.2013 -0.2643  0.0181
 1136YOPC   D2A15108   9.412  11.633   6.441 -0.1813  0.3376 -0.3958
 1136YOPC   C3A15109   9.319  12.032   6.722  0.1809  0.5226  0.0832
 1136YOPC   C4A15110   9.310  12.391   6.940  0.0861  0.1562  0.2253
 1136YOPC   C1B15111   9.221  10.843   6.318  0.2869 -0.2146  0.2751
 1136YOPC   C2B15112   9.197  10.833   6.775  0.0317  0.1515  0.1039
 1136YOPC   D3B15113   8.835  10.868   7.068 -0.1034 -0.0509 -0.2214
 1136YOPC   C4B15114   8.735  10.880   7.516  0.2486 -0.0089  0.2011
 1137YOPC   NC315115   5.558  14.232   5.478 -0.0023 -0.1704  0.0633
 1137YOPC   PO415116   5.234  13.939   5.616 -0.0063  0.2332 -0.1762
 1137YOPC   GL115117   5.430  13.834   5.973  0.2783 -0.0187  0.1701
 1137YOPC   GL215118   5.703  13.618   5.953 -0.0428 -0.2848  0.1552
 1137YOPC   C1A15119   5.343  13.860   6.427  0.1613 -0.3718 -0.0905
 1137YOPC   D2A15120   5.244  13.882   6.838  0.0540  0.0002  0.0478
 1137YOPC   C3A15121   5.454  14.010   7.131  0.4304 -0.4730  0.3343
 1137YOPC   C4A15122   5.731  14.133   7.454 -0.0634 -0.1600  0.1937
 1137YOPC   C1B15123   5.738  13.449   6.323 -0.2797  0.2541 -0.0956
 1137YOPC   C2B15124   5.751  13.655   6.729  0.0539  0.1533  0.1598
 1137YOPC   D3B15125   5.956  13.743   7.158  0.3202 -0.2521  0.1077
 1137YOPC   C4B15126   6.385  13.728   7.300  0.0669  0.1677 -0.2980
 1138YOPC   NC315127   3.929   0.002   5.534  0.0520 -0.1046  0.0307
 1138YOPC   PO415128   4.299  -0.283   5.516  0.2584 -0.1362 -0.2853
 1138YOPC   GL115129   4.399  -0.434   5.888  0.1101  0.0190  0.1155
 1138YOPC   GL215130   4.405  -0.742   6.117 -0.2338  0.1358  0.2082
 1138YOPC   C1A15131   4.302  -0.268   6.304  0.0378 -0.1782 -0.0708
 1138YOPC   D2A15132   4.399   0.072   6.514 -0.0230 -0.2202  0.0964
 1138YOPC   C3A15133   4.541   0.031   6.954  0.1775  0.4067  0.0767
 1138YOPC   C4A15134   4.701  -0.139   7.316  0.0525 -0.0194  0.0757
 1138YOPC   C1B15135   4.230  -1.096   6.094 -0.2947  0.4974 -0.2404
 1138YOPC   C2B15136   4.338  -1.513   6.333  0.2176  0.1259  0.2040
 1138YOPC   D3B15137   4.294  -1.487   6.837  0.1264  0.0061 -0.1009
 1138YOPC   C4B15138   4.209  -1.436   7.249 -0.0321 -0.1597 -0.0925
 1139YOPC   NC315139  12.406  13.225   5.595 -0.1391  0.3090  0.3416
 1139YOPC   PO415140  12.359  12.727   5.646 -0.1974  0.0576  0.1942
 1139YOPC   GL115141  12.293  12.455   6.010  0.2546 -0.1111  0.1314
 1139YOPC   GL215142  12.315  12.133   6.043 -0.2535 -0.1190  0.1686
 1139YOPC   C1A15143  12.166  12.488   6.507  0.2267 -0.3564 -0.1418
 1139YOPC   D2A15144  12.201  12.534   6.890  0.2005 -0.0317 -0.1714
 1139YOPC   C3A15145  12.029  12.295   7.186 -0.2080  0.0241  0.0256
 1139YOPC   C4A15146  11.850  12.081   7.494 -0.0963 -0.2620 -0.0262
 1139YOPC   C1B15147  12.568  12.177   6.441  0.1372  0.1676 -0.3682
 1139YOPC   C2B15148  12.846  12.105   6.663  0.0487 -0.0313  0.4253
 1139YOPC   D3B15149  12.781  12.370   6.937 -0.0227  0.1509  0.0967
 1139YOPC   C4B15150  12.506  12.392   7.260  0.0943  0.0168 -0.0305
 1140YOPC   NC315151   0.927   3.269   5.690  0.3738  0.0876  0.1528
 1140YOPC   PO415152   0.915   3.568   6.043 -0.1840 -0.1641 -0.2568
 1140YOPC   GL115153   1.079   3.690   6.350 -0.1308 -0.2009 -0.1086
 1140YOPC   GL215154   1.351   3.597   6.534  0.0209 -0.0405  0.0471
 1140YOPC   C1A15155   0.921   3.746   6.839 -0.1569 -0.3134  0.3514
 1140YOPC   D2A15156   0.584   3.636   7.205 -0.0568  0.0678  0.1968
 1140YOPC   C3A15157   0.568   3.257   7.348  0.1443  0.0641  0.0921
 1140YOPC   C4A15158   0.215   2.971   7.426  0.0682  0.1326 -0.0340
 1140YOPC   C1B15159   1.394   3.563   6.981  0.2610 -0.5329 -0.2435
 1140YOPC   C2B15160   1.649   3.622   7.330  0.0997 -0.0307  0.1678
 1140YOPC   D3B15161   1.644   3.972   7.622  0.0332  0.3582 -0.1010
 1140YOPC   C4B15162   1.534   4.165   7.958 -0.1407  0.1053 -0.1311
 1141YOPC   NC315163   8.450  14.973   5.385  0.0985 -0.0997  0.1183
 1141YOPC   PO415164   8.115  15.175   5.378 -0.4660  0.0123  0.1655
 1141YOPC   GL115165   7.993  15.342   5.758  0.0029 -0.1304  0.3214
 1141YOPC   GL215166   7.761  15.545   5.846  0.1106 -0.0773 -0.0031
 1141YOPC   C1A15167   7.819  15.102   6.148  0.2036 -0.1206  0.0731
 1141YOPC   D2A15168   7.724  15.104   6.614 -0.2496 -0.1804  0.1058
 1141YOPC   C3A15169   7.418  14.862   6.843 -0.0111 -0.1054 -0.1393
 1141YOPC   C4A15170   7.024  14.984   7.114 -0.1109 -0.1000 -0.0025
 1141YOPC   C1B15171   7.568  15.732   6.147  0.0835  0.3658 -0.3206
 1141YOPC   C2B15172   7.229  15.854   6.479  0.0583  0.0093  0.1941
 1141YOPC   D3B15173   6.881  15.622   6.307 -0.0306  0.2259  0.1021
 1141YOPC   C4B15174   6.544  15.450   5.874  0.2236  0.0131 -0.3698
 1142YOPC   NC315175  17.249  17.057   5.799  0.0027 -0.1335 -0.0512
 1142YOPC   PO415176  17.305  17.430   5.632 -0.0376 -0.1700 -0.1674
 1142YOPC   GL115177  17.330  17.384   6.117 -0.3590  0.0072 -0.1097
 1142YOPC   GL215178  17.494  17.166   6.340 -0.1517  0.3442 -0.0593
 1142YOPC   C1A15179  17.212  17.554   6.444 -0.0982 -0.3157  0.0011
 1142YOPC   D2A15180  16.875  17.574   6.724  0.1315 -0.0470  0.1791
 1142YOPC   C3A15181  16.735  17.563   7.092  0.1734  0.0811 -0.1256
 1142YOPC   C4A15182  16.887  17.559   7.564  0.2163 -0.3636  0.1165
 1142YOPC   C1B15183  17.763  17.014   6.750  0.3317  0.3013 -0.1451
 1142YOPC   C2B15184  17.903  16.801   7.053 -0.5287 -0.1015  0.2079
 1142YOPC   D3B15185  17.938  16.979   7.479 -0.1201 -0.1409 -0.1977
 1142YOPC   C4B15186  17.810  17.322   7.796 -0.1534 -0.1130 -0.0945
 1143YOPC   NC315187  15.937   6.081   6.345  0.1239  0.1134 -0.1086
 1143YOPC   PO415188  16.368   6.117   6.248  0.0669  0.3884 -0.0177
 1143YOPC   GL115189  16.532   6.319   6.508  0.0984 -0.0760  0.1101
 1143YOPC   GL215190  16.752   6.123   6.698  0.1691 -0.1577  0.0304
 1143YOPC   C1A15191  16.510   6.449   6.944 -0.2298 -0.0964  0.0286
 1143YOPC   D2A15192  16.475   6.660   7.377 -0.3427  0.1580  0.0733
 1143YOPC   C3A15193  16.571   6.579   7.824 -0.0246 -0.1042 -0.1123
 1143YOPC   C4A15194  16.697   6.212   8.065  0.0855  0.1387  0.1665
 1143YOPC   C1B15195  16.646   6.075   7.155  0.1098  0.3789 -0.1814
 1143YOPC   C2B15196  16.748   6.161   7.557 -0.4228  0.3163  0.0361
 1143YOPC   D3B15197  17.073   5.999   7.739 -0.0008 -0.0462  0.2021
 1143YOPC   C4B15198  17.283   6.045   8.168 -0.2115 -0.0446  0.4374
 1144ERGO   ROH15199   8.858  17.611   9.123  0.0175  0.2022  0.0139
 1144ERGO    R115200   8.999  17.568   8.881  0.0166  0.2481  0.0048
 1144ERGO    R215201   8.938  17.361   8.708  0.1846  0.1234  0.0907
 1144ERGO    R315202   8.917  17.562   8.526 -0.0422  0.0399  0.0208
 1144ERGO    R415203   9.014  17.331   8.373  0.2866  0.1091  0.1151
 1144ERGO    R515204   9.105  17.529   8.381  0.0300  0.2333  0.0680
 1144ERGO    C115205   9.039  17.503   8.006  0.1332  0.0224  0.0638
 1144ERGO    C215206   9.078  17.700   7.696 -0.1548 -0.3228 -0.2121
 1145ERGO   ROH15207   4.184  16.465   6.610  0.0566  0.2344 -0.1262
 1145ERGO    R115208   4.294  16.486   6.870 -0.0437  0.3391 -0.0911
 1145ERGO    R215209   4.531  16.362   6.942 -0.2226  0.1157  0.1355
 1145ERGO    R315210   4.602  16.614   7.017  0.0418  0.1047 -0.0645
 1145ERGO    R415211   4.735  16.438   7.211 -0.3752  0.1268  0.2501
 1145ERGO    R515212   4.604  16.606   7.257 -0.1979  0.3543 -0.0513
 1145ERGO    C115213   4.921  16.718   7.437 -0.2160  0.1227  0.1290
 1145ERGO    C215214   5.225  16.604   7.441  0.0410 -0.0323 -0.0693
 1146ERGO   ROH15215  12.397  14.893   6.256 -0.1384  0.1080  0.1860
 1146ERGO    R115216  12.591  14.764   6.416  0.0597  0.1898  0.0172
 1146ERGO    R215217  12.782  14.904   6.560 -0.0950  0.2923  0.1313
 1146ERGO    R315218  12.683  14.760   6.768  0.1218 -0.0597 -0.0011
 1146ERGO    R415219  12.921  14.894   6.876 -0.1300  0.2801  0.1456
 1146ERGO    R515220  12.878  14.680   6.883  0.2481  0.1912 -0.0373
 1146ERGO    C115221  12.910  14.753   7.256  0.0529 -0.0573  0.0299
 1146ERGO    C215222  13.112  14.929   7.444  0.2253 -0.0854  0.1913
 1147ERGO   ROH15223   9.130   2.226   9.812 -0.0081 -0.1910 -0.0213
 1147ERGO    R115224   9.024   2.162   9.558  0.0056 -0.2007 -0.0247
 1147ERGO    R215225   9.170   2.188   9.324 -0.0268 -0.0750 -0.0328
 1147ERGO    R315226   9.100   1.927   9.291  0.1135 -0.1078 -0.0759
 1147ERGO    R415227   9.179   2.018   9.024 -0.2552  0.0742 -0.1273
 1147ERGO    R515228   8.991   1.922   9.078 -0.1289 -0.0798  0.0445
 1147ERGO    C115229   9.119   1.674   8.817 -0.2563  0.1303 -0.2227
 1147ERGO    C215230   8.956   1.511   8.701 -0.0120 -0.1312 -0.0023
 1148ERGO   ROH15231  16.395   2.063   9.710 -0.2650 -0.2991  0.1198
 1148ERGO    R115232  16.473   2.043   9.439 -0.0209 -0.3041  0.1869
 1148ERGO    R215233  16.418   1.821   9.284 -0.2019 -0.1684  0.0393
 1148ERGO    R315234  16.307   2.004   9.118  0.2340  0.0760  0.0044
 1148ERGO    R415235  16.329   1.761   8.956 -0.2893  0.0153  0.0290
 1148ERGO    R515236  16.406   1.958   8.904  0.1644 -0.1579  0.0265
 1148ERGO    C115237  16.173   1.898   8.608  0.0687  0.3516 -0.0096
 1148ERGO    C215238  16.167   1.690   8.298 -0.0573  0.0620  0.0807
 1149ERGO   ROH15239   8.950  12.535   9.363  0.0662  0.0836  0.1162
 1149ERGO    R115240   8.999  12.714   9.149  0.0195  0.0459  0.0720
 1149ERGO    R215241   9.099  12.631   8.905  0.1339  0.0249  0.1194
 1149ERGO    R315242   8.880  12.758   8.808  0.0822 -0.1344  0.0271
 1149ERGO    R415243   9.050  12.717   8.574  0.2215  0.0276  0.1076
 1149ERGO    R515244   8.965  12.906   8.640  0.0439 -0.0494  0.0874
 1149ERGO    C115245   8.815  12.886   8.290  0.2239 -0.1204  0.0142
 1149ERGO    C215246   8.712  12.960   7.931  0.0662  0.0069 -0.0045
 1150ERGO   ROH15247   0.506  14.716   9.591  0.0357  0.0385 -0.0372
 1150ERGO    R115248   0.413  14.683   9.326 -0.1034  0.0504  0.0091
 1150ERGO    R215249   0.470  14.863   9.125 -0.1418  0.0182 -0.0309
 1150ERGO    R315250   0.562  14.642   8.997 -0.2753 -0.0204 -0.0616
 1150ERGO    R415251   0.484  14.826   8.782 -0.2231  0.0359 -0.0360
 1150ERGO    R515252   0.418  14.619   8.807 -0.3225  0.0654 -0.0377
 1150ERGO    C115253   0.579  14.597   8.461 -0.3956  0.0099 -0.0679
 1150ERGO    C215254   0.691  14.715   8.095 -0.2161 -0.2910  0.2445
 1151ERGO   ROH15255  11.786  14.150   6.128 -0.0921  0.0594 -0.0301
 1151ERGO    R115256  11.727  14.264   6.380 -0.0520  0.0913 -0.0350
 1151ERGO    R215257  11.684  14.112   6.607 -0.0353  0.1187 -0.0123
 1151ERGO    R315258  11.880  14.269   6.710 -0.0101  0.1153 -0.0551
 1151ERGO    R415259  11.720  14.189   6.942  0.0940  0.0457 -0.0087
 1151ERGO    R515260  11.773  14.392   6.884  0.0487  0.0636  0.0175
 1151ERGO    C115261  11.925  14.382   7.234  0.1930 -0.0001 -0.0468
 1151ERGO    C215262  11.827  14.472   7.598  0.0083 -0.0760  0.0599
 1152ERGO   ROH15263  15.447   4.763  10.077 -0.1436 -0.0777 -0.0269
 1152ERGO    R115264  15.394   4.842   9.811 -0.0330 -0.1817 -0.0796
 1152ERGO    R215265  15.550   5.026   9.676 -0.1134 -0.0622 -0.0057
 1152ERGO    R315266  15.569   4.827   9.491  0.2034 -0.0823  0.0417
 1152ERGO    R415267  15.623   5.074   9.342 -0.3117 -0.0040 -0.0424
 1152ERGO    R515268  15.474   4.922   9.293 -0.0471 -0.3069  0.0453
 1152ERGO    C115269  15.684   4.916   8.974 -0.1298  0.0110 -0.0194
 1152ERGO    C215270  15.888   4.982   8.677  0.0068 -0.0436 -0.0699
 1153ERGO   ROH15271   3.582   6.735   6.634  0.0419  0.0041  0.1027
 1153ERGO    R115272   3.667   6.597   6.867 -0.0224 -0.0291  0.1072
 1153ERGO    R215273   3.933   6.571   6.935 -0.0324 -0.1543  0.1071
 1153ERGO    R315274   3.849   6.679   7.170  0.0186 -0.1051  0.1026
 1153ERGO    R415275   4.062   6.492   7.246  0.0964 -0.0196  0.0891
 1153ERGO    R515276   3.859   6.497   7.326  0.1235 -0.0526  0.1568
 1153ERGO    C115277   4.059   6.546   7.647  0.2193  0.1049  0.0743
 1153ERGO    C215278   4.330   6.607   7.860 -0.0980  0.1165  0.2047
 1154ERGO   ROH15279  17.159  12.427   9.684  0.0034  0.1444 -0.1411
 1154ERGO    R115280  17.085  12.496   9.419  0.0598  0.1247 -0.1629
 1154ERGO    R215281  17.271  12.568   9.226  0.1124  0.0288 -0.1567
 1154ERGO    R315282  17.152  12.368   9.085  0.0596  0.0416 -0.1290
 1154ERGO    R415283  17.244  12.556   8.882 -0.0381  0.0509 -0.1462
 1154ERGO    R515284  17.043  12.479   8.904 -0.0191  0.0461 -0.0713
 1154ERGO    C115285  17.118  12.362   8.549 -0.1751  0.0758 -0.1140
 1154ERGO    C215286  17.160  12.331   8.252  0.0822 -0.0184  0.1904
 1155ERGO   ROH15287   9.008   4.831   6.064  0.1232  0.0043 -0.0046
 1155ERGO    R115288   9.037   4.914   6.333 -0.0635 -0.0618  0.0377
 1155ERGO    R215289   9.004   4.742   6.547  0.0518 -0.1806 -0.0355
 1155ERGO    R315290   9.252   4.831   6.615 -0.0666  0.0712  0.0790
 1155ERGO    R415291   9.169   4.662   6.840  0.0262 -0.0543  0.0137
 1155ERGO    R515292   9.239   4.868   6.851 -0.1968  0.0172  0.0791
 1155ERGO    C115293   9.498   4.699   7.074 -0.0999  0.2556  0.1499
 1155ERGO    C215294   9.622   4.434   7.238 -0.1481 -0.0675 -0.2685
 1156ERGO   ROH15295  15.129  11.156   6.202 -0.1957 -0.4640 -0.0372
 1156ERGO    R115296  15.074  11.036   6.452 -0.0370 -0.2548  0.1006
 1156ERGO    R215297  15.215  11.097   6.682 -0.0091  0.0699 -0.0064
 1156ERGO    R315298  14.967  11.147   6.782 -0.0131 -0.0025  0.0266
 1156ERGO    R415299  15.143  11.145   7.017  0.0942  0.4467 -0.0322
 1156ERGO    R515300  14.961  11.028   6.989  0.1728  0.2559  0.1914
 1156ERGO    C115301  14.868  11.221   7.305  0.1507  0.5983 -0.0161
 1156ERGO    C215302  14.786  11.358   7.599 -0.2235  0.0784  0.0866
 1157ERGO   ROH15303  11.588  10.263   6.386 -0.2816  0.1565  0.0995
 1157ERGO    R115304  11.523  10.299   6.659 -0.2520 -0.1663  0.1533
 1157ERGO    R215305  11.528  10.092   6.842  0.2012 -0.3026  0.0024
 1157ERGO    R315306  11.693  10.259   6.979 -0.0549 -0.0911  0.0591
 1157ERGO    R415307  11.649  10.033   7.160  0.3350 -0.2494 -0.0383
 1157ERGO    R515308  11.618  10.244   7.206 -0.0065 -0.3171  0.0606
 1157ERGO    C115309  11.874  10.155   7.474  0.1724 -0.0199 -0.0087
 1157ERGO    C215310  12.012   9.925   7.778 -0.1253 -0.0170 -0.1760
 1158ERGO   ROH15311   7.446  12.837   5.868  0.2602 -0.1895  0.0821
 1158ERGO    R115312   7.383  12.873   6.141  0.0268 -0.0135  0.0084
 1158ERGO    R215313   7.555  12.800   6.345 -0.2425 -0.1031  0.2080
 1158ERGO    R315314   7.520  13.058   6.422 -0.0621 -0.0343  0.0671
 1158ERGO    R415315   7.573  12.914   6.671 -0.0316  0.0809  0.1347
 1158ERGO    R515316   7.403  13.044   6.630  0.0203  0.1541  0.1317
 1158ERGO    C115317   7.550  13.223   6.933  0.2606  0.2525 -0.0403
 1158ERGO    C215318   7.462  13.390   7.150  0.1910  0.0720 -0.0024
 1159ERGO   ROH15319   2.084   4.534  10.046 -0.0750  0.1630  0.0132
 1159ERGO    R115320   2.014   4.622   9.786 -0.1291  0.1102  0.0099
 1159ERGO    R215321   2.201   4.715   9.605 -0.1950  0.2962  0.0359
 1159ERGO    R315322   2.092   4.525   9.444  0.0020  0.1999  0.0133
 1159ERGO    R415323   2.047   4.777   9.302 -0.2651  0.1747  0.0457
 1159ERGO    R515324   1.896   4.629   9.353 -0.1106  0.0075  0.0291
 1159ERGO    C115325   1.855   4.635   8.974 -0.1210  0.0136  0.0303
 1159ERGO    C215326   1.729   4.716   8.535 -0.0374  0.0222  0.3542
 1160ERGO   ROH15327   8.464  11.014   9.783  0.0114 -0.0300  0.1743
 1160ERGO    R115328   8.468  10.895   9.526 -0.1021  0.0667  0.1277
 1160ERGO    R215329   8.368  11.022   9.302  0.0811  0.2787  0.1666
 1160ERGO    R315330   8.616  10.969   9.203  0.0315  0.0143  0.1754
 1160ERGO    R415331   8.445  10.993   8.966  0.0621  0.2116  0.1675
 1160ERGO    R515332   8.576  10.826   9.015 -0.1184  0.0639  0.1661
 1160ERGO    C115333   8.722  10.926   8.677  0.0046 -0.0756  0.1761
 1160ERGO    C215334   8.721  10.928   8.325 -0.2526  0.1239 -0.0445
 1161ERGO   ROH15335  12.000  17.395   9.878 -0.0846 -0.0329  0.0187
 1161ERGO    R115336  11.946  17.537   9.639  0.0850  0.0595  0.0340
 1161ERGO    R215337  12.145  17.662   9.493  0.2465 -0.2083  0.0170
 1161ERGO    R315338  12.044  17.513   9.289  0.0092 -0.0574  0.0208
 1161ERGO    R415339  12.169  17.743   9.157  0.1517 -0.1302  0.0288
 1161ERGO    R515340  11.964  17.674   9.131  0.0750  0.0628  0.1092
 1161ERGO    C115341  12.088  17.650   8.771 -0.1263  0.0570  0.0393
 1161ERGO    C215342  12.251  17.638   8.428  0.2853 -0.0687  0.1684
 1162ERGO   ROH15343   5.042   5.191   9.966 -0.3540  0.1807 -0.0947
 1162ERGO    R115344   5.141   5.203   9.701 -0.2395  0.1858 -0.0525
 1162ERGO    R215345   5.130   4.988   9.528 -0.0001  0.1316 -0.0056
 1162ERGO    R315346   5.004   5.166   9.366 -0.0581 -0.0014 -0.1077
 1162ERGO    R415347   5.128   4.974   9.183  0.0163 -0.0573  0.0016
 1162ERGO    R515348   5.151   5.191   9.178 -0.0609 -0.0511 -0.1158
 1162ERGO    C115349   5.009   5.132   8.829 -0.0286 -0.2922 -0.0901
 1162ERGO    C215350   4.873   5.205   8.560 -0.1785 -0.0136  0.0635
 1163ERGO   ROH15351  11.773  14.399   9.435 -0.1155 -0.0248  0.0350
 1163ERGO    R115352  11.758  14.261   9.188 -0.0027 -0.0455  0.0391
 1163ERGO    R215353  11.616  14.357   8.972  0.0477 -0.0919 -0.0165
 1163ERGO    R315354  11.853  14.326   8.843  0.0986 -0.0484  0.0663
 1163ERGO    R415355  11.665  14.409   8.634  0.1893  0.0535  0.0253
 1163ERGO    R515356  11.793  14.233   8.630  0.1801  0.0482  0.0006
 1163ERGO    C115357  11.916  14.410   8.316  0.3194  0.1789  0.1274
 1163ERGO    C215358  11.812  14.546   8.045 -0.2752 -0.3837 -0.0675
 1164ERGO   ROH15359  11.526  12.516   8.971 -0.1624  0.2360 -0.0204
 1164ERGO    R115360  11.586  12.345   8.754 -0.2103  0.1514  0.0348
 1164ERGO    R215361  11.508  12.401   8.495 -0.0983  0.1453  0.0087
 1164ERGO    R315362  11.772  12.368   8.442 -0.1044 -0.0421  0.0790
 1164ERGO    R415363  11.641  12.344   8.181 -0.0305  0.5555 -0.0440
 1164ERGO    R515364  11.779  12.201   8.271 -0.2163  0.2399 -0.2213
 1164ERGO    C115365  11.967  12.280   7.949  0.0033  0.6185 -0.0087
 1164ERGO    C215366  12.224  12.326   7.734  0.0813 -0.4459 -0.0333
 1165ERGO   ROH15367  18.134   3.245   9.794  0.1295  0.2864  0.0423
 1165ERGO    R115368  18.042   3.290   9.530  0.0631  0.2364  0.0571
 1165ERGO    R215369  18.073   3.532   9.402  0.1695  0.1633 -0.0502
 1165ERGO    R315370  18.191   3.379   9.211  0.0040  0.0130 -0.0356
 1165ERGO    R415371  18.042   3.583   9.061  0.2026  0.1560 -0.0548
 1165ERGO    R515372  18.028   3.367   9.035 -0.0231  0.1605 -0.0259
 1165ERGO    C115373  18.134   3.468   8.683  0.0662  0.0106 -0.0438
 1165ERGO    C215374  18.042   3.525   8.414  0.1441 -0.1978  0.0531
 1166ERGO   ROH15375  12.388   4.843   6.586 -0.0337 -0.0365  0.0233
 1166ERGO    R115376  12.187   4.769   6.771 -0.0695  0.0190  0.0063
 1166ERGO    R215377  12.244   4.684   7.027 -0.1035 -0.1878 -0.0538
 1166ERGO    R315378  12.074   4.884   7.097  0.0734 -0.0852  0.0936
 1166ERGO    R415379  11.998   4.658   7.268 -0.1318 -0.1517 -0.0786
 1166ERGO    R515380  11.866   4.772   7.139 -0.0288  0.0677  0.0036
 1166ERGO    C115381  11.695   4.830   7.475  0.0177 -0.0343  0.0453
 1166ERGO    C215382  11.740   4.948   7.856  0.2390  0.2978  0.2153
 1167ERGO   ROH15383   9.955  14.011   9.321 -0.3261  0.0389  0.0954
 1167ERGO    R115384  10.004  13.913   9.060 -0.0735  0.1314  0.1057
 1167ERGO    R215385   9.816  13.928   8.857  0.0504  0.0264 -0.0165
 1167ERGO    R315386  10.017  14.052   8.723  0.0451  0.2120  0.1424
 1167ERGO    R415387   9.836  13.956   8.514  0.1845  0.2340  0.0066
 1167ERGO    R515388  10.050  13.918   8.528  0.2014  0.3394  0.0774
 1167ERGO    C115389  10.037  14.089   8.188  0.2576  0.5292  0.1691
 1167ERGO    C215390   9.914  14.196   7.929 -0.0994  0.0679 -0.2469
 1168ERGO   ROH15391   3.697   7.360  10.062 -0.1231 -0.1493 -0.0309
 1168ERGO    R115392   3.875   7.193   9.917 -0.0794 -0.0716 -0.0685
 1168ERGO    R215393   3.800   6.945   9.821  0.0136 -0.1112 -0.0407
 1168ERGO    R315394   3.888   7.047   9.584 -0.0929 -0.0785 -0.0663
 1168ERGO    R415395   3.840   6.762   9.530  0.1575 -0.1385 -0.0040
 1168ERGO    R515396   4.024   6.872   9.492  0.0586  0.0218 -0.0382
 1168ERGO    C115397   3.945   6.751   9.139  0.1414 -0.1236 -0.0065
 1168ERGO    C215398   3.891   6.508   8.894  0.0282  0.1888  0.0735
 1169ERGO   ROH15399   4.506  17.108   9.467 -0.2763 -0.0759 -0.1074
 1169ERGO    R115400   4.508  16.993   9.209 -0.1607 -0.1180 -0.0890
 1169ERGO    R215401   4.310  17.042   9.022 -0.0859 -0.1560 -0.1849
 1169ERGO    R315402   4.520  17.114   8.866 -0.0195 -0.1711 -0.1022
 1169ERGO    R415403   4.294  17.089   8.680  0.1129 -0.3894 -0.2279
 1169ERGO    R515404   4.488  16.990   8.663  0.1637 -0.3169 -0.0412
 1169ERGO    C115405   4.482  17.183   8.334  0.2910 -0.5395 -0.1753
 1169ERGO    C215406   4.555  17.407   7.988  0.0760  0.5277 -0.1587
 1170ERGO   ROH15407  14.772   9.955   6.166 -0.0803 -0.0179  0.0361
 1170ERGO    R115408  14.881  10.053   6.408 -0.0884 -0.0039  0.0317
 1170ERGO    R215409  14.744  10.229   6.573 -0.1477 -0.1169  0.0822
 1170ERGO    R315410  14.795  10.040   6.761 -0.0060 -0.1126  0.0526
 1170ERGO    R415411  14.760  10.287   6.913 -0.0680 -0.1058  0.0781
 1170ERGO    R515412  14.930  10.152   6.924  0.0065 -0.0455  0.0139
 1170ERGO    C115413  14.817  10.144   7.288  0.1115 -0.0952  0.0479
 1170ERGO    C215414  14.844  10.211   7.489  0.0838  0.1063  0.4124
 1171ERGO   ROH15415  16.312   3.403  10.107 -0.0516 -0.1500  0.0657
 1171ERGO    R115416  16.243   3.504   9.852  0.0040 -0.1100  0.0661
 1171ERGO    R215417  16.426   3.626   9.685  0.0206  0.0022  0.1637
 1171ERGO    R315418  16.340   3.440   9.507  0.1545  0.0147  0.0849
 1171ERGO    R415419  16.516   3.616   9.352  0.1711  0.0966  0.2004
 1171ERGO    R515420  16.310   3.562   9.303  0.2095  0.0469  0.0974
 1171ERGO    C115421  16.487   3.435   8.990  0.3847  0.1632  0.1478
 1171ERGO    C215422  16.698   3.541   8.623  0.1940  0.1821 -0.1431
 1172ERGO   ROH15423  14.361   2.025  10.059  0.0123  0.0130 -0.0556
 1172ERGO    R115424  14.280   2.019   9.788  0.0856 -0.0798 -0.0754
 1172ERGO    R215425  14.214   2.247   9.647 -0.2678 -0.1651 -0.0518
 1172ERGO    R315426  14.401   2.156   9.472 -0.0675  0.1783 -0.0256
 1172ERGO    R415427  14.173   2.234   9.304 -0.1441 -0.1130 -0.0690
 1172ERGO    R515428  14.274   2.040   9.305  0.1567  0.0354 -0.1034
 1172ERGO    C115429  14.326   2.141   8.940  0.1159  0.2397 -0.0543
 1172ERGO    C215430  14.303   2.357   8.672  0.1007 -0.0929  0.2220
 1173ERGO   ROH15431   0.758  11.660   6.361  0.1322 -0.2137  0.0277
 1173ERGO    R115432   0.715  11.609   6.636  0.0097 -0.0887  0.0344
 1173ERGO    R215433   0.840  11.403   6.771 -0.2316 -0.1830  0.1338
 1173ERGO    R315434   0.919  11.602   6.938 -0.0699 -0.2061  0.0838
 1173ERGO    R415435   0.975  11.356   7.086 -0.3596 -0.2028  0.1845
 1173ERGO    R515436   0.858  11.525   7.156 -0.2012 -0.0618  0.0937
 1173ERGO    C115437   1.127  11.516   7.426 -0.2823 -0.2361  0.1671
 1173ERGO    C215438   1.189  11.523   7.729 -0.1067 -0.2055 -0.2759
 1174ERGO   ROH15439  11.866   2.511   6.883 -0.0821 -0.0604 -0.1061
 1174ERGO    R115440  11.705   2.537   7.114 -0.0821  0.0883 -0.1223
 1174ERGO    R215441  11.496   2.366   7.170 -0.0564  0.0992  0.0092
 1174ERGO    R315442  11.626   2.336   7.407 -0.0487  0.2940  0.0307
 1174ERGO    R415443  11.342   2.340   7.478 -0.0751 -0.1178 -0.0166
 1174ERGO    R515444  11.499   2.467   7.561 -0.2685  0.1158  0.0066
 1174ERGO    C115445  11.374   2.298   7.880 -0.0789 -0.0613 -0.0115
 1174ERGO    C215446  11.368   2.432   8.248  0.3254 -0.0384 -0.3745
 1175ERGO   ROH15447  15.681  17.676   9.746 -0.0070 -0.0589  0.0544
 1175ERGO    R115448  15.712  17.689   9.465 -0.0625 -0.2128  0.0407
 1175ERGO    R215449  15.502  17.654   9.290 -0.1802  0.1061  0.1146
 1175ERGO    R315450  15.584  17.895   9.193  0.2290 -0.0690  0.0077
 1175ERGO    R415451  15.533  17.731   8.954 -0.2986 -0.0194  0.0740
 1175ERGO    R515452  15.717  17.838   9.001 -0.0343 -0.3768 -0.0944
 1175ERGO    C115453  15.629  18.001   8.668  0.0166 -0.2569 -0.0503
 1175ERGO    C215454  15.374  17.953   8.409  0.2434  0.1315 -0.1013
 1176ERGO   ROH15455  14.863   1.406   6.327 -0.0703  0.2429  0.0329
 1176ERGO    R115456  14.750   1.354   6.581 -0.0352  0.0792  0.0153
 1176ERGO    R215457  14.782   1.112   6.711  0.1860  0.0801 -0.0386
 1176ERGO    R315458  14.873   1.270   6.913  0.0262  0.1210  0.0039
 1176ERGO    R415459  14.770   1.031   7.047  0.1029  0.0565 -0.0465
 1176ERGO    R515460  14.715   1.237   7.090 -0.0251  0.0275 -0.0564
 1176ERGO    C115461  14.848   1.131   7.432 -0.0957  0.0812 -0.0111
 1176ERGO    C215462  14.872   0.842   7.638 -0.0600 -0.2744 -0.1910
 1177ERGO   ROH15463  14.637   7.750  10.060 -0.1174  0.1196 -0.0224
 1177ERGO    R115464  14.728   7.866   9.818 -0.1037 -0.0797 -0.1160
 1177ERGO    R215465  14.762   7.720   9.587 -0.3039 -0.2331 -0.0582
 1177ERGO    R315466  14.598   7.909   9.481 -0.1887 -0.1517 -0.0909
 1177ERGO    R415467  14.688   7.750   9.251 -0.1426 -0.1157 -0.0838
 1177ERGO    R515468  14.702   7.967   9.273 -0.0788 -0.1323 -0.0259
 1177ERGO    C115469  14.491   7.946   8.956  0.0593  0.0291 -0.1296
 1177ERGO    C215470  14.315   7.980   8.703  0.2807 -0.0300 -0.2342
 1178ERGO   ROH15471  10.005   9.143   6.203  0.0656  0.1262 -0.2148
 1178ERGO    R115472   9.973   9.182   6.481 -0.0297 -0.0823 -0.1948
 1178ERGO    R215473  10.082   9.010   6.668  0.0493 -0.1323 -0.2833
 1178ERGO    R315474  10.192   9.238   6.767 -0.1370 -0.1154 -0.1062
 1178ERGO    R415475  10.164   9.063   7.000  0.1407 -0.3704 -0.2655
 1178ERGO    R515476  10.089   9.267   6.981 -0.0718 -0.4261 -0.0315
 1178ERGO    C115477  10.316   9.308   7.285  0.0190 -0.4932 -0.0890
 1178ERGO    C215478  10.484   9.469   7.682  0.0420  0.0676 -0.2862
 1179ERGO   ROH15479  10.043  12.541   9.634  0.1550  0.0562 -0.0832
 1179ERGO    R115480  10.090  12.618   9.366 -0.0086  0.0572 -0.1119
 1179ERGO    R215481  10.255  12.474   9.197  0.0630  0.1819 -0.1432
 1179ERGO    R315482  10.036  12.473   9.036  0.0083 -0.0437 -0.0717
 1179ERGO    R415483  10.251  12.369   8.868 -0.0115 -0.1487 -0.0411
 1179ERGO    R515484  10.119  12.536   8.821 -0.0784 -0.2309 -0.1646
 1179ERGO    C115485  10.043  12.307   8.525 -0.1060 -0.5531  0.0855
 1179ERGO    C215486   9.993  12.293   8.225 -0.0467  0.2297  0.2513
 1180ERGO   ROH15487   5.556   4.671   6.568 -0.2438  0.0988  0.0010
 1180ERGO    R115488   5.500   4.645   6.845 -0.1051 -0.0820  0.0139
 1180ERGO    R215489   5.694   4.678   7.039 -0.0464 -0.0159 -0.0521
 1180ERGO    R315490   5.517   4.858   7.139 -0.1565 -0.2088  0.1086
 1180ERGO    R415491   5.682   4.780   7.369  0.1775  0.0140 -0.0517
 1180ERGO    R515492   5.464   4.775   7.357  0.1684 -0.2428  0.1779
 1180ERGO    C115493   5.509   5.009   7.655  0.2046 -0.1497  0.0994
 1180ERGO    C215494   5.608   5.086   8.053 -0.1404  0.0039  0.2834
 1181ERGO   ROH15495  13.362   5.572   7.330 -0.2548 -0.0412 -0.0509
 1181ERGO    R115496  13.357   5.612   7.610 -0.1072 -0.3793  0.0020
 1181ERGO    R215497  13.195   5.801   7.731  0.1990 -0.3049  0.2787
 1181ERGO    R315498  13.110   5.588   7.876 -0.0537 -0.3635  0.0590
 1181ERGO    R415499  12.946   5.813   7.970  0.3131 -0.1921  0.3969
 1181ERGO    R515500  13.065   5.679   8.094  0.1817 -0.5340  0.1967
 1181ERGO    C115501  12.720   5.621   8.245  0.1423 -0.1815  0.2597
 1181ERGO    C215502  12.442   5.685   8.394  0.1675  0.2835  0.0695
 1182ERGO   ROH15503  14.194  11.359   9.646  0.1147 -0.1041  0.0449
 1182ERGO    R115504  14.168  11.364   9.364 -0.0810  0.0696  0.0637
 1182ERGO    R215505  14.133  11.599   9.222  0.1584  0.1942  0.2084
 1182ERGO    R315506  14.351  11.511   9.085 -0.0633 -0.0594  0.0056
 1182ERGO    R415507  14.229  11.711   8.910  0.1511  0.2965  0.2422
 1182ERGO    R515508  14.280  11.506   8.857 -0.2176  0.2454  0.0396
 1182ERGO    C115509  14.489  11.694   8.599 -0.0613  0.1180  0.0714
 1182ERGO    C215510  14.731  11.937   8.469 -0.0484  0.2024 -0.3201
 1183ERGO   ROH15511   2.591  10.247   9.741  0.2069  0.0808 -0.0653
 1183ERGO    R115512   2.727  10.096   9.544  0.2508  0.2147 -0.1377
 1183ERGO    R215513   2.605   9.893   9.401  0.4089  0.0034  0.0306
 1183ERGO    R315514   2.693  10.036   9.187  0.0279  0.0638 -0.0949
 1183ERGO    R415515   2.570   9.796   9.072  0.3671 -0.2304  0.1018
 1183ERGO    R515516   2.771   9.869   9.033  0.2281  0.1139 -0.0584
 1183ERGO    C115517   2.632   9.873   8.678 -0.0149 -0.3097  0.0254
 1183ERGO    C215518   2.646   9.696   8.500  0.1723 -0.0800  0.1258
 1184ERGO   ROH15519   9.988  10.084   6.016 -0.1096  0.0639 -0.0167
 1184ERGO    R115520   9.995  10.266   6.233 -0.2425  0.0109  0.0318
 1184ERGO    R215521   9.912  10.198   6.487 -0.0446 -0.1689  0.0457
 1184ERGO    R315522  10.159  10.286   6.557 -0.1212  0.1254 -0.0342
 1184ERGO    R415523  10.002  10.304   6.803  0.0246 -0.4554  0.1257
 1184ERGO    R515524  10.118  10.464   6.711 -0.2910 -0.1392  0.2423
 1184ERGO    C115525  10.287  10.448   7.053 -0.0070 -0.3459  0.0974
 1184ERGO    C215526  10.241  10.465   7.367  0.1939 -0.2244 -0.1614
 1185ERGO   ROH15527  16.399  15.677   5.955  0.3360  0.1801  0.1627
 1185ERGO    R115528  16.220  15.645   6.172  0.2108 -0.1127  0.0204
 1185ERGO    R215529  16.265  15.466   6.377  0.3927  0.0304  0.0988
 1185ERGO    R315530  16.232  15.686   6.533 -0.1761  0.0116  0.0259
 1185ERGO    R415531  16.157  15.460   6.705  0.6843 -0.1969  0.1958
 1185ERGO    R515532  16.036  15.637   6.663  0.0655 -0.5743  0.2122
 1185ERGO    C115533  16.062  15.662   7.043  0.3198 -0.3469  0.1838
 1185ERGO    C215534  16.036  15.387   7.436 -0.0672 -0.0346 -0.1168
 1186ERGO   ROH15535  11.011   6.849   9.529  0.4588  0.1336 -0.0497
 1186ERGO    R115536  11.076   6.899   9.258  0.2048  0.0378 -0.1314
 1186ERGO    R215537  10.933   6.791   9.048 -0.0671  0.0605  0.0414
 1186ERGO    R315538  10.913   7.051   8.970 -0.0167  0.0522 -0.0020
 1186ERGO    R415539  10.835   6.897   8.733 -0.0531  0.0196  0.0228
 1186ERGO    R515540  10.989   7.051   8.743 -0.0190 -0.0062 -0.0062
 1186ERGO    C115541  10.759   7.202   8.478  0.0023 -0.0120 -0.0288
 1186ERGO    C215542  10.570   7.226   8.196 -0.2678  0.0747 -0.0774
 1187ERGO   ROH15543   7.651   8.792   6.639  0.0698 -0.2825  0.0220
 1187ERGO    R115544   7.859   8.888   6.805  0.0686 -0.2131 -0.0172
 1187ERGO    R215545   7.814   8.983   7.061  0.0678 -0.1105 -0.0579
 1187ERGO    R315546   8.002   8.798   7.128  0.0715 -0.0803  0.0196
 1187ERGO    R415547   7.944   8.941   7.378  0.1151  0.0693 -0.0515
 1187ERGO    R515548   8.141   8.910   7.288  0.1016  0.0092 -0.0661
 1187ERGO    C115549   8.197   8.743   7.626  0.1461  0.2025  0.0249
 1187ERGO    C215550   8.368   8.571   7.946  0.1015 -0.3644  0.2154
 1188ERGO   ROH15551  12.590  10.424   9.385 -0.0217  0.3475  0.0163
 1188ERGO    R115552  12.660  10.479   9.116  0.1375  0.0583 -0.0060
 1188ERGO    R215553  12.781  10.292   8.952 -0.1693 -0.2745  0.1278
 1188ERGO    R315554  12.572  10.348   8.788 -0.0422  0.0166  0.0587
 1188ERGO    R415555  12.787  10.265   8.608 -0.0977 -0.2733  0.1290
 1188ERGO    R515556  12.672  10.449   8.596  0.1580 -0.1150  0.0932
 1188ERGO    C115557  12.594  10.302   8.253  0.0634  0.0006  0.0651
 1188ERGO    C215558  12.486  10.118   7.899  0.0553 -0.0156  0.0866
 1189ERGO   ROH15559  15.573  10.985   6.405  0.0295  0.1982 -0.0154
 1189ERGO    R115560  15.577  10.855   6.657  0.0211  0.2153 -0.0073
 1189ERGO    R215561  15.605  10.582   6.683 -0.0942  0.2085  0.0059
 1189ERGO    R315562  15.811  10.651   6.845 -0.0323  0.1256 -0.0344
 1189ERGO    R415563  15.780  10.363   6.885 -0.2454  0.1532  0.0792
 1189ERGO    R515564  15.782  10.515   7.040 -0.1257  0.2188  0.0226
 1189ERGO    C115565  16.076  10.301   7.156 -0.2754  0.0431  0.0840
 1189ERGO    C215566  16.211  10.158   7.402 -0.0576 -0.1641 -0.3491
 1190ERGO   ROH15567  13.728  18.192   9.572 -0.1306  0.1788  0.0539
 1190ERGO    R115568  13.642  18.135   9.308 -0.0937  0.1175  0.0557
 1190ERGO    R215569  13.457  18.291   9.176  0.0084  0.1472 -0.0432
 1190ERGO    R315570  13.650  18.303   8.985  0.0540 -0.0093 -0.0099
 1190ERGO    R415571  13.403  18.380   8.846  0.1124  0.1146 -0.0700
 1190ERGO    R515572  13.543  18.223   8.786  0.0335  0.0118 -0.0133
 1190ERGO    C115573  13.553  18.444   8.476  0.2158 -0.0515 -0.0544
 1190ERGO    C215574  13.473  18.651   8.232 -0.2237  0.0432  0.4024
 1191ERGO   ROH15575   6.820  12.510   9.595 -0.1999 -0.1868  0.0250
 1191ERGO    R115576   6.836  12.489   9.313 -0.1379 -0.0261  0.0145
 1191ERGO    R215577   6.800  12.250   9.179  0.0005  0.0253 -0.1255
 1191ERGO    R315578   6.613  12.391   9.042 -0.0431  0.0130 -0.0768
 1191ERGO    R415579   6.771  12.259   8.835 -0.0911  0.0314 -0.1171
 1191ERGO    R515580   6.728  12.472   8.849 -0.1022  0.0241 -0.1040
 1191ERGO    C115581   6.578  12.398   8.506 -0.1854  0.0234 -0.0664
 1191ERGO    C215582   6.591  12.511   8.147 -0.1395 -0.0719 -0.1975
 1192ERGO   ROH15583   6.560  12.321   6.424  0.1836 -0.0446  0.2069
 1192ERGO    R115584   6.346  12.385   6.597  0.1474 -0.1296  0.1940
 1192ERGO    R215585   6.250  12.209   6.787  0.3433 -0.0946  0.3264
 1192ERGO    R315586   6.297  12.416   6.957  0.1719  0.0670  0.1826
 1192ERGO    R415587   6.147  12.220   7.116  0.4043  0.0077  0.3427
 1192ERGO    R515588   6.097  12.431   7.088  0.1812 -0.0555  0.2159
 1192ERGO    C115589   6.131  12.420   7.468  0.2788  0.2189  0.2172
 1192ERGO    C215590   6.301  12.241   7.852 -0.3443 -0.1173  0.0409
 1193ERGO   ROH15591   1.857  17.888   9.620 -0.0609  0.0585 -0.0046
 1193ERGO    R115592   1.994  17.935   9.377  0.0171 -0.2292 -0.0199
 1193ERGO    R215593   2.069  17.731   9.207 -0.4696 -0.3942 -0.0500
 1193ERGO    R315594   1.932  17.878   9.023 -0.1695 -0.0583 -0.0175
 1193ERGO    R415595   2.094  17.692   8.864 -0.4796 -0.3064 -0.0610
 1193ERGO    R515596   2.088  17.909   8.844 -0.0713 -0.2758  0.0246
 1193ERGO    C115597   1.980  17.806   8.492 -0.2038  0.0602 -0.0369
 1193ERGO    C215598   2.092  17.823   8.183 -0.1390  0.1616 -0.1459
 1194ERGO   ROH15599  11.725   1.437   6.479 -0.2288 -0.0528  0.0650
 1194ERGO    R115600  11.922   1.420   6.682 -0.1752  0.0120  0.0183
 1194ERGO    R215601  12.052   1.642   6.782 -0.0976  0.0364 -0.1382
 1194ERGO    R315602  11.964   1.546   7.020 -0.0499  0.1835 -0.0595
 1194ERGO    R415603  12.188   1.721   7.090  0.2512 -0.1129 -0.2476
 1194ERGO    R515604  12.164   1.513   7.149  0.0095 -0.0767 -0.2084
 1194ERGO    C115605  12.184   1.678   7.493  0.4991 -0.0618 -0.2373
 1194ERGO    C215606  12.417   1.848   7.707  0.1597  0.0570  0.1696
 1195ERGO   ROH15607  17.728   0.266   9.922  0.1335 -0.1226  0.0992
 1195ERGO    R115608  17.912   0.315   9.712  0.0181 -0.2499 -0.0334
 1195ERGO    R215609  17.909   0.171   9.476 -0.3900 -0.1077 -0.1237
 1195ERGO    R315610  17.894   0.418   9.364 -0.1507 -0.0130  0.0432
 1195ERGO    R415611  17.969   0.241   9.143 -0.4247  0.0439 -0.0991
 1195ERGO    R515612  18.072   0.422   9.204 -0.1982 -0.1104 -0.0132
 1195ERGO    C115613  17.989   0.513   8.844 -0.2201  0.2210  0.0719
 1195ERGO    C215614  18.073   0.446   8.460 -0.0205  0.0559 -0.2478
 1196ERGO   ROH15615  13.971   1.075   6.109  0.0629 -0.0815 -0.0428
 1196ERGO    R115616  13.834   0.977   6.337  0.1257  0.0879  0.0706
 1196ERGO    R215617  13.725   0.723   6.347 -0.2154  0.2295  0.1450
 1196ERGO    R315618  13.876   0.702   6.572 -0.0396  0.0104  0.0096
 1196ERGO    R415619  13.639   0.539   6.627  0.0157 -0.0542  0.0351
 1196ERGO    R515620  13.717   0.700   6.751  0.1023 -0.1754  0.1352
 1196ERGO    C115621  13.731   0.413   7.001  0.3155 -0.4251 -0.1560
 1196ERGO    C215622  13.571   0.300   7.279  0.4919 -0.0975 -0.0326
 1197ERGO   ROH15623   4.618   2.118   9.864  0.0795 -0.0300 -0.0737
 1197ERGO    R115624   4.618   2.214   9.598  0.0223  0.0412 -0.0487
 1197ERGO    R215625   4.576   2.048   9.380  0.0670  0.0823 -0.0902
 1197ERGO    R315626   4.381   2.228   9.322 -0.0060  0.0250 -0.0249
 1197ERGO    R415627   4.378   2.040   9.097  0.0033  0.0526 -0.0450
 1197ERGO    R515628   4.395   2.257   9.085 -0.0711  0.0586 -0.0239
 1197ERGO    C115629   4.079   2.204   8.878 -0.1022 -0.0184  0.0427
 1197ERGO    C215630   3.843   2.308   8.607  0.1105 -0.0454 -0.0673
 1198ERGO   ROH15631   7.292   0.848   6.045 -0.2414 -0.2013  0.0688
 1198ERGO    R115632   7.492   0.860   6.245 -0.1575  0.0651 -0.0266
 1198ERGO    R215633   7.531   1.083   6.403 -0.3922  0.1138 -0.0343
 1198ERGO    R315634   7.502   0.905   6.606 -0.0459  0.0576 -0.0284
 1198ERGO    R415635   7.558   1.161   6.739 -0.2753  0.1188 -0.0445
 1198ERGO    R515636   7.665   0.973   6.768 -0.0239  0.2442 -0.1260
 1198ERGO    C115637   7.547   1.039   7.125  0.1180  0.0689 -0.0448
 1198ERGO    C215638   7.381   1.281   7.288  0.0458 -0.1303  0.2733
 1199ERGO   ROH15639   7.057   2.342   9.735  0.3073  0.0607 -0.1772
 1199ERGO    R115640   6.893   2.306   9.507  0.1725  0.0911 -0.0865
 1199ERGO    R215641   6.936   2.441   9.270  0.1242  0.0116 -0.1414
 1199ERGO    R315642   6.938   2.191   9.164 -0.0606 -0.0153 -0.0834
 1199ERGO    R415643   6.890   2.368   8.935  0.1400 -0.0245 -0.1356
 1199ERGO    R515644   6.768   2.197   8.995 -0.0179  0.0888 -0.1237
 1199ERGO    C115645   6.864   2.090   8.642 -0.0243 -0.0707 -0.0777
 1199ERGO    C215646   6.690   2.156   8.309  0.2455  0.1069 -0.2235
 1200ERGO   ROH15647  16.437   1.223   6.219  0.1111  0.1024 -0.1305
 1200ERGO    R115648  16.314   1.381   6.419 -0.0010  0.0797 -0.1825
 1200ERGO    R215649  16.058   1.331   6.510  0.0862 -0.1570 -0.0734
 1200ERGO    R315650  16.180   1.327   6.753  0.1686  0.1231 -0.1052
 1200ERGO    R415651  15.901   1.395   6.812  0.0411 -0.3810 -0.0467
 1200ERGO    R515652  16.078   1.506   6.874 -0.1384 -0.0316 -0.1192
 1200ERGO    C115653  15.925   1.428   7.215  0.0920 -0.2484 -0.0611
 1200ERGO    C215654  15.709   1.341   7.371 -0.2609  0.3004  0.1379
 1201ERGO   ROH15655  10.675   3.407   6.429  0.0507 -0.0001 -0.0093
 1201ERGO    R115656  10.860   3.478   6.631  0.0508  0.0739 -0.0350
 1201ERGO    R215657  10.813   3.682   6.811  0.0205  0.0950 -0.0654
 1201ERGO    R315658  10.864   3.489   6.995  0.0752  0.1365 -0.0370
 1201ERGO    R415659  10.905   3.741   7.139 -0.1164  0.1694 -0.0400
 1201ERGO    R515660  11.046   3.576   7.124 -0.0156  0.2505  0.0152
 1201ERGO    C115661  11.006   3.594   7.503 -0.1449  0.2516  0.0015
 1201ERGO    C215662  11.011   3.640   7.801 -0.3874 -0.0062 -0.0904
 1202ERGO   ROH15663  12.715  15.396   9.687  0.0104 -0.0430  0.0677
 1202ERGO    R115664  12.689  15.566   9.463  0.1056 -0.0302  0.0659
 1202ERGO    R215665  12.890  15.598   9.275  0.1303 -0.1317  0.0743
 1202ERGO    R315666  12.693  15.529   9.101  0.1025 -0.0342  0.0665
 1202ERGO    R415667  12.889  15.673   8.938  0.0639  0.0747  0.1189
 1202ERGO    R515668  12.676  15.716   8.953  0.0654  0.0553  0.1837
 1202ERGO    C115669  12.704  15.653   8.578 -0.0008  0.2864  0.1375
 1202ERGO    C215670  12.620  15.599   8.272 -0.3794  0.1341  0.1723
 1203ERGO   ROH15671   9.536   0.123   9.522 -0.0919 -0.0361 -0.0885
 1203ERGO    R115672   9.647   0.127   9.262 -0.1720 -0.0254 -0.1230
 1203ERGO    R215673   9.670  -0.100   9.106 -0.1285 -0.0371 -0.1007
 1203ERGO    R315674   9.534   0.050   8.925 -0.2438 -0.1143 -0.0788
 1203ERGO    R415675   9.593  -0.200   8.785 -0.1658 -0.0989 -0.0723
 1203ERGO    R515676   9.639   0.001   8.716 -0.2755 -0.0834 -0.1016
 1203ERGO    C115677   9.420  -0.118   8.427 -0.2958 -0.2074 -0.0353
 1203ERGO    C215678   9.386  -0.024   8.023  0.1610 -0.1068 -0.1773
 1204ERGO   ROH15679  12.849   9.979   9.570 -0.0121  0.0662  0.1766
 1204ERGO    R115680  12.961  10.078   9.330 -0.1178  0.0962  0.1390
 1204ERGO    R215681  13.230  10.138   9.304 -0.1243  0.0705  0.0191
 1204ERGO    R315682  13.214   9.970   9.091 -0.2450  0.1112 -0.0049
 1204ERGO    R415683  13.437  10.149   9.028  0.1224 -0.2554  0.1831
 1204ERGO    R515684  13.263  10.109   8.902  0.1431  0.0504  0.0419
 1204ERGO    C115685  13.542   9.999   8.667  0.1527 -0.4069  0.2561
 1204ERGO    C215686  13.793  10.013   8.419  0.0509 -0.0377 -0.1410
 1205ERGO   ROH15687  11.495   0.502   6.264 -0.0627  0.0930 -0.0885
 1205ERGO    R115688  11.536   0.401   6.525  0.1828 -0.0218 -0.1722
 1205ERGO    R215689  11.719   0.511   6.699 -0.0211  0.2233 -0.1324
 1205ERGO    R315690  11.504   0.526   6.865 -0.0275 -0.3462 -0.0635
 1205ERGO    R415691  11.738   0.532   7.044  0.0868  0.5846 -0.1534
 1205ERGO    R515692  11.568   0.395   7.056  0.5143  0.0029  0.0325
 1205ERGO    C115693  11.548   0.558   7.400  0.1436  0.2605 -0.1009
 1205ERGO    C215694  11.758   0.578   7.707 -0.0491  0.0333 -0.2633
 1206ERGO   ROH15695  16.352   5.432  10.044  0.1770 -0.3393 -0.0462
 1206ERGO    R115696  16.270   5.556   9.804  0.0948 -0.2734  0.0149
 1206ERGO    R215697  16.442   5.704   9.646  0.0151 -0.1387  0.0513
 1206ERGO    R315698  16.359   5.534   9.451  0.0578 -0.0943 -0.0060
 1206ERGO    R415699  16.545   5.717   9.316  0.0973 -0.0766  0.0788
 1206ERGO    R515700  16.340   5.672   9.256  0.1123 -0.0553  0.0176
 1206ERGO    C115701  16.527   5.564   8.941  0.1851  0.0012  0.0410
 1206ERGO    C215702  16.701   5.565   8.680 -0.2819  0.1632 -0.0393
 1207ERGO   ROH15703  13.620  11.641   6.263  0.2307  0.2220 -0.0387
 1207ERGO    R115704  13.715  11.447   6.447  0.1802  0.1490 -0.0891
 1207ERGO    R215705  13.909  11.503   6.636  0.1500  0.0665 -0.0322
 1207ERGO    R315706  13.723  11.407   6.808  0.1089  0.0206 -0.1014
 1207ERGO    R415707  13.979  11.370   6.947  0.0556  0.1893  0.0426
 1207ERGO    R515708  13.828  11.217   6.909  0.1529  0.1023  0.0070
 1207ERGO    C115709  13.844  11.202   7.290 -0.0379  0.2179  0.0211
 1207ERGO    C215710  14.007  11.107   7.591  0.0407 -0.0803  0.2878
 1208ERGO   ROH15711   0.115  14.861   6.082  0.3543 -0.0807  0.0300
 1208ERGO    R115712  -0.068  14.721   6.246  0.2009 -0.0597 -0.1177
 1208ERGO    R215713  -0.017  14.466   6.341  0.1268 -0.0410 -0.0129
 1208ERGO    R315714  -0.068  14.581   6.582 -0.1151  0.0105 -0.0868
 1208ERGO    R415715  -0.066  14.292   6.636  0.1203  0.0358  0.0304
 1208ERGO    R515716  -0.225  14.433   6.686 -0.0370 -0.0900 -0.1161
 1208ERGO    C115717  -0.143  14.299   7.034 -0.1103  0.1289 -0.0137
 1208ERGO    C215718  -0.126  13.986   7.282 -0.4208 -0.1829  0.0037
 1209ERGO   ROH15719  14.059   8.449   6.170 -0.0857 -0.0432  0.0651
 1209ERGO    R115720  13.943   8.412   6.426  0.0441 -0.0619  0.1225
 1209ERGO    R215721  14.061   8.259   6.623  0.1787 -0.0178  0.0753
 1209ERGO    R315722  14.033   8.485   6.771  0.1850 -0.0190  0.0777
 1209ERGO    R415723  14.011   8.266   6.965  0.0997 -0.0299  0.0638
 1209ERGO    R515724  13.869   8.429   6.935  0.1343 -0.0004  0.0363
 1209ERGO    C115725  13.955   8.483   7.302  0.0596 -0.0379  0.0593
 1209ERGO    C215726  13.981   8.440   7.595  0.0233  0.0434 -0.2762
 1210ERGO   ROH15727   4.162  14.191   6.218 -0.1368  0.0803 -0.0225
 1210ERGO    R115728   4.174  14.023   6.445 -0.3254  0.1276  0.0248
 1210ERGO    R215729   4.402  13.998   6.600 -0.2579 -0.2816 -0.1215
 1210ERGO    R315730   4.232  14.064   6.802  0.0032  0.1387 -0.0276
 1210ERGO    R415731   4.452  13.921   6.933 -0.2395 -0.3433 -0.1385
 1210ERGO    R515732   4.239  13.876   6.950 -0.3405  0.1406 -0.0052
 1210ERGO    C115733   4.322  13.938   7.317  0.0163  0.0154 -0.0603
 1210ERGO    C215734   4.220  13.960   7.634 -0.0626 -0.1528  0.1341
 1211ERGO   ROH15735  15.076   9.346   6.288  0.1140 -0.0813  0.0701
 1211ERGO    R115736  15.028   9.182   6.514 -0.0741 -0.0009  0.0911
 1211ERGO    R215737  15.227   9.113   6.692 -0.1467 -0.2222  0.0915
 1211ERGO    R315738  15.055   9.217   6.875 -0.0166  0.0080  0.0863
 1211ERGO    R415739  15.237   9.048   7.032 -0.2527 -0.2618  0.0864
 1211ERGO    R515740  15.019   9.038   7.031 -0.2729  0.0414  0.0724
 1211ERGO    C115741  15.081   9.108   7.401 -0.1923 -0.0686  0.0787
 1211ERGO    C215742  15.104   9.299   7.672 -0.1010 -0.0530  0.0093
 1212ERGO   ROH15743  16.808  18.309   9.850  0.0529  0.1231 -0.0784
 1212ERGO    R115744  16.702  18.182   9.621  0.1282  0.0640 -0.0809
 1212ERGO    R215745  16.533  18.310   9.444 -0.0192 -0.0568 -0.0324
 1212ERGO    R315746  16.717  18.230   9.261  0.0254  0.1377 -0.0753
 1212ERGO    R415747  16.482  18.305   9.103 -0.0316  0.0377 -0.0322
 1212ERGO    R515748  16.588  18.115   9.094  0.0963  0.1140 -0.1117
 1212ERGO    C115749  16.625  18.227   8.731  0.0031  0.2752 -0.0724
 1212ERGO    C215750  16.730  18.274   8.405  0.1348  0.0041 -0.0874
 1213ERGO   ROH15751  17.903  15.254   9.552  0.0164  0.0689 -0.0212
 1213ERGO    R115752  17.890  15.185   9.278 -0.0766  0.1618 -0.0407
 1213ERGO    R215753  17.875  15.375   9.078  0.1948  0.2415  0.0110
 1213ERGO    R315754  18.092  15.243   8.981  0.0136 -0.0411 -0.0210
 1213ERGO    R415755  17.985  15.390   8.750  0.1965  0.1466  0.0072
 1213ERGO    R515756  18.027  15.176   8.760 -0.0930  0.0823 -0.0293
 1213ERGO    C115757  18.253  15.275   8.469  0.0274 -0.1739 -0.0250
 1213ERGO    C215758  18.489  15.403   8.300  0.3821  0.0184 -0.1274
 1214ERGO   ROH15759  14.128   9.670   6.001  0.2074  0.0124 -0.0180
 1214ERGO    R115760  14.019   9.498   6.197  0.0756  0.0574 -0.0516
 1214ERGO    R215761  14.166   9.403   6.411 -0.0237 -0.0200 -0.0192
 1214ERGO    R315762  13.962   9.509   6.557 -0.0109  0.0705 -0.0649
 1214ERGO    R415763  14.142   9.390   6.755 -0.1084 -0.0163 -0.0242
 1214ERGO    R515764  13.929   9.352   6.734 -0.1232  0.0804 -0.0748
 1214ERGO    C115765  13.937   9.481   7.093 -0.1459  0.0708 -0.0700
 1214ERGO    C215766  13.736   9.438   7.388 -0.1129  0.0095  0.3041
 1215ERGO   ROH15767   6.842  11.239   9.723  0.1180 -0.1280 -0.0395
 1215ERGO    R115768   6.889  11.284   9.448  0.1569 -0.1480 -0.0357
 1215ERGO    R215769   6.844  11.090   9.255 -0.1596 -0.0477 -0.0654
 1215ERGO    R315770   6.691  11.284   9.142  0.1199  0.2103 -0.0165
 1215ERGO    R415771   6.833  11.160   8.917 -0.1356 -0.0202 -0.0609
 1215ERGO    R515772   6.827  11.373   8.966  0.2227 -0.0050 -0.0511
 1215ERGO    C115773   6.682  11.383   8.614  0.1409  0.2381 -0.0125
 1215ERGO    C215774   6.540  11.447   8.429 -0.0720 -0.0350  0.1011
 1216ERGO   ROH15775   5.252   7.527   6.495  0.1897  0.0492  0.0478
 1216ERGO    R115776   5.267   7.481   6.774  0.2928 -0.0703  0.0232
 1216ERGO    R215777   5.501   7.517   6.918  0.2390  0.3065  0.0250
 1216ERGO    R315778   5.344   7.679   7.070 -0.0709 -0.0716  0.1240
 1216ERGO    R415779   5.526   7.551   7.261  0.3041  0.2805  0.0230
 1216ERGO    R515780   5.308   7.555   7.271  0.2864 -0.2081  0.1128
 1216ERGO    C115781   5.393   7.723   7.603  0.0512 -0.0895  0.1148
 1216ERGO    C215782   5.394   7.761   7.916  0.2092  0.0146  0.1873
 1217ERGO   ROH15783   6.154  10.693   9.769  0.0536 -0.1195 -0.0097
 1217ERGO    R115784   5.983  10.666   9.544  0.0391  0.0850 -0.0251
 1217ERGO    R215785   5.966  10.859   9.347  0.2874  0.1102 -0.0290
 1217ERGO    R315786   6.023  10.650   9.183  0.0538  0.0382 -0.0207
 1217ERGO    R415787   5.925  10.861   9.004  0.2875  0.1389 -0.0282
 1217ERGO    R515788   5.850  10.657   9.017  0.0598  0.2221 -0.0194
 1217ERGO    C115789   5.954  10.666   8.650  0.0682  0.0879 -0.0201
 1217ERGO    C215790   5.902  10.595   8.355  0.0579 -0.0759  0.2301
 1218ERGO   ROH15791   0.731   5.027   6.290  0.0285  0.0196 -0.0567
 1218ERGO    R115792   0.854   5.093   6.536 -0.0735  0.2005 -0.0512
 1218ERGO    R215793   0.729   5.247   6.729 -0.3123  0.0173 -0.0469
 1218ERGO    R315794   0.788   5.035   6.889 -0.0023  0.0925 -0.0566
 1218ERGO    R415795   0.835   5.272   7.057 -0.1746  0.1479 -0.1007
 1218ERGO    R515796   0.975   5.109   7.019 -0.0194  0.3003 -0.1546
 1218ERGO    C115797   0.951   5.088   7.399  0.1966  0.2946 -0.1410
 1218ERGO    C215798   1.024   5.115   7.789  0.0075 -0.0520  0.0194
 1219ERGO   ROH15799  10.773  15.998   9.432 -0.0812 -0.1085 -0.0379
 1219ERGO    R115800  10.882  15.996   9.170 -0.1942 -0.2329 -0.0845
 1219ERGO    R215801  10.724  15.994   8.943 -0.2981  0.0636 -0.0172
 1219ERGO    R315802  10.873  16.213   8.878  0.0280 -0.1561 -0.0370
 1219ERGO    R415803  10.786  16.102   8.621 -0.5024  0.1815 -0.0192
 1219ERGO    R515804  10.991  16.148   8.681 -0.3340 -0.2378 -0.2359
 1219ERGO    C115805  10.962  16.370   8.372 -0.3155  0.0439 -0.0389
 1219ERGO    C215806  10.878  16.424   8.135 -0.0311 -0.1955 -0.5160
 1220ERGO   ROH15807  11.506   2.965   9.950 -0.0364 -0.2492  0.0710
 1220ERGO    R115808  11.531   3.094   9.699 -0.0201 -0.0837  0.1579
 1220ERGO    R215809  11.776   3.156   9.587 -0.0066 -0.3478  0.0505
 1220ERGO    R315810  11.677   3.017   9.375 -0.3468 -0.0373 -0.0074
 1220ERGO    R415811  11.879   3.196   9.260  0.1007 -0.4562  0.0695
 1220ERGO    R515812  11.671   3.177   9.197  0.0373  0.0655  0.0567
 1220ERGO    C115813  11.848   3.088   8.870 -0.1562 -0.2278  0.0264
 1220ERGO    C215814  11.945   3.102   8.482  0.2188  0.1456 -0.3493
 1221ERGO   ROH15815   6.323   1.210   9.592  0.2878  0.3057 -0.1272
 1221ERGO    R115816   6.249   1.160   9.323  0.0822  0.1912 -0.0519
 1221ERGO    R215817   6.006   1.239   9.218  0.0656  0.2858  0.0599
 1221ERGO    R315818   6.162   1.360   9.032  0.0252  0.0734 -0.1172
 1221ERGO    R415819   5.937   1.253   8.880 -0.0881  0.0229  0.0772
 1221ERGO    R515820   6.147   1.219   8.840 -0.1167 -0.0872  0.0070
 1221ERGO    C115821   6.043   1.376   8.508 -0.2157 -0.3294 -0.0790
 1221ERGO    C215822   6.142   1.350   8.121 -0.1496  0.0132 -0.0556
 1222ERGO   ROH15823   4.769   2.999   6.586 -0.1240  0.3184  0.1845
 1222ERGO    R115824   4.788   2.828   6.811 -0.1688  0.0564 -0.0061
 1222ERGO    R215825   4.806   2.924   7.069  0.0708 -0.2365  0.0889
 1222ERGO    R315826   4.591   2.763   7.110 -0.0690 -0.0673  0.0344
 1222ERGO    R415827   4.708   2.800   7.377  0.0289 -0.3337  0.0368
 1222ERGO    R515828   4.663   2.610   7.280 -0.1662 -0.2382 -0.0727
 1222ERGO    C115829   4.449   2.577   7.594 -0.1267 -0.2316 -0.0447
 1222ERGO    C215830   4.524   2.529   7.851 -0.0311 -0.1275 -0.4639
 1223ERGO   ROH15831  13.667   5.257   7.068  0.0480  0.0486  0.1378
 1223ERGO    R115832  13.670   5.145   7.327  0.1306  0.0293  0.1290
 1223ERGO    R215833  13.536   4.911   7.390  0.0169  0.1095  0.1921
 1223ERGO    R315834  13.781   4.833   7.479  0.0222 -0.0532  0.0407
 1223ERGO    R415835  13.591   4.700   7.658  0.0422  0.3374  0.3692
 1223ERGO    R515836  13.758   4.826   7.717  0.2378  0.2288  0.0751
 1223ERGO    C115837  13.852   4.504   7.898  0.0619  0.3173  0.3303
 1223ERGO    C215838  13.954   4.270   8.028 -0.1944 -0.0830 -0.3105
 1224ERGO   ROH15839   1.884   9.613   6.348  0.0142  0.1270 -0.1720
 1224ERGO    R115840   1.746   9.756   6.550  0.0161  0.1467 -0.1847
 1224ERGO    R215841   1.800   9.723   6.818 -0.1147  0.0291 -0.1706
 1224ERGO    R315842   1.834   9.993   6.812  0.0516  0.0123 -0.0753
 1224ERGO    R415843   1.788   9.930   7.095  0.1051 -0.0628 -0.0889
 1224ERGO    R515844   1.679  10.076   6.975  0.1580  0.0504  0.0044
 1224ERGO    C115845   1.812  10.305   7.249  0.3891 -0.1322  0.0483
 1224ERGO    C215846   2.010  10.450   7.505 -0.0763  0.3025  0.1384
 1225ERGO   ROH15847  17.360  13.922   6.120  0.1283 -0.1297  0.0586
 1225ERGO    R115848  17.217  14.058   6.323 -0.0250 -0.0750 -0.0911
 1225ERGO    R215849  16.943  14.097   6.311 -0.0683 -0.5008 -0.0911
 1225ERGO    R315850  16.948  13.978   6.555  0.1410 -0.1607  0.0847
 1225ERGO    R415851  16.693  14.121   6.549 -0.2538 -0.7628 -0.2475
 1225ERGO    R515852  16.847  14.137   6.702 -0.3232 -0.1656 -0.1828
 1225ERGO    C115853  16.553  14.024   6.916 -0.1653 -0.5962 -0.1734
 1225ERGO    C215854  16.350  13.876   7.099 -0.1691  0.1595 -0.2645
 1226ERGO   ROH15855   8.718   9.330   9.701 -0.0351  0.0203  0.0808
 1226ERGO    R115856   8.634   9.267   9.438 -0.0980  0.3200  0.0265
 1226ERGO    R215857   8.708   9.418   9.219  0.3414  0.2394  0.1099
 1226ERGO    R315858   8.794   9.178   9.123 -0.1918  0.0571  0.0507
 1226ERGO    R415859   8.762   9.349   8.885  0.6267  0.3605  0.1274
 1226ERGO    R515860   8.673   9.151   8.917  0.0118  0.5658 -0.1520
 1226ERGO    C115861   8.874   9.084   8.600  0.2922  0.2598  0.0819
 1226ERGO    C215862   8.807   8.821   8.390  0.0447 -0.1818 -0.1802
 1227ERGO   ROH15863  16.152  16.013   9.303 -0.1918  0.1243  0.1205
 1227ERGO    R115864  16.239  16.140   9.065 -0.0897  0.0649  0.1253
 1227ERGO    R215865  16.313  15.998   8.839 -0.0891  0.0106  0.1576
 1227ERGO    R315866  16.128  16.157   8.719 -0.0039  0.0651  0.0980
 1227ERGO    R415867  16.252  16.008   8.499 -0.0759 -0.0727  0.1529
 1227ERGO    R515868  16.232  16.224   8.514  0.0352 -0.0580  0.0781
 1227ERGO    C115869  16.043  16.162   8.188  0.0118 -0.0701  0.0944
 1227ERGO    C215870  15.991  16.079   7.865  0.4072 -0.2555 -0.1579
 1228ERGO   ROH15871  12.837  14.055   9.352 -0.2010  0.0464 -0.1471
 1228ERGO    R115872  12.774  14.099   9.080 -0.1342 -0.0143 -0.1719
 1228ERGO    R215873  12.941  14.239   8.909 -0.1335  0.0178 -0.1384
 1228ERGO    R315874  12.921  14.015   8.757 -0.0091 -0.0085 -0.1187
 1228ERGO    R415875  13.010  14.223   8.571 -0.1606  0.0439 -0.1458
 1228ERGO    R515876  12.837  14.093   8.547 -0.0854 -0.0713 -0.1160
 1228ERGO    C115877  13.032  14.003   8.232 -0.0595  0.0345 -0.1315
 1228ERGO    C215878  13.075  14.017   7.887  0.0398  0.2592 -0.2331
 1229ERGO   ROH15879  15.029   3.761  10.320  0.1018  0.3054  0.0007
 1229ERGO    R115880  14.867   3.869  10.115  0.1636  0.4096  0.0068
 1229ERGO    R215881  14.971   4.002   9.897  0.2685  0.0436 -0.1711
 1229ERGO    R315882  14.825   3.820   9.756 -0.1331  0.1667  0.0693
 1229ERGO    R415883  14.832   4.060   9.586  0.2728 -0.0118 -0.1842
 1229ERGO    R515884  14.654   3.951   9.651  0.0773  0.3928 -0.0042
 1229ERGO    C115885  14.614   3.923   9.273 -0.1018  0.0716  0.0339
 1229ERGO    C215886  14.531   3.969   9.010 -0.0059  0.0922 -0.0294
 1230ERGO   ROH15887   8.003  10.085   9.950  0.0400 -0.0982  0.1430
 1230ERGO    R115888   7.939   9.966   9.701 -0.0717  0.0326  0.1077
 1230ERGO    R215889   7.699  10.012   9.572 -0.0879  0.1845  0.1870
 1230ERGO    R315890   7.861  10.081   9.365 -0.1117  0.2073  0.1762
 1230ERGO    R415891   7.635   9.944   9.239  0.0573 -0.1142  0.2166
 1230ERGO    R515892   7.846   9.897   9.213  0.1127  0.0840  0.2996
 1230ERGO    C115893   7.750   9.970   8.851  0.1195 -0.2666  0.2236
 1230ERGO    C215894   7.788   9.930   8.578 -0.1515 -0.0403 -0.0044
 1231ERGO   ROH15895   3.436   0.824   9.701 -0.3338  0.2851  0.0488
 1231ERGO    R115896   3.443   0.720   9.438 -0.1923  0.2144  0.0793
 1231ERGO    R215897   3.280   0.815   9.236 -0.0641  0.1807 -0.0430
 1231ERGO    R315898   3.516   0.848   9.106  0.0168  0.1182  0.0870
 1231ERGO    R415899   3.312   0.897   8.902  0.1429  0.0317 -0.0610
 1231ERGO    R515900   3.478   0.757   8.888  0.1495  0.0227  0.1032
 1231ERGO    C115901   3.553   0.976   8.585  0.3394 -0.1136  0.0505
 1231ERGO    C215902   3.630   1.225   8.323 -0.2026  0.2175 -0.0984
 1232ERGO   ROH15903   0.684   7.134   9.988 -0.0164 -0.1162 -0.0012
 1232ERGO    R115904   0.586   7.076   9.728  0.0436 -0.0456 -0.0401
 1232ERGO    R215905   0.364   7.202   9.622 -0.0958 -0.2097  0.0499
 1232ERGO    R315906   0.534   7.260   9.418 -0.1560  0.1152  0.0858
 1232ERGO    R415907   0.295   7.154   9.287 -0.0640  0.0027  0.0113
 1232ERGO    R515908   0.499   7.084   9.260 -0.0001  0.2120 -0.0584
 1232ERGO    C115909   0.414   7.180   8.900 -0.1019  0.4315  0.0224
 1232ERGO    C215910   0.233   7.207   8.532  0.0715  0.1117  0.0740
 1233ERGO   ROH15911  13.021  16.994   9.663 -0.0542 -0.1330 -0.1718
 1233ERGO    R115912  12.934  17.134   9.432  0.0265  0.0427 -0.0982
 1233ERGO    R215913  13.108  17.273   9.269  0.1240 -0.0401 -0.0748
 1233ERGO    R315914  12.998  17.119   9.074 -0.0517  0.1338 -0.1147
 1233ERGO    R415915  13.150  17.323   8.929  0.2715 -0.0736 -0.0613
 1233ERGO    R515916  12.940  17.274   8.901  0.2087  0.2293 -0.1157
 1233ERGO    C115917  13.071  17.207   8.549  0.1924  0.0703 -0.0909
 1233ERGO    C215918  13.126  17.199   8.249  0.0291 -0.1882 -0.3686
 1234ERGO   ROH15919   9.670  17.293   9.470  0.0793 -0.0872  0.1922
 1234ERGO    R115920   9.856  17.354   9.265  0.0509 -0.1830  0.1353
 1234ERGO    R215921   9.877  17.203   9.035 -0.0647 -0.2252  0.1398
 1234ERGO    R315922   9.840  17.444   8.913 -0.0138 -0.2236  0.1309
 1234ERGO    R415923   9.972  17.278   8.711 -0.2089 -0.2889  0.0833
 1234ERGO    R515924  10.037  17.474   8.780 -0.0818 -0.3220  0.0222
 1234ERGO    C115925   9.992  17.546   8.408 -0.2451 -0.3245  0.0420
 1234ERGO    C215926   9.915  17.455   8.087  0.1808  0.0285 -0.0945
 1235ERGO   ROH15927   8.175   9.911   6.175 -0.0957  0.1016  0.3723
 1235ERGO    R115928   8.339   9.901   6.406 -0.0816  0.0902  0.3626
 1235ERGO    R215929   8.614   9.928   6.395 -0.0578 -0.1239  0.3235
 1235ERGO    R315930   8.569  10.125   6.577  0.1051  0.0009  0.2294
 1235ERGO    R415931   8.846  10.041   6.624  0.0917 -0.0737  0.1491
 1235ERGO    R515932   8.687  10.053   6.773  0.1681  0.0751  0.2167
 1235ERGO    C115933   8.940  10.292   6.929  0.3316  0.0727 -0.0409
 1235ERGO    C215934   9.268  10.399   6.982  0.0133 -0.0352  0.2663
 1236ERGO   ROH15935   8.215  14.898   5.917  0.2330  0.3366 -0.0663
 1236ERGO    R115936   8.336  14.995   6.153  0.0076  0.2872  0.0732
 1236ERGO    R215937   8.266  14.904   6.405  0.0272 -0.0449 -0.0335
 1236ERGO    R315938   8.532  14.855   6.426  0.0907  0.2984  0.0185
 1236ERGO    R415939   8.434  14.852   6.702 -0.0199 -0.1374 -0.0228
 1236ERGO    R515940   8.599  14.972   6.624 -0.1498  0.1765  0.1731
 1236ERGO    C115941   8.782  14.776   6.896  0.0121  0.1309  0.0323
 1236ERGO    C215942   8.840  14.782   7.208  0.0117 -0.1135  0.2045
 1237ERGO   ROH15943   5.404   6.666   9.966 -0.2299  0.0039 -0.1109
 1237ERGO    R115944   5.502   6.812   9.744 -0.1422 -0.0003 -0.0753
 1237ERGO    R215945   5.770   6.820   9.677 -0.1191 -0.0272  0.0116
 1237ERGO    R315946   5.679   6.736   9.435 -0.0500 -0.0108 -0.0203
 1237ERGO    R415947   5.926   6.882   9.375 -0.0972  0.0969  0.0480
 1237ERGO    R515948   5.730   6.917   9.286 -0.0971  0.0403  0.0259
 1237ERGO    C115949   5.932   6.840   8.972 -0.0197  0.1846  0.0392
 1237ERGO    C215950   5.937   6.917   8.687 -0.2336 -0.0133 -0.0427
 1238ERGO   ROH15951   9.441   1.394   6.703 -0.1038 -0.2253 -0.0556
 1238ERGO    R115952   9.449   1.400   6.986 -0.1719 -0.1736 -0.0534
 1238ERGO    R215953   9.646   1.534   7.126  0.0019 -0.4360 -0.0281
 1238ERGO    R315954   9.435   1.655   7.245  0.1448 -0.0839 -0.1223
 1238ERGO    R415955   9.628   1.612   7.462 -0.0671 -0.4840 -0.0213
 1238ERGO    R515956   9.419   1.549   7.460 -0.1778 -0.1074 -0.1596
 1238ERGO    C115957   9.418   1.771   7.770  0.0268 -0.1814 -0.1058
 1238ERGO    C215958   9.238   1.967   7.972 -0.0719  0.0562  0.1081
 1239ERGO   ROH15959   1.108  16.201   5.933  0.0837  0.0898 -0.0025
 1239ERGO    R115960   1.080  16.258   6.209 -0.0607 -0.0153  0.0062
 1239ERGO    R215961   1.139  16.073   6.406 -0.0284 -0.0464 -0.0276
 1239ERGO    R315962   1.299  16.272   6.500 -0.1829  0.0208  0.0956
 1239ERGO    R415963   1.183  16.149   6.740 -0.3518  0.0145  0.0046
 1239ERGO    R515964   1.179  16.360   6.687 -0.3794  0.0028 -0.0225
 1239ERGO    C115965   1.359  16.379   7.023 -0.6851  0.1130  0.1389
 1239ERGO    C215966   1.368  16.443   7.335 -0.0626  0.2196  0.1512
 1240ERGO   ROH15967  12.523  12.827   6.431 -0.0143  0.0672 -0.0372
 1240ERGO    R115968  12.546  12.966   6.676 -0.0150  0.2209 -0.1226
 1240ERGO    R215969  12.638  12.845   6.907 -0.3080  0.2779  0.0266
 1240ERGO    R315970  12.814  13.052   6.908 -0.0624  0.0753 -0.0107
 1240ERGO    R415971  12.782  12.980   7.191 -0.3067  0.2855  0.0227
 1240ERGO    R515972  12.756  13.178   7.103 -0.0268  0.2673 -0.1195
 1240ERGO    C115973  13.031  13.253   7.356 -0.0756  0.0998 -0.0146
 1240ERGO    C215974  13.280  13.422   7.495 -0.0529  0.0388  0.0520
 1241ERGO   ROH15975   8.116  11.158   6.045  0.2236  0.0939 -0.0523
 1241ERGO    R115976   8.151  11.002   6.278  0.2876  0.0020 -0.1218
 1241ERGO    R215977   8.379  11.015   6.434  0.2128  0.1582 -0.0179
 1241ERGO    R315978   8.201  11.065   6.633  0.0716 -0.1331 -0.0656
 1241ERGO    R415979   8.460  11.041   6.769  0.0519  0.1527  0.0218
 1241ERGO    R515980   8.278  10.931   6.816  0.1725 -0.0959 -0.0823
 1241ERGO    C115981   8.341  11.103   7.151 -0.1744 -0.1241  0.0003
 1241ERGO    C215982   8.444  11.293   7.411  0.0667  0.0262 -0.0399
 1242ERGO   ROH15983  17.980   5.982   6.431  0.0335  0.3498  0.2700
 1242ERGO    R115984  18.026   5.797   6.640  0.0057  0.0689  0.0343
 1242ERGO    R215985  18.107   5.874   6.892  0.2659 -0.2890  0.0703
 1242ERGO    R315986  17.889   5.732   6.971  0.1813 -0.1621  0.0644
 1242ERGO    R415987  18.077   5.711   7.195  0.1266 -0.1997  0.1049
 1242ERGO    R515988  17.979   5.546   7.091  0.0654 -0.1772  0.1281
 1242ERGO    C115989  17.854   5.483   7.446 -0.0342 -0.0286  0.1196
 1242ERGO    C215990  17.987   5.496   7.775  0.3265 -0.2744 -0.1457
 1243ERGO   ROH15991   4.521   5.736   6.599  0.1994 -0.0579 -0.0012
 1243ERGO    R115992   4.376   5.876   6.798  0.0359 -0.2081 -0.0132
 1243ERGO    R215993   4.300   5.758   7.035  0.3622 -0.2207  0.0886
 1243ERGO    R315994   4.429   5.971   7.145  0.0298  0.0838 -0.0894
 1243ERGO    R415995   4.249   5.875   7.356  0.5187 -0.3438  0.1602
 1243ERGO    R515996   4.261   6.079   7.279 -0.0530 -0.2995  0.1345
 1243ERGO    C115997   4.340   6.143   7.646  0.2978 -0.1296  0.0349
 1243ERGO    C215998   4.158   6.160   8.019  0.2089 -0.2744 -0.0964
 1244ERGO   ROH15999   8.761  12.974   5.907  0.1235 -0.3265  0.0296
 1244ERGO    R116000   8.824  12.946   6.182  0.3951 -0.0846 -0.0028
 1244ERGO    R216001   9.000  13.114   6.312  0.0440  0.4396 -0.1755
 1244ERGO    R316002   8.791  13.149   6.483  0.0546 -0.0769 -0.0399
 1244ERGO    R416003   9.029  13.217   6.641  0.0197  0.3176 -0.1346
 1244ERGO    R516004   8.874  13.073   6.694  0.3306 -0.0342 -0.1254
 1244ERGO    C116005   8.849  13.310   6.992  0.0155 -0.2386  0.0165
 1244ERGO    C216006   9.070  13.506   7.283 -0.1143  0.0030 -0.2327
 1245ERGO   ROH16007  11.119   7.449   6.322  0.0230  0.2919  0.0985
 1245ERGO    R116008  11.175   7.459   6.600  0.0995  0.1621  0.0889
 1245ERGO    R216009  11.012   7.591   6.780  0.1973  0.1572  0.1834
 1245ERGO    R316010  11.013   7.350   6.907  0.1360  0.1067  0.0885
 1245ERGO    R416011  11.039   7.548   7.122  0.3882  0.0088  0.1512
 1245ERGO    R516012  11.170   7.378   7.085  0.2657 -0.0555  0.0015
 1245ERGO    C116013  11.055   7.297   7.440  0.4417 -0.1250  0.0433
 1245ERGO    C216014  10.927   7.234   7.625  0.1133  0.0535  0.3669
 1246ERGO   ROH16015   2.151  10.999   9.684 -0.0039  0.0660  0.0309
 1246ERGO    R116016   2.143  11.095   9.418  0.0160  0.0382  0.0199
 1246ERGO    R216017   2.371  11.137   9.268  0.0269 -0.0065  0.0212
 1246ERGO    R316018   2.245  10.974   9.090  0.0108 -0.0110  0.0369
 1246ERGO    R416019   2.474  11.080   8.943 -0.0265  0.0113  0.0011
 1246ERGO    R516020   2.266  11.087   8.880 -0.0359 -0.0042  0.0373
 1246ERGO    C116021   2.416  10.894   8.587 -0.0727  0.0178  0.0042
 1246ERGO    C216022   2.526  10.723   8.362  0.3197 -0.1667 -0.0908
 1247ERGO   ROH16023   2.669  12.567   6.368 -0.1815 -0.1747  0.0526
 1247ERGO    R116024   2.583  12.546   6.636 -0.1093  0.0560  0.0960
 1247ERGO    R216025   2.706  12.379   6.819 -0.1153  0.1475  0.1831
 1247ERGO    R316026   2.726  12.608   6.965  0.0108  0.2501  0.0094
 1247ERGO    R416027   2.751  12.392   7.162 -0.1601  0.3823  0.1822
 1247ERGO    R516028   2.611  12.558   7.169 -0.0540  0.4820  0.0326
 1247ERGO    C116029   2.796  12.614   7.498 -0.0677  0.6155  0.0187
 1247ERGO    C216030   2.716  12.720   7.839  0.2633  0.1863 -0.0914
 1248ERGO   ROH16031  15.876  17.560   6.111 -0.2533 -0.1957 -0.0271
 1248ERGO    R116032  15.957  17.703   6.341 -0.1264 -0.1886 -0.0770
 1248ERGO    R216033  15.845  17.946   6.412 -0.0700 -0.1813 -0.0370
 1248ERGO    R316034  15.801  17.819   6.649  0.0409 -0.1568 -0.0011
 1248ERGO    R416035  15.777  18.104   6.712 -0.2311 -0.1466 -0.0900
 1248ERGO    R516036  15.905  17.960   6.812 -0.0924 -0.0016 -0.0395
 1248ERGO    C116037  15.696  18.078   7.108 -0.2208 -0.1034 -0.0872
 1248ERGO    C216038  15.608  18.261   7.321  0.0594 -0.0351  0.1540
 1249ERGO   ROH16039   0.796   1.864  10.057  0.3116  0.0873  0.1039
 1249ERGO    R116040   0.925   1.853   9.805  0.2156 -0.0591  0.0591
 1249ERGO    R216041   0.847   1.680   9.604  0.0135 -0.0418  0.1194
 1249ERGO    R316042   0.831   1.908   9.458  0.1319 -0.0576  0.0817
 1249ERGO    R416043   0.830   1.692   9.260  0.1057 -0.0860  0.1132
 1249ERGO    R516044   0.965   1.863   9.264  0.1654 -0.1332  0.1220
 1249ERGO    C116045   0.806   1.913   8.921  0.2705 -0.1266  0.0743
 1249ERGO    C216046   0.727   1.941   8.672  0.0567  0.0247 -0.0325
 1250ERGO   ROH16047  17.012  13.382   9.475 -0.2003 -0.2368  0.1530
 1250ERGO    R116048  17.002  13.515   9.225 -0.3973 -0.1801  0.1903
 1250ERGO    R216049  17.215  13.517   9.049 -0.3788  0.2305  0.2153
 1250ERGO    R316050  17.030  13.420   8.874 -0.1992 -0.0339  0.1639
 1250ERGO    R416051  17.270  13.462   8.712 -0.1361  0.0823  0.2752
 1250ERGO    R516052  17.070  13.540   8.671 -0.1875 -0.1124  0.1157
 1250ERGO    C116053  17.128  13.340   8.352  0.1738 -0.2524  0.2617
 1250ERGO    C216054  17.106  13.290   8.084 -0.1372  0.0144 -0.1642
 1251ERGO   ROH16055  13.496   7.727   9.510 -0.1991  0.3244  0.1142
 1251ERGO    R116056  13.461   7.620   9.250  0.0159  0.1527  0.1521
 1251ERGO    R216057  13.295   7.737   9.062 -0.2075 -0.2336  0.0967
 1251ERGO    R316058  13.519   7.731   8.908 -0.1811  0.1382  0.1130
 1251ERGO    R416059  13.297   7.738   8.717 -0.1920 -0.3062  0.0970
 1251ERGO    R516060  13.459   7.593   8.722  0.0772 -0.0156  0.1395
 1251ERGO    C116061  13.508   7.733   8.371 -0.1582  0.0005  0.1124
 1251ERGO    C216062  13.591   7.764   8.059  0.0584  0.0183 -0.0205
 1252ERGO   ROH16063  12.491   7.270   6.312 -0.0429 -0.1255  0.0651
 1252ERGO    R116064  12.609   7.285   6.568 -0.0693 -0.2120  0.0821
 1252ERGO    R216065  12.701   7.521   6.676  0.2918 -0.3108  0.0009
 1252ERGO    R316066  12.539   7.453   6.883  0.1357  0.0345  0.0007
 1252ERGO    R416067  12.744   7.626   7.003  0.3709 -0.1999 -0.0442
 1252ERGO    R516068  12.688   7.425   7.069  0.0566 -0.0908  0.0495
 1252ERGO    C116069  12.616   7.623   7.387  0.2705  0.1888 -0.0705
 1252ERGO    C216070  12.405   7.824   7.689 -0.0179  0.1661 -0.1368
 1253ERGO   ROH16071  15.194   2.712   9.833 -0.0502 -0.0026  0.0772
 1253ERGO    R116072  15.129   2.892   9.625 -0.1892  0.0428  0.1581
 1253ERGO    R216073  15.210   2.852   9.363  0.1691  0.4117  0.2032
 1253ERGO    R316074  14.945   2.877   9.311  0.1608 -0.0761 -0.0477
 1253ERGO    R416075  15.076   3.039   9.106  0.0620  0.3123  0.1858
 1253ERGO    R516076  14.919   3.105   9.241 -0.2120 -0.0752  0.0718
 1253ERGO    C116077  14.749   3.172   8.906 -0.0080 -0.2035 -0.0600
 1253ERGO    C216078  14.506   3.398   8.638 -0.0595  0.2582 -0.0996
 1254ERGO   ROH16079  13.694   1.291   9.977  0.0494  0.1732 -0.1468
 1254ERGO    R116080  13.540   1.218   9.751  0.0242  0.0955 -0.1052
 1254ERGO    R216081  13.422   1.405   9.584 -0.0289  0.0377 -0.1328
 1254ERGO    R316082  13.558   1.270   9.391 -0.0400  0.0102 -0.1214
 1254ERGO    R416083  13.421   1.485   9.248 -0.0769 -0.0294 -0.1487
 1254ERGO    R516084  13.412   1.273   9.202 -0.0638 -0.0405 -0.1044
 1254ERGO    C116085  13.547   1.406   8.871 -0.1154 -0.0943 -0.1472
 1254ERGO    C216086  13.695   1.591   8.532 -0.1508 -0.1246  0.1187
 1255ERGO   ROH16087   1.392   6.870   6.540 -0.0703 -0.2402  0.0308
 1255ERGO    R116088   1.614   6.783   6.692  0.0098 -0.0401  0.0320
 1255ERGO    R216089   1.707   6.920   6.913 -0.2231 -0.0453  0.1329
 1255ERGO    R316090   1.676   6.679   7.036  0.0617 -0.1615 -0.0122
 1255ERGO    R416091   1.880   6.819   7.195 -0.2205  0.0666  0.1718
 1255ERGO    R516092   1.897   6.620   7.106  0.1202  0.1298  0.0720
 1255ERGO    C116093   1.951   6.535   7.474  0.0484  0.0226  0.0581
 1255ERGO    C216094   2.132   6.568   7.869  0.1394  0.0946 -0.0572
 1256ERGO   ROH16095  17.663   7.416   6.717  0.1570  0.1273 -0.1437
 1256ERGO    R116096  17.655   7.536   6.973 -0.0612  0.0670 -0.1203
 1256ERGO    R216097  17.550   7.408   7.194  0.0543 -0.1190 -0.1693
 1256ERGO    R316098  17.792   7.466   7.303 -0.0424  0.1801 -0.1039
 1256ERGO    R416099  17.616   7.420   7.533 -0.0189 -0.1778 -0.1527
 1256ERGO    R516100  17.741   7.596   7.497 -0.2619  0.0199 -0.0519
 1256ERGO    C116101  17.883   7.482   7.832 -0.1525  0.0686 -0.0817
 1256ERGO    C216102  17.822   7.190   8.045 -0.0590 -0.2950 -0.0768
 1257ERGO   ROH16103   4.442  11.083   9.730  0.1367  0.2779  0.0879
 1257ERGO    R116104   4.324  10.947   9.512  0.0699  0.2731  0.1273
 1257ERGO    R216105   4.319  11.051   9.255  0.0582  0.2328  0.1145
 1257ERGO    R316106   4.435  10.814   9.192 -0.0131  0.1927  0.1298
 1257ERGO    R416107   4.351  10.926   8.935  0.0264  0.2151  0.1180
 1257ERGO    R516108   4.303  10.728   9.012 -0.0390  0.2292  0.1271
 1257ERGO    C116109   4.479  10.630   8.689 -0.0591  0.1671  0.1345
 1257ERGO    C216110   4.535  10.472   8.397 -0.1250  0.1568  0.1369
 1258ERGO   ROH16111  14.945   5.915   6.706 -0.1612  0.3576 -0.1799
 1258ERGO    R116112  15.078   5.937   6.955 -0.0809  0.1419 -0.2022
 1258ERGO    R216113  15.104   6.176   7.090  0.0227  0.0388 -0.0351
 1258ERGO    R316114  14.992   6.037   7.294  0.0468 -0.0797 -0.1018
 1258ERGO    R416115  15.135   6.257   7.424 -0.1187 -0.0260 -0.0058
 1258ERGO    R516116  15.155   6.045   7.469 -0.0058 -0.0262 -0.0540
 1258ERGO    C116117  15.047   6.173   7.811 -0.1784 -0.1749 -0.0515
 1258ERGO    C216118  14.975   6.287   8.208 -0.0514  0.0300 -0.2905
 1259ERGO   ROH16119  14.881   9.765   9.437  0.2314  0.0288  0.1394
 1259ERGO    R116120  15.101   9.770   9.259  0.1686  0.1261  0.0624
 1259ERGO    R216121  15.145   9.571   9.072  0.2518  0.0865  0.1189
 1259ERGO    R316122  15.149   9.781   8.899  0.0345  0.0283  0.0420
 1259ERGO    R416123  15.289   9.566   8.757  0.2512  0.1242  0.1183
 1259ERGO    R516124  15.363   9.768   8.793  0.0449  0.2122  0.0432
 1259ERGO    C116125  15.376   9.760   8.412  0.0466  0.0916  0.0459
 1259ERGO    C216126  15.496   9.736   8.077 -0.2148 -0.0984 -0.0764
 1260ERGO   ROH16127   5.452  15.861   8.982  0.0618  0.2035  0.0954
 1260ERGO    R116128   5.291  15.908   8.753  0.1477  0.3905  0.0730
 1260ERGO    R216129   5.388  16.035   8.527  0.4610 -0.0916 -0.0740
 1260ERGO    R316130   5.297  15.811   8.403 -0.1523  0.0033  0.1670
 1260ERGO    R416131   5.318  16.011   8.190  0.2212 -0.2135 -0.0187
 1260ERGO    R516132   5.142  15.893   8.239 -0.0529  0.2438  0.1843
 1260ERGO    C116133   5.191  15.787   7.876 -0.4942 -0.1956  0.2399
 1260ERGO    C216134   5.047  15.618   7.560  0.1224 -0.0267  0.1287
 1261ERGO   ROH16135  15.222  16.094   9.468 -0.5560 -0.0040  0.0167
 1261ERGO    R116136  15.334  16.127   9.210 -0.2809 -0.0973  0.1207
 1261ERGO    R216137  15.218  16.021   8.983 -0.1031 -0.0794  0.0221
 1261ERGO    R316138  15.232  16.278   8.895  0.1047 -0.0997 -0.0116
 1261ERGO    R416139  15.151  16.122   8.660 -0.1467 -0.0542  0.0386
 1261ERGO    R516140  15.320  16.259   8.673 -0.0064 -0.2116 -0.0490
 1261ERGO    C116141  15.124  16.422   8.388  0.0230 -0.0584  0.0167
 1261ERGO    C216142  15.140  16.556   8.026  0.2018 -0.0231 -0.0821
 1262ERGO   ROH16143   4.308  15.931   9.653 -0.0239 -0.0367  0.1067
 1262ERGO    R116144   4.234  16.057   9.410 -0.0580 -0.0578  0.1057
 1262ERGO    R216145   4.418  16.125   9.216 -0.0607  0.0907  0.1507
 1262ERGO    R316146   4.254  15.979   9.056  0.0712 -0.0041  0.1014
 1262ERGO    R416147   4.395  16.159   8.873  0.1716 -0.0712  0.1171
 1262ERGO    R516148   4.180  16.134   8.889  0.1646 -0.0924 -0.0226
 1262ERGO    C116149   4.228  16.042   8.523  0.4306 -0.2545  0.0512
 1262ERGO    C216150   4.119  15.961   8.251  0.2080 -0.0585  0.1081
 1263ERGO   ROH16151   9.396   3.825   6.186  0.0040  0.1367  0.0342
 1263ERGO    R116152   9.418   3.886   6.462  0.0213  0.2259  0.0144
 1263ERGO    R216153   9.536   3.716   6.643 -0.0956  0.2150  0.0918
 1263ERGO    R316154   9.687   3.934   6.701  0.0353  0.1455  0.0119
 1263ERGO    R416155   9.686   3.776   6.949  0.0599  0.1830  0.0220
 1263ERGO    R516156   9.631   3.987   6.929  0.1576  0.2013  0.0245
 1263ERGO    C116157   9.914   4.017   7.182  0.2733  0.0991 -0.0935
 1263ERGO    C216158  10.065   4.087   7.386  0.0543 -0.3604  0.0873
 1264ERGO   ROH16159  13.123  10.273   6.121 -0.2390 -0.2945  0.1467
 1264ERGO    R116160  13.273  10.194   6.349 -0.0649 -0.0974  0.1032
 1264ERGO    R216161  13.490  10.337   6.441 -0.1268  0.1016 -0.0592
 1264ERGO    R316162  13.352  10.335   6.675 -0.0065  0.0836  0.0128
 1264ERGO    R416163  13.632  10.371   6.754  0.0482  0.0038 -0.1265
 1264ERGO    R516164  13.495  10.218   6.827  0.0497  0.0175 -0.0870
 1264ERGO    C116165  13.585  10.388   7.156  0.2630 -0.0700 -0.0980
 1264ERGO    C216166  13.704  10.671   7.305 -0.1508 -0.0444 -0.1177
 1265ERGO   ROH16167  12.914  12.807   9.500 -0.0707  0.0070  0.1693
 1265ERGO    R116168  12.877  12.793   9.220  0.0051  0.1990  0.1490
 1265ERGO    R216169  13.087  12.815   9.041  0.0988  0.0013  0.2341
 1265ERGO    R316170  12.990  12.579   8.948 -0.1974  0.1769  0.0804
 1265ERGO    R416171  13.124  12.700   8.717  0.4124 -0.0601  0.2884
 1265ERGO    R516172  12.919  12.628   8.725  0.2516  0.3201 -0.0430
 1265ERGO    C116173  13.055  12.411   8.442  0.3169  0.0691  0.1756
 1265ERGO    C216174  13.089  12.399   8.113 -0.0411 -0.0733 -0.0273
 1266ERGO   ROH16175  13.271  11.309   9.585  0.0691  0.2854  0.0213
 1266ERGO    R116176  13.364  11.306   9.318  0.0005  0.2394 -0.0021
 1266ERGO    R216177  13.476  11.082   9.202  0.0131  0.2342  0.0236
 1266ERGO    R316178  13.286  11.124   9.013 -0.0429  0.1515  0.0605
 1266ERGO    R416179  13.516  11.020   8.865 -0.0585  0.1512  0.0297
 1266ERGO    R516180  13.407  11.204   8.823 -0.1022  0.1233  0.0084
 1266ERGO    C116181  13.361  11.023   8.490 -0.1528  0.0251  0.0680
 1266ERGO    C216182  13.262  10.980   8.147 -0.1393  0.0375  0.2014
 1267ERGO   ROH16183   2.342   5.157   6.347 -0.1021  0.1711  0.0917
 1267ERGO    R116184   2.255   5.099   6.610 -0.0999  0.0579  0.0681
 1267ERGO    R216185   2.399   4.939   6.782 -0.1127 -0.0414 -0.0106
 1267ERGO    R316186   2.378   5.154   6.948 -0.0811 -0.1155  0.0902
 1267ERGO    R416187   2.533   4.957   7.101  0.0275 -0.1498 -0.0626
 1267ERGO    R516188   2.352   5.058   7.166  0.0368 -0.2132  0.0627
 1267ERGO    C116189   2.591   5.170   7.441  0.1388 -0.2826  0.0017
 1267ERGO    C216190   2.833   5.065   7.750 -0.0943  0.1935 -0.2023
 1268ERGO   ROH16191  17.117  17.393   9.694 -0.1690 -0.1536  0.0416
 1268ERGO    R116192  17.188  17.322   9.430 -0.1609 -0.1530  0.0435
 1268ERGO    R216193  17.019  17.178   9.264 -0.2475  0.0388 -0.0381
 1268ERGO    R316194  17.060  17.387   9.095 -0.0117  0.0456  0.0236
 1268ERGO    R416195  17.076  17.149   8.925 -0.1093  0.0685 -0.0185
 1268ERGO    R516196  17.225  17.307   8.941  0.0025 -0.0448  0.0847
 1268ERGO    C116197  17.147  17.328   8.568  0.1923  0.0924  0.0510
 1268ERGO    C216198  16.968  17.312   8.382 -0.2067 -0.0136  0.2100
 1269ERGO   ROH16199   5.065  12.777   6.265 -0.2832 -0.1995  0.0654
 1269ERGO    R116200   4.976  12.749   6.532 -0.0474 -0.1060  0.1568
 1269ERGO    R216201   5.150  12.727   6.746  0.1461  0.1841  0.0376
 1269ERGO    R316202   5.008  12.938   6.842  0.0381  0.1242  0.0105
 1269ERGO    R416203   5.067  12.776   7.078  0.1655  0.2124  0.0381
 1269ERGO    R516204   4.871  12.844   7.015  0.1167  0.0848  0.0512
 1269ERGO    C116205   4.886  13.003   7.361  0.0754  0.1727  0.0131
 1269ERGO    C216206   5.071  13.055   7.641 -0.1305 -0.1630 -0.1000
 1270ERGO   ROH16207  14.088  14.252   9.567  0.0648 -0.0209  0.0226
 1270ERGO    R116208  14.142  14.080   9.349  0.1984  0.0703 -0.0177
 1270ERGO    R216209  13.943  13.990   9.179  0.2428 -0.1620  0.0532
 1270ERGO    R316210  14.106  14.093   8.987  0.0378  0.0679 -0.0035
 1270ERGO    R416211  13.868  14.002   8.842  0.0487 -0.1373  0.0961
 1270ERGO    R516212  14.075  13.948   8.799  0.0875  0.0893 -0.0309
 1270ERGO    C116213  13.976  14.105   8.466 -0.2567  0.0929  0.0679
 1270ERGO    C216214  14.042  14.064   8.101 -0.1805 -0.0505  0.0113
 1271ERGO   ROH16215  14.668   1.031   9.853 -0.0427 -0.0631 -0.0146
 1271ERGO    R116216  14.714   1.036   9.573  0.0054  0.0175 -0.0071
 1271ERGO    R216217  14.587   0.863   9.398  0.1840 -0.0748 -0.0607
 1271ERGO    R316218  14.516   1.095   9.274  0.0040 -0.1126 -0.0292
 1271ERGO    R416219  14.543   0.899   9.057  0.2832 -0.0157 -0.0666
 1271ERGO    R516220  14.642   1.093   9.070  0.0818  0.0733  0.0230
 1271ERGO    C116221  14.452   1.137   8.742  0.1720 -0.0168 -0.0404
 1271ERGO    C216222  14.404   1.212   8.439 -0.1377 -0.2416 -0.1066
 1272ERGO   ROH16223  17.621   0.888   6.684  0.0889 -0.1193 -0.1392
 1272ERGO    R116224  17.478   0.832   6.922  0.1948 -0.0292 -0.0499
 1272ERGO    R216225  17.453   1.015   7.127  0.1339  0.1255 -0.1717
 1272ERGO    R316226  17.188   0.967   7.094  0.1605 -0.0775 -0.0803
 1272ERGO    R416227  17.202   1.135   7.332  0.0742  0.0904 -0.2278
 1272ERGO    R516228  17.102   0.943   7.316  0.2087  0.0263 -0.0650
 1272ERGO    C116229  16.807   1.160   7.420  0.0643 -0.1206 -0.1747
 1272ERGO    C216230  16.406   1.310   7.557  0.1104  0.2139 -0.1647
 1273ERGO   ROH16231   6.159   5.492   6.473  0.0489 -0.1631  0.2060
 1273ERGO    R116232   6.157   5.469   6.755 -0.1232 -0.0554  0.2150
 1273ERGO    R216233   6.250   5.670   6.921  0.0412 -0.1046  0.1842
 1273ERGO    R316234   6.004   5.646   7.033 -0.0497  0.2424  0.0704
 1273ERGO    R416235   6.159   5.803   7.226  0.1675 -0.1876  0.2589
 1273ERGO    R516236   6.047   5.620   7.267 -0.1787 -0.0292  0.0679
 1273ERGO    C116237   5.874   5.858   7.510  0.1557  0.0897  0.1955
 1273ERGO    C216238   5.716   6.036   7.788 -0.1425  0.3183  0.3025
 1274ERGO   ROH16239   9.537  11.530   9.407 -0.0684 -0.1664  0.0330
 1274ERGO    R116240   9.495  11.473   9.133 -0.0967  0.0473 -0.0089
 1274ERGO    R216241   9.419  11.666   8.951  0.1948  0.2576  0.0871
 1274ERGO    R316242   9.638  11.579   8.816  0.1049  0.0398  0.0778
 1274ERGO    R416243   9.431  11.610   8.610  0.0933  0.1466  0.1009
 1274ERGO    R516244   9.550  11.431   8.649 -0.0433  0.0596  0.1352
 1274ERGO    C116245   9.644  11.496   8.285 -0.0500 -0.1226  0.1002
 1274ERGO    C216246   9.749  11.710   7.881 -0.0935 -0.0799  0.1301
 1275ERGO   ROH16247   8.570   3.208   9.751  0.3150  0.1705  0.0470
 1275ERGO    R116248   8.518   3.083   9.502  0.1341  0.1962  0.0710
 1275ERGO    R216249   8.479   3.226   9.269  0.1880  0.2125  0.0738
 1275ERGO    R316250   8.679   3.066   9.176  0.0240  0.0337  0.0234
 1275ERGO    R416251   8.544   3.166   8.935  0.0770  0.1925  0.0554
 1275ERGO    R516252   8.583   2.957   8.985 -0.1119  0.1466  0.0242
 1275ERGO    C116253   8.769   2.981   8.653 -0.1415  0.0130 -0.0028
 1275ERGO    C216254   8.912   2.814   8.559 -0.2762  0.0612 -0.1034
 1276ERGO   ROH16255   4.155  11.875   6.492  0.1925  0.2415  0.1636
 1276ERGO    R116256   4.213  11.855   6.768  0.0966  0.1825  0.1792
 1276ERGO    R216257   4.213  12.074   6.936 -0.0962  0.1250  0.2520
 1276ERGO    R316258   4.038  11.922   7.080 -0.0643 -0.0239  0.1375
 1276ERGO    R416259   4.116  12.139   7.262 -0.1983 -0.0703  0.2628
 1276ERGO    R516260   4.127  11.925   7.303 -0.1132 -0.0906  0.1613
 1276ERGO    C116261   3.896  12.036   7.586 -0.2277 -0.3238  0.1616
 1276ERGO    C216262   3.662  12.027   7.810  0.0769 -0.2022  0.1346
 1277ERGO   ROH16263   3.491   5.267   6.460 -0.5023 -0.2500  0.0351
 1277ERGO    R116264   3.561   5.290   6.733 -0.2628 -0.0861 -0.0362
 1277ERGO    R216265   3.372   5.318   6.932 -0.0892  0.0533  0.1134
 1277ERGO    R316266   3.499   5.102   7.038 -0.0166  0.1076  0.1367
 1277ERGO    R416267   3.298   5.176   7.239  0.0254  0.1221  0.1737
 1277ERGO    R516268   3.511   5.150   7.273  0.0403  0.1741  0.1203
 1277ERGO    C116269   3.373   4.890   7.516  0.1604  0.2132  0.2307
 1277ERGO    C216270   3.296   4.754   7.791 -0.3204 -0.0127 -0.1241
 1278ERGO   ROH16271   6.454   4.392   6.636  0.0296 -0.0734  0.0627
 1278ERGO    R116272   6.546   4.444   6.899  0.1465 -0.1341  0.0346
 1278ERGO    R216273   6.781   4.579   6.951  0.0034  0.1535 -0.0421
 1278ERGO    R316274   6.620   4.738   7.100 -0.1132 -0.1696  0.1867
 1278ERGO    R416275   6.887   4.777   7.213 -0.0662  0.1672 -0.0244
 1278ERGO    R516276   6.707   4.720   7.322  0.1070 -0.1656  0.1028
 1278ERGO    C116277   6.797   5.041   7.507 -0.2161 -0.1283  0.2007
 1278ERGO    C216278   6.861   5.313   7.688 -0.1131 -0.0064  0.1270
 1279ERGO   ROH16279  10.757   4.616  10.012  0.0182  0.1884 -0.0822
 1279ERGO    R116280  10.894   4.627   9.765  0.0300  0.0227 -0.0848
 1279ERGO    R216281  11.040   4.414   9.665 -0.0642 -0.0880  0.0050
 1279ERGO    R316282  10.882   4.449   9.447 -0.0451 -0.1044 -0.0107
 1279ERGO    R416283  11.068   4.236   9.371 -0.0826 -0.1511  0.0416
 1279ERGO    R516284  11.030   4.421   9.261 -0.0428 -0.1686  0.0030
 1279ERGO    C116285  10.935   4.165   8.994 -0.0753 -0.2031  0.0482
 1279ERGO    C216286  10.877   3.973   8.705 -0.1591 -0.2077  0.0290
 1280ERGO   ROH16287   7.765   5.632   9.785  0.0041  0.0405  0.0104
 1280ERGO    R116288   7.622   5.603   9.542  0.0104 -0.0987  0.0207
 1280ERGO    R216289   7.538   5.820   9.391 -0.1254 -0.1759 -0.0300
 1280ERGO    R316290   7.673   5.691   9.193 -0.0511 -0.1446  0.0020
 1280ERGO    R416291   7.469   5.848   9.054  0.0387 -0.0992 -0.0565
 1280ERGO    R516292   7.505   5.635   9.033  0.0237 -0.0913 -0.0885
 1280ERGO    C116293   7.556   5.744   8.672  0.2040 -0.0250 -0.0421
 1280ERGO    C216294   7.474   5.893   8.452 -0.0003  0.1840 -0.1232
 1281ERGO   ROH16295  10.452   8.969   6.232  0.1540 -0.4492  0.1471
 1281ERGO    R116296  10.608   8.926   6.465  0.0823 -0.5507  0.1754
 1281ERGO    R216297  10.633   9.116   6.664  0.3846 -0.4593  0.0501
 1281ERGO    R316298  10.548   8.913   6.823  0.0537 -0.2240  0.1862
 1281ERGO    R416299  10.622   9.126   7.009  0.2643 -0.1637  0.0408
 1281ERGO    R516300  10.693   8.921   7.013 -0.0052 -0.2613  0.2353
 1281ERGO    C116301  10.535   8.942   7.360 -0.1165  0.2295  0.1632
 1281ERGO    C216302  10.390   8.955   7.751 -0.2668 -0.1031 -0.0618
 1282ERGO   ROH16303   3.670   3.133   6.814  0.2399  0.1127  0.0455
 1282ERGO    R116304   3.833   3.283   6.990  0.0142  0.3395  0.0677
 1282ERGO    R216305   3.730   3.429   7.201 -0.1993 -0.0125  0.2182
 1282ERGO    R316306   3.907   3.284   7.347  0.1791  0.2491  0.0345
 1282ERGO    R416307   3.846   3.516   7.515 -0.4379 -0.1039  0.3335
 1282ERGO    R516308   4.044   3.448   7.455 -0.2443  0.4795  0.2453
 1282ERGO    C116309   4.080   3.430   7.834 -0.2216  0.0885  0.2282
 1282ERGO    C216310   4.054   3.337   8.146 -0.1078  0.1055 -0.1940
 1283ERGO   ROH16311   3.923  15.593   6.249 -0.0628  0.0722 -0.0620
 1283ERGO    R116312   3.993  15.596   6.523 -0.1598 -0.1627 -0.0316
 1283ERGO    R216313   4.098  15.819   6.648  0.1164 -0.3672  0.1185
 1283ERGO    R316314   3.892  15.781   6.820 -0.0098 -0.1589  0.0173
 1283ERGO    R416315   4.084  15.942   6.971  0.0329 -0.2712  0.0786
 1283ERGO    R516316   3.996  15.753   7.033 -0.1500 -0.1849  0.0821
 1283ERGO    C116317   3.882  15.976   7.320 -0.1341 -0.0198 -0.0397
 1283ERGO    C216318   3.795  16.052   7.616 -0.0420 -0.0797  0.1656
 1284ERGO   ROH16319   5.230   2.534   9.581 -0.1078  0.1714  0.0143
 1284ERGO    R116320   5.230   2.614   9.309 -0.1241  0.1004 -0.0071
 1284ERGO    R216321   5.462   2.644   9.163 -0.1315  0.0584 -0.0311
 1284ERGO    R316322   5.338   2.472   8.992 -0.1467  0.0143  0.0242
 1284ERGO    R416323   5.447   2.684   8.820 -0.1880 -0.0212 -0.0381
 1284ERGO    R516324   5.240   2.615   8.826 -0.1804 -0.0314  0.0075
 1284ERGO    C116325   5.322   2.547   8.460 -0.2354 -0.1089  0.0096
 1284ERGO    C216326   5.308   2.490   8.128  0.1836  0.0827 -0.2299
 1285ERGO   ROH16327   6.108  17.000   9.368  0.0919  0.0814  0.0671
 1285ERGO    R116328   5.954  17.170   9.203  0.1244  0.0737  0.0299
 1285ERGO    R216329   6.069  17.346   9.023  0.1574  0.0444  0.0278
 1285ERGO    R316330   5.907  17.220   8.845  0.1701  0.0405  0.0179
 1285ERGO    R416331   6.015  17.450   8.698  0.1691  0.0570  0.0295
 1285ERGO    R516332   5.804  17.398   8.722  0.1667  0.0445  0.0206
 1285ERGO    C116333   5.832  17.392   8.341  0.1879  0.0608  0.0212
 1285ERGO    C216334   5.920  17.511   8.050  0.0217 -0.1544  0.0008
 1286ERGO   ROH16335   4.327   2.552   6.832 -0.0912 -0.1426 -0.1016
 1286ERGO    R116336   4.239   2.355   7.016 -0.0688 -0.0789 -0.0214
 1286ERGO    R216337   4.395   2.269   7.226  0.0034 -0.0875 -0.0752
 1286ERGO    R316338   4.177   2.336   7.374  0.0930  0.0135  0.0121
 1286ERGO    R416339   4.332   2.158   7.548 -0.0503 -0.2723 -0.1487
 1286ERGO    R516340   4.122   2.136   7.493 -0.0818 -0.0261 -0.1320
 1286ERGO    C116341   4.091   2.157   7.873  0.0026 -0.2853 -0.1096
 1286ERGO    C216342   3.813   2.200   8.118 -0.1203 -0.1231 -0.2449
 1287ERGO   ROH16343  17.367   1.954  10.053 -0.0043 -0.2772  0.1808
 1287ERGO    R116344  17.473   1.815   9.831  0.0958 -0.0734  0.0989
 1287ERGO    R216345  17.317   1.737   9.617  0.1168 -0.2048  0.1334
 1287ERGO    R316346  17.504   1.873   9.473 -0.1054  0.0799  0.1033
 1287ERGO    R416347  17.403   1.667   9.289  0.3868 -0.2958  0.2202
 1287ERGO    R516348  17.612   1.704   9.341  0.3039  0.1865  0.2797
 1287ERGO    C116349  17.628   1.755   8.963  0.3355 -0.0815  0.2424
 1287ERGO    C216350  17.606   1.767   8.547 -0.2285 -0.1124 -0.0263
 1288ERGO   ROH16351   4.158   9.247   6.404 -0.2921  0.2581  0.0464
 1288ERGO    R116352   4.275   9.270   6.661 -0.2028  0.1899  0.0128
 1288ERGO    R216353   4.363   9.512   6.763 -0.2054  0.1706  0.0640
 1288ERGO    R316354   4.200   9.445   6.970 -0.1209  0.0725  0.0996
 1288ERGO    R416355   4.390   9.635   7.085 -0.1938  0.1647  0.0651
 1288ERGO    R516356   4.344   9.436   7.160 -0.0713  0.1367  0.0642
 1288ERGO    C116357   4.253   9.644   7.467 -0.1076  0.0690  0.0992
 1288ERGO    C216358   4.286   9.610   7.827  0.0160  0.0327  0.0195
 1289ERGO   ROH16359  13.319   2.271  10.100 -0.0619  0.3802  0.2339
 1289ERGO    R116360  13.272   2.214   9.827 -0.0082  0.0365  0.2917
 1289ERGO    R216361  13.056   2.317   9.688 -0.0600 -0.2481  0.1514
 1289ERGO    R316362  13.248   2.404   9.517 -0.0973 -0.3307  0.0674
 1289ERGO    R416363  12.997   2.446   9.373 -0.1370 -0.2926  0.1480
 1289ERGO    R516364  13.171   2.337   9.301 -0.1910 -0.3513  0.1074
 1289ERGO    C116365  13.143   2.604   9.029 -0.2168 -0.3961  0.0671
 1289ERGO    C216366  13.026   2.604   8.798  0.0336 -0.1561  0.0758
 1290ERGO   ROH16367   8.508   6.247   6.312 -0.0437  0.1758  0.1915
 1290ERGO    R116368   8.653   6.327   6.541 -0.0053  0.1508  0.1750
 1290ERGO    R216369   8.532   6.434   6.765  0.0389  0.1774  0.1828
 1290ERGO    R316370   8.665   6.234   6.893  0.0134  0.1550  0.1761
 1290ERGO    R416371   8.601   6.428   7.104 -0.0985  0.0854  0.2110
 1290ERGO    R516372   8.799   6.348   7.057 -0.0668  0.1249  0.2654
 1290ERGO    C116373   8.767   6.238   7.421 -0.2025  0.0107  0.2210
 1290ERGO    C216374   8.844   6.427   7.809 -0.2120  0.0692  0.1123
 1291ERGO   ROH16375   6.923  10.048   6.525 -0.1093 -0.0962 -0.0610
 1291ERGO    R116376   7.087  10.045   6.756 -0.0803 -0.0378 -0.0806
 1291ERGO    R216377   7.160  10.275   6.890 -0.1246 -0.0091 -0.1041
 1291ERGO    R316378   7.055  10.145   7.104 -0.0649 -0.0236 -0.0836
 1291ERGO    R416379   7.227  10.352   7.220  0.1036 -0.1452 -0.1162
 1291ERGO    R516380   7.234  10.139   7.264  0.0239 -0.1617 -0.1873
 1291ERGO    C116381   7.167  10.275   7.614  0.2925 -0.2380 -0.1039
 1291ERGO    C216382   7.203  10.469   7.901  0.1639  0.1750  0.2762
 1292ERGO   ROH16383  13.889  12.114   9.611 -0.2351 -0.0591  0.1630
 1292ERGO    R116384  13.784  12.079   9.351 -0.0254 -0.1218  0.0863
 1292ERGO    R216385  13.869  12.229   9.134  0.1033 -0.1362  0.1377
 1292ERGO    R316386  13.913  11.985   9.024  0.2458 -0.1384  0.1923
 1292ERGO    R416387  13.924  12.172   8.798 -0.1731 -0.1909  0.0976
 1292ERGO    R516388  13.799  11.994   8.813  0.0161 -0.3258  0.2943
 1292ERGO    C116389  13.998  11.909   8.498 -0.2002 -0.2248  0.1256
 1292ERGO    C216390  14.137  11.873   8.228  0.0998 -0.1719  0.2855
 1293ERGO   ROH16391  10.368  14.166   9.077 -0.1382  0.0020 -0.0026
 1293ERGO    R116392  10.441  14.204   8.807 -0.0613 -0.0924  0.0043
 1293ERGO    R216393  10.677  14.106   8.701  0.0283 -0.0252  0.1354
 1293ERGO    R316394  10.511  13.991   8.520  0.1489 -0.1989  0.1320
 1293ERGO    R416395  10.728  14.105   8.359 -0.0494  0.1770  0.1226
 1293ERGO    R516396  10.515  14.141   8.333 -0.1101 -0.1200  0.1869
 1293ERGO    C116397  10.601  13.998   7.990  0.0186  0.1317  0.1121
 1293ERGO    C216398  10.240  13.822   7.841  0.3254  0.2688  0.3467
 1294ERGO   ROH16399   1.314   2.860   9.888  0.2841  0.1335 -0.0695
 1294ERGO    R116400   1.276   2.919   9.614  0.2639  0.1114 -0.0718
 1294ERGO    R216401   1.476   2.885   9.425  0.1928 -0.0841 -0.1159
 1294ERGO    R316402   1.287   2.735   9.300  0.0410  0.0410 -0.0403
 1294ERGO    R416403   1.420   2.882   9.084  0.0635 -0.0587 -0.0952
 1294ERGO    R516404   1.206   2.876   9.124  0.0726  0.0910 -0.0149
 1294ERGO    C116405   1.211   2.739   8.768 -0.1544  0.0736 -0.0121
 1294ERGO    C216406   1.059   2.776   8.433  0.5177  0.1157 -0.0573
 1295ERGO   ROH16407  13.258  16.184   5.988 -0.3180 -0.3798 -0.2838
 1295ERGO    R116408  13.219  16.008   6.207 -0.2534 -0.2139 -0.1355
 1295ERGO    R216409  13.404  15.980   6.410 -0.1010 -0.2009 -0.2667
 1295ERGO    R316410  13.191  16.038   6.568  0.0641  0.0423 -0.1286
 1295ERGO    R416411  13.386  15.915   6.749  0.0871 -0.0569 -0.2282
 1295ERGO    R516412  13.179  15.855   6.722  0.0151  0.1124 -0.0521
 1295ERGO    C116413  13.176  15.933   7.095  0.3517  0.2552 -0.0761
 1295ERGO    C216414  13.170  15.829   7.381  0.2254  0.0372  0.0690
 1296ERGO   ROH16415  10.349   8.040   6.534  0.0140  0.2825  0.1089
 1296ERGO    R116416  10.339   7.786   6.660  0.0193  0.2214 -0.0126
 1296ERGO    R216417  10.529   7.591   6.616 -0.0436  0.2008 -0.2016
 1296ERGO    R316418  10.550   7.596   6.887  0.0873  0.0614 -0.2075
 1296ERGO    R416419  10.572   7.312   6.816 -0.0442  0.0886 -0.3559
 1296ERGO    R516420  10.433   7.400   6.959  0.0542  0.0672 -0.2468
 1296ERGO    C116421  10.616   7.154   7.186  0.0786 -0.1076 -0.4513
 1296ERGO    C216422  10.727   6.916   7.223 -0.1144 -0.2689  0.0533
 1297ERGO   ROH16423   3.169   0.307   9.568  0.3920  0.0423  0.0401
 1297ERGO    R116424   3.114   0.268   9.293  0.2060 -0.0705  0.0917
 1297ERGO    R216425   2.993   0.460   9.136  0.1903 -0.0976  0.0732
 1297ERGO    R316426   3.212   0.424   8.980  0.0793 -0.2652 -0.0478
 1297ERGO    R416427   3.024   0.569   8.809  0.1700  0.0753  0.1277
 1297ERGO    R516428   3.124   0.382   8.761 -0.0749 -0.0207 -0.0379
 1297ERGO    C116429   3.249   0.599   8.473  0.0538  0.0187  0.0459
 1297ERGO    C216430   3.307   0.741   8.166  0.0588  0.0494  0.3535
 1298ERGO   ROH16431   0.072  13.294   6.302 -0.3674  0.2073  0.0598
 1298ERGO    R116432   0.134  13.418   6.549 -0.2822  0.2717  0.0078
 1298ERGO    R216433  -0.061  13.496   6.730 -0.2134  0.1759  0.1255
 1298ERGO    R316434   0.084  13.343   6.902 -0.0121  0.2813  0.0511
 1298ERGO    R416435  -0.078  13.517   7.074 -0.1287  0.1104  0.1327
 1298ERGO    R516436   0.138  13.492   7.081 -0.0961  0.3112  0.0563
 1298ERGO    C116437   0.047  13.387   7.436  0.1096  0.1715  0.0671
 1298ERGO    C216438   0.072  13.104   7.649 -0.1604 -0.4207  0.1854
 1299ERGO   ROH16439   6.388   3.302   9.767  0.1626  0.2183  0.0011
 1299ERGO    R116440   6.312   3.263   9.497  0.0585  0.2466  0.0250
 1299ERGO    R216441   6.331   3.463   9.306  0.0782  0.2393  0.0148
 1299ERGO    R316442   6.476   3.277   9.172 -0.0400  0.1780 -0.0273
 1299ERGO    R416443   6.322   3.412   8.965 -0.0910  0.1912  0.0263
 1299ERGO    R516444   6.330   3.198   9.001 -0.1388  0.1971  0.0511
 1299ERGO    C116445   6.453   3.208   8.640 -0.3006  0.1055 -0.0066
 1299ERGO    C216446   6.292   3.211   8.359  0.5188  0.1583 -0.3888
 1300ERGO   ROH16447   8.406  16.257   5.889  0.1360 -0.0399 -0.0997
 1300ERGO    R116448   8.519  16.113   6.105 -0.0815  0.0525  0.0801
 1300ERGO    R216449   8.387  16.076   6.345 -0.3910  0.0275 -0.0870
 1300ERGO    R316450   8.437  15.814   6.295 -0.1913  0.0438  0.0182
 1300ERGO    R416451   8.316  15.817   6.562 -0.5097  0.0249 -0.1282
 1300ERGO    R516452   8.506  15.725   6.507 -0.3951  0.1158  0.1142
 1300ERGO    C116453   8.322  15.419   6.642 -0.3914  0.0387 -0.0534
 1300ERGO    C216454   8.143  15.270   6.768 -0.3154 -0.1398  0.2331
 1301ERGO   ROH16455   2.460   0.976   9.812  0.0553  0.3207  0.1019
 1301ERGO    R116456   2.335   0.918   9.564 -0.0684  0.1481  0.2014
 1301ERGO    R216457   2.249   1.116   9.391 -0.0596  0.0330  0.0541
 1301ERGO    R316458   2.403   0.981   9.213 -0.1809 -0.1919  0.1163
 1301ERGO    R416459   2.258   1.178   9.052  0.0583 -0.0972  0.0335
 1301ERGO    R516460   2.267   0.964   9.017 -0.1679 -0.1126  0.1062
 1301ERGO    C116461   2.409   1.088   8.686  0.0131 -0.3841  0.0799
 1301ERGO    C216462   2.545   1.124   8.343  0.3493 -0.1955 -0.1755
 1302ERGO   ROH16463  15.418   2.631   6.298  0.2192 -0.2042 -0.1163
 1302ERGO    R116464  15.460   2.479   6.533  0.2916 -0.1636 -0.1033
 1302ERGO    R216465  15.706   2.462   6.657  0.2550  0.1306  0.0126
 1302ERGO    R316466  15.566   2.544   6.875  0.0499 -0.0478 -0.0473
 1302ERGO    R416467  15.775   2.368   6.983  0.1657  0.1286  0.0318
 1302ERGO    R516468  15.561   2.352   7.018  0.1562 -0.0871 -0.0916
 1302ERGO    C116469  15.684   2.391   7.377 -0.0789 -0.0400 -0.0133
 1302ERGO    C216470  15.740   2.235   7.713 -0.1669  0.2070  0.0452
 1303ERGO   ROH16471   7.843   1.262   9.685 -0.0572  0.0295 -0.0597
 1303ERGO    R116472   7.857   1.264   9.402  0.0032  0.0785 -0.0575
 1303ERGO    R216473   7.727   1.077   9.246  0.1243  0.0375 -0.1165
 1303ERGO    R316474   7.622   1.297   9.126  0.0452  0.0075 -0.1008
 1303ERGO    R416475   7.595   1.083   8.927  0.3757  0.0790 -0.2214
 1303ERGO    R516476   7.690   1.277   8.897  0.2447  0.1670 -0.0558
 1303ERGO    C116477   7.419   1.293   8.628  0.4479  0.0750 -0.2677
 1303ERGO    C216478   7.118   1.194   8.319 -0.1012 -0.0901  0.0011
 1304ERGO   ROH16479   6.574  18.256   9.444 -0.0165  0.1384 -0.0871
 1304ERGO    R116480   6.608  18.330   9.173 -0.0378  0.0958 -0.1021
 1304ERGO    R216481   6.857  18.377   9.062 -0.0536  0.2256 -0.0908
 1304ERGO    R316482   6.775  18.193   8.880  0.0768  0.1284 -0.0520
 1304ERGO    R416483   6.896  18.407   8.720 -0.3464  0.3233 -0.1185
 1304ERGO    R516484   6.696  18.323   8.695 -0.2471  0.0389  0.0186
 1304ERGO    C116485   6.842  18.251   8.350 -0.3943  0.2888 -0.0983
 1304ERGO    C216486   6.798  18.183   8.034  0.1378  0.3238 -0.2569
 1305ERGO   ROH16487   8.300  14.924   9.195 -0.1823  0.0159  0.0348
 1305ERGO    R116488   8.406  14.984   8.940 -0.1093 -0.0542  0.0493
 1305ERGO    R216489   8.562  14.806   8.799 -0.2443 -0.1710  0.0549
 1305ERGO    R316490   8.378  14.849   8.603 -0.1877 -0.0068  0.0351
 1305ERGO    R416491   8.630  14.806   8.460 -0.1569 -0.0061  0.0712
 1305ERGO    R516492   8.496  14.976   8.438 -0.1035  0.0518  0.1330
 1305ERGO    C116493   8.497  14.847   8.079 -0.0528  0.2440  0.0620
 1305ERGO    C216494   8.538  14.784   7.665  0.1389  0.0419  0.3096
 1306ERGO   ROH16495  16.648  12.775   6.146 -0.0573  0.1118  0.0332
 1306ERGO    R116496  16.592  12.683   6.408 -0.0143  0.3260  0.1184
 1306ERGO    R216497  16.676  12.437   6.500 -0.4758  0.1632  0.1112
 1306ERGO    R316498  16.785  12.585   6.700  0.0553 -0.0074 -0.0333
 1306ERGO    R416499  16.791  12.309   6.800 -0.6450  0.0003  0.1099
 1306ERGO    R516500  16.705  12.481   6.901 -0.1225  0.3133  0.0730
 1306ERGO    C116501  16.961  12.373   7.162 -0.2447 -0.2548 -0.0265
 1306ERGO    C216502  17.106  12.085   7.369 -0.0140 -0.2640 -0.0050
 1307ERGO   ROH16503   0.508  10.020   9.688  0.2388 -0.1943 -0.0138
 1307ERGO    R116504   0.638  10.067   9.441  0.1673 -0.2268 -0.0576
 1307ERGO    R216505   0.750   9.864   9.291 -0.0417 -0.2697 -0.1548
 1307ERGO    R316506   0.592   9.967   9.094 -0.0523 -0.1092 -0.0650
 1307ERGO    R416507   0.814   9.837   8.952 -0.0862 -0.0470 -0.1828
 1307ERGO    R516508   0.747  10.043   8.928 -0.0593 -0.0171 -0.0319
 1307ERGO    C116509   0.703   9.918   8.570 -0.1221  0.2333 -0.1150
 1307ERGO    C216510   0.780   9.796   8.254  0.1570  0.0149 -0.0745
 1308ERGO   ROH16511  13.050   6.230   6.640 -0.3487 -0.0880 -0.0404
 1308ERGO    R116512  12.818   6.338   6.761 -0.2501  0.0109  0.0621
 1308ERGO    R216513  12.691   6.217   6.975 -0.2698  0.0068  0.0454
 1308ERGO    R316514  12.724   6.461   7.091 -0.0896 -0.0584  0.1355
 1308ERGO    R416515  12.528   6.325   7.260 -0.4118  0.1168 -0.0760
 1308ERGO    R516516  12.506   6.521   7.167 -0.0990  0.1731 -0.0516
 1308ERGO    C116517  12.464   6.616   7.534 -0.3254  0.1196 -0.0621
 1308ERGO    C216518  12.385   6.733   7.807 -0.2777 -0.0590 -0.3608
 1309ERGO   ROH16519  14.458   4.814   9.900 -0.0947 -0.0727  0.0581
 1309ERGO    R116520  14.374   4.799   9.630  0.1190 -0.2137 -0.0031
 1309ERGO    R216521  14.264   5.015   9.496 -0.1423 -0.3899 -0.0774
 1309ERGO    R316522  14.461   4.962   9.316  0.0772 -0.0693  0.0588
 1309ERGO    R416523  14.235   5.057   9.154  0.0310 -0.4193 -0.0968
 1309ERGO    R516524  14.345   4.871   9.127  0.3524 -0.2487 -0.0306
 1309ERGO    C116525  14.404   5.032   8.786  0.3381 -0.1354  0.0198
 1309ERGO    C216526  14.284   5.148   8.547  0.0473  0.0704 -0.2492
 1310ERGO   ROH16527   1.574   1.547  10.136 -0.0445 -0.0123  0.0122
 1310ERGO    R116528   1.563   1.496   9.858  0.0516  0.1393 -0.0207
 1310ERGO    R216529   1.329   1.425   9.729  0.1268  0.0562 -0.1120
 1310ERGO    R316530   1.391   1.637   9.570  0.0209  0.1901  0.0220
 1310ERGO    R416531   1.254   1.448   9.392  0.2290  0.1746 -0.1274
 1310ERGO    R516532   1.450   1.539   9.360  0.1731  0.3448 -0.0106
 1310ERGO    C116533   1.269   1.661   9.047  0.1891  0.3693 -0.0104
 1310ERGO    C216534   1.278   1.784   8.744  0.0380 -0.2035  0.0543
 1311ERGO   ROH16535   0.192   0.907   6.568  0.2985  0.3511  0.0827
 1311ERGO    R116536   0.205   0.875   6.849  0.1363  0.2797  0.0834
 1311ERGO    R216537   0.031   1.003   7.021 -0.1770 -0.0176  0.0020
 1311ERGO    R316538  -0.015   0.751   7.111  0.1120 -0.1167 -0.1177
 1311ERGO    R416539   0.058   0.903   7.351 -0.4082 -0.0559  0.0109
 1311ERGO    R516540   0.150   0.718   7.282 -0.0327  0.1015  0.0684
 1311ERGO    C116541   0.031   0.608   7.627 -0.2714 -0.1712 -0.0963
 1311ERGO    C216542  -0.124   0.504   7.934  0.2075 -0.1285 -0.0351
 1312ERGO   ROH16543  17.915  14.176   9.261  0.0728 -0.1485  0.0915
 1312ERGO    R116544  18.052  14.188   9.014 -0.0165  0.0453  0.0498
 1312ERGO    R216545  17.977  14.036   8.795  0.0206  0.0765  0.0175
 1312ERGO    R316546  17.970  14.278   8.671 -0.1928  0.1204  0.1098
 1312ERGO    R416547  17.960  14.082   8.453  0.1317  0.1847  0.0258
 1312ERGO    R516548  18.101  14.247   8.473 -0.0601  0.3414  0.1575
 1312ERGO    C116549  17.944  14.335   8.137 -0.0041  0.2891  0.1172
 1312ERGO    C216550  17.803  14.578   7.888  0.0263  0.0136  0.0523
 1313ERGO   ROH16551  14.964   7.644   6.512 -0.0301 -0.2403  0.0945
 1313ERGO    R116552  14.966   7.670   6.794 -0.0192 -0.1168  0.0837
 1313ERGO    R216553  14.797   7.843   6.928 -0.0657 -0.1107  0.0213
 1313ERGO    R316554  14.731   7.618   7.066  0.0155 -0.0733  0.1218
 1313ERGO    R416555  14.682   7.837   7.254 -0.1091 -0.0033  0.0080
 1313ERGO    R516556  14.805   7.661   7.289 -0.0356  0.0688  0.1118
 1313ERGO    C116557  14.553   7.622   7.573 -0.0580  0.0945  0.0946
 1313ERGO    C216558  14.340   7.526   7.835 -0.1059  0.2897  0.0224
 1314ERGO   ROH16559  15.351   1.844   9.842 -0.3945 -0.1428  0.0515
 1314ERGO    R116560  15.407   1.925   9.577 -0.1394 -0.0478  0.1327
 1314ERGO    R216561  15.412   1.748   9.365  0.0737  0.0300  0.0789
 1314ERGO    R316562  15.233   1.922   9.258  0.1723  0.0589 -0.0450
 1314ERGO    R416563  15.361   1.795   9.026  0.0459 -0.2561  0.0391
 1314ERGO    R516564  15.344   2.009   9.064  0.2037 -0.1991 -0.1538
 1314ERGO    C116565  15.164   1.987   8.728  0.1223 -0.3956 -0.1004
 1314ERGO    C216566  15.168   1.865   8.424 -0.2702 -0.1013 -0.2075
 1315ERGO   ROH16567  13.491   2.534   6.506  0.0700  0.2098 -0.2722
 1315ERGO    R116568  13.281   2.560   6.694 -0.0154  0.0855 -0.3492
 1315ERGO    R216569  13.194   2.349   6.850  0.1221  0.0583 -0.3099
 1315ERGO    R316570  13.243   2.522   7.054 -0.0985  0.1699 -0.3487
 1315ERGO    R416571  13.123   2.287   7.183  0.3332 -0.0193 -0.2775
 1315ERGO    R516572  13.056   2.493   7.202 -0.0076 -0.1235 -0.2838
 1315ERGO    C116573  13.128   2.413   7.568  0.2492  0.0402 -0.2951
 1315ERGO    C216574  13.149   2.444   7.811 -0.2222  0.1931  0.1617
 1316ERGO   ROH16575  17.049   3.990   6.720 -0.0679  0.0340 -0.1040
 1316ERGO    R116576  17.163   3.994   6.979 -0.0954  0.0993 -0.0927
 1316ERGO    R216577  17.037   4.111   7.195 -0.1962  0.0046 -0.0984
 1316ERGO    R316578  17.076   3.867   7.309 -0.0418  0.0243 -0.1074
 1316ERGO    R416579  17.087   4.055   7.533 -0.1566  0.0229 -0.1014
 1316ERGO    R516580  17.237   3.906   7.481 -0.0641  0.1186 -0.1085
 1316ERGO    C116581  17.153   3.794   7.836  0.0113  0.0521 -0.1116
 1316ERGO    C216582  17.250   3.876   8.135 -0.1983 -0.1487  0.0896
 1317ERGO   ROH16583   8.795   1.195   5.932  0.4883 -0.0369  0.1855
 1317ERGO    R116584   8.799   1.082   6.191  0.2284  0.1935  0.2965
 1317ERGO    R216585   8.646   1.180   6.399 -0.3695  0.0822 -0.0647
 1317ERGO    R316586   8.559   0.923   6.414  0.1070 -0.0867 -0.0242
 1317ERGO    R416587   8.570   1.013   6.693 -0.1932  0.0332 -0.0459
 1317ERGO    R516588   8.665   0.835   6.610  0.1861  0.1770  0.0557
 1317ERGO    C116589   8.444   0.675   6.877  0.3566 -0.1539  0.0029
 1317ERGO    C216590   8.150   0.623   7.081  0.3610  0.0582 -0.1170
 1318ERGO   ROH16591  17.066   2.952  10.174  0.4286  0.2384 -0.0939
 1318ERGO    R116592  17.134   2.985   9.902  0.3746  0.0484 -0.1310
 1318ERGO    R216593  17.262   2.789   9.755  0.1941 -0.1142 -0.0631
 1318ERGO    R316594  17.051   2.823   9.587  0.1736 -0.0574 -0.0279
 1318ERGO    R416595  17.266   2.718   9.417  0.0884 -0.2624 -0.0353
 1318ERGO    R516596  17.150   2.900   9.383  0.1847 -0.1992 -0.0840
 1318ERGO    C116597  17.071   2.709   9.062  0.0078 -0.2954  0.0139
 1318ERGO    C216598  17.129   2.587   8.772 -0.1348 -0.1047  0.0713
 1319ERGO   ROH16599   0.686   9.727   6.326 -0.0347  0.0210 -0.0468
 1319ERGO    R116600   0.833   9.768   6.565 -0.0693  0.0716 -0.0336
 1319ERGO    R216601   0.799   9.991   6.724 -0.1690  0.0557 -0.0289
 1319ERGO    R316602   0.757   9.805   6.918 -0.1139  0.0323 -0.0395
 1319ERGO    R416603   0.840  10.046   7.063 -0.1680  0.0391 -0.0265
 1319ERGO    R516604   0.928   9.848   7.080 -0.1190  0.0618 -0.0442
 1319ERGO    C116605   0.824   9.904   7.443 -0.1156  0.0075 -0.0351
 1319ERGO    C216606   0.623   9.934   7.765 -0.0756 -0.1290 -0.0915
 1320ERGO   ROH16607  16.682  12.316   5.987 -0.1532  0.0235 -0.0429
 1320ERGO    R116608  16.753  12.134   6.192 -0.1915  0.0987  0.0379
 1320ERGO    R216609  16.997  12.004   6.197 -0.3214 -0.1525 -0.0523
 1320ERGO    R316610  17.012  12.110   6.446 -0.0230  0.0180 -0.1382
 1320ERGO    R416611  17.214  11.898   6.444 -0.1682 -0.1230 -0.1723
 1320ERGO    R516612  17.054  11.923   6.589 -0.0235  0.0904 -0.0412
 1320ERGO    C116613  17.355  11.937   6.822  0.2010  0.0544 -0.3228
 1320ERGO    C216614  17.571  11.805   6.891  0.0110 -0.3555  0.1517
 1321ERGO   ROH16615  11.897   6.190   6.579 -0.0828  0.0032  0.1938
 1321ERGO    R116616  11.756   6.342   6.771 -0.1044  0.0789  0.1190
 1321ERGO    R216617  11.561   6.232   6.934 -0.1130  0.1384  0.1523
 1321ERGO    R316618  11.713   6.338   7.133 -0.1309  0.2293  0.1175
 1321ERGO    R416619  11.446   6.309   7.250 -0.0748  0.0259  0.1938
 1321ERGO    R516620  11.567   6.491   7.245 -0.2078  0.1130  0.1754
 1321ERGO    C116621  11.522   6.454   7.622 -0.0692  0.0456  0.1854
 1321ERGO    C216622  11.412   6.536   8.007  0.1061 -0.1513  0.0938
 1322ERGO   ROH16623   5.831   2.210   7.307  0.0357  0.0946  0.1427
 1322ERGO    R116624   5.993   2.210   7.539  0.1115  0.0775  0.0911
 1322ERGO    R216625   6.229   2.068   7.556  0.1081  0.0567  0.0123
 1322ERGO    R316626   6.331   2.311   7.626  0.1478  0.0486 -0.0191
 1322ERGO    R416627   6.532   2.117   7.717  0.1086  0.0324  0.0181
 1322ERGO    R516628   6.437   2.272   7.837  0.1319  0.0648 -0.0107
 1322ERGO    C116629   6.803   2.373   7.876  0.1461  0.0106 -0.0080
 1322ERGO    C216630   7.219   2.409   7.765  0.1344  0.1013 -0.0621
 1323ERGO   ROH16631  10.882  10.632   9.378  0.1501  0.0558  0.0835
 1323ERGO    R116632  10.842  10.507   9.128  0.0220 -0.1116  0.1845
 1323ERGO    R216633  10.601  10.514   8.994  0.0281  0.0344  0.1767
 1323ERGO    R316634  10.752  10.612   8.791  0.1384 -0.2909  0.0962
 1323ERGO    R416635  10.528  10.478   8.658  0.0466 -0.2367  0.1997
 1323ERGO    R516636  10.740  10.444   8.621  0.0237 -0.4498  0.2594
 1323ERGO    C116637  10.628  10.549   8.272  0.1609 -0.6998  0.1377
 1323ERGO    C216638  10.492  10.490   7.881  0.3112  0.0601 -0.0925
 1324ERGO   ROH16639  11.844   7.101   9.558  0.2089  0.0710 -0.0159
 1324ERGO    R116640  12.001   7.176   9.335  0.2507 -0.0971 -0.0439
 1324ERGO    R216641  12.158   6.995   9.197 -0.1055 -0.3105 -0.1852
 1324ERGO    R316642  12.018   7.087   8.982 -0.0411  0.0231 -0.0911
 1324ERGO    R416643  12.282   7.018   8.875 -0.1871 -0.3613 -0.2208
 1324ERGO    R516644  12.179   7.209   8.854  0.1148 -0.1769 -0.0905
 1324ERGO    C116645  12.224   7.117   8.487 -0.1739 -0.0777 -0.1531
 1324ERGO    C216646  12.198   7.111   8.151  0.1770 -0.2424 -0.0916
 1325ERGO   ROH16647  16.408   7.380   9.949  0.1651 -0.0659  0.1244
 1325ERGO    R116648  16.451   7.276   9.689  0.1483  0.0235  0.0853
 1325ERGO    R216649  16.256   7.139   9.551  0.2202 -0.1550  0.1537
 1325ERGO    R316650  16.306   7.325   9.359 -0.0621 -0.0638  0.1636
 1325ERGO    R416651  16.160   7.111   9.220  0.1647 -0.2253  0.1756
 1325ERGO    R516652  16.353   7.195   9.162  0.0455  0.0222  0.1338
 1325ERGO    C116653  16.151   7.270   8.847 -0.1324 -0.1807  0.1976
 1325ERGO    C216654  15.923   7.323   8.465 -0.1470 -0.0933  0.1319
 1326ERGO   ROH16655  15.341   3.498   6.654 -0.0465 -0.0797 -0.1249
 1326ERGO    R116656  15.178   3.558   6.878  0.0124 -0.1237 -0.0699
 1326ERGO    R216657  15.190   3.415   7.114  0.3057  0.0308  0.0124
 1326ERGO    R316658  15.231   3.661   7.223  0.0975  0.1454 -0.1597
 1326ERGO    R416659  15.251   3.476   7.449  0.5007  0.2893 -0.0664
 1326ERGO    R516660  15.122   3.651   7.436  0.2762  0.1300 -0.0661
 1326ERGO    C116661  15.325   3.742   7.746  0.4187  0.5474 -0.2737
 1326ERGO    C216662  15.382   3.859   8.067 -0.1435 -0.0289  0.0004
 1327ERGO   ROH16663   3.335  17.417   9.827  0.2923 -0.0108  0.1100
 1327ERGO    R116664   3.460  17.353   9.581  0.0558 -0.2266  0.0402
 1327ERGO    R216665   3.346  17.181   9.396 -0.3600 -0.0164  0.0805
 1327ERGO    R316666   3.382  17.391   9.227 -0.0612 -0.0589  0.0836
 1327ERGO    R416667   3.346  17.160   9.051 -0.1339 -0.0446  0.0816
 1327ERGO    R516668   3.511  17.302   9.047 -0.0086 -0.1848  0.1835
 1327ERGO    C116669   3.379  17.345   8.692  0.2782 -0.1011  0.0852
 1327ERGO    C216670   3.317  17.453   8.505  0.2059 -0.0514  0.0498
 1328ERGO   ROH16671  16.710   0.896   9.514 -0.2870  0.0409  0.0877
 1328ERGO    R116672  16.683   0.800   9.249 -0.0387  0.0766  0.0466
 1328ERGO    R216673  16.484   0.888   9.078 -0.0123 -0.0584 -0.0549
 1328ERGO    R316674  16.694   0.941   8.914  0.0455  0.1638  0.0857
 1328ERGO    R416675  16.505   0.791   8.747  0.1917  0.2061 -0.1235
 1328ERGO    R516676  16.715   0.744   8.779  0.1980  0.2755 -0.0588
 1328ERGO    C116677  16.713   0.784   8.400  0.3647  0.5687 -0.0318
 1328ERGO    C216678  16.773   0.822   8.010 -0.1454 -0.1603 -0.0144
 1329ERGO   ROH16679  12.051   7.767   6.075  0.4163 -0.1480  0.0837
 1329ERGO    R116680  12.072   7.967   6.274  0.0865 -0.1034  0.0817
 1329ERGO    R216681  11.853   8.063   6.414 -0.1042 -0.3286 -0.0413
 1329ERGO    R316682  12.002   7.995   6.630 -0.1421 -0.1536  0.0399
 1329ERGO    R416683  11.766   8.126   6.742 -0.2130 -0.1901 -0.0966
 1329ERGO    R516684  11.974   8.177   6.783 -0.2518 -0.0902 -0.0636
 1329ERGO    C116685  11.856   8.098   7.137 -0.3120  0.0549 -0.0524
 1329ERGO    C216686  11.917   7.991   7.500  0.0939  0.2623  0.0966
 1330ERGO   ROH16687  16.765  12.121   9.664  0.4194  0.0465 -0.1262
 1330ERGO    R116688  16.690  12.043   9.403  0.2784 -0.0280 -0.0640
 1330ERGO    R216689  16.742  12.198   9.180  0.1114 -0.0672 -0.1291
 1330ERGO    R316690  16.860  11.970   9.089  0.1047 -0.0622 -0.1524
 1330ERGO    R416691  16.807  12.129   8.848  0.1264 -0.0236 -0.1358
 1330ERGO    R516692  16.746  11.923   8.884  0.1121 -0.0272 -0.1665
 1330ERGO    C116693  16.956  11.875   8.569  0.1288  0.0065 -0.1614
 1330ERGO    C216694  17.123  11.733   8.254  0.2274  0.1040 -0.2211
 1331ERGO   ROH16695   9.242  14.746   9.197 -0.3274  0.0287 -0.0913
 1331ERGO    R116696   9.205  14.885   8.953 -0.1550  0.0007 -0.1353
 1331ERGO    R216697   9.296  14.788   8.711 -0.2208 -0.1601 -0.0981
 1331ERGO    R316698   9.037  14.823   8.637 -0.1784  0.0821 -0.1384
 1331ERGO    R416699   9.194  14.918   8.408 -0.0564 -0.0546 -0.1092
 1331ERGO    R516700   9.038  15.028   8.513  0.0287  0.0859 -0.1315
 1331ERGO    C116701   8.891  15.027   8.161  0.0790  0.2345 -0.1535
 1331ERGO    C216702   8.969  15.028   7.815 -0.0825 -0.1655  0.0941
 1332ERGO   ROH16703  13.323  13.422   6.118 -0.2759 -0.0915 -0.0156
 1332ERGO    R116704  13.413  13.224   6.299 -0.2938  0.0184  0.1158
 1332ERGO    R216705  13.325  12.963   6.291 -0.1302 -0.0441  0.1264
 1332ERGO    R316706  13.590  12.907   6.278 -0.0833  0.1190  0.3443
 1332ERGO    R416707  13.460  12.645   6.300  0.0459  0.0238 -0.0732
 1332ERGO    R516708  13.620  12.722   6.427 -0.1332 -0.0222  0.1749
 1332ERGO    C116709  13.789  12.407   6.293  0.1926  0.2166  0.0151
 1332ERGO    C216710  13.861  12.101   6.358 -0.0303  0.1341 -0.2492
 1333ERGO   ROH16711  17.838   7.725  10.024 -0.0555 -0.1646  0.0589
 1333ERGO    R116712  17.899   7.791   9.756 -0.3097 -0.1381  0.0052
 1333ERGO    R216713  18.139   7.725   9.637 -0.2172  0.2994 -0.0760
 1333ERGO    R316714  17.978   7.611   9.450 -0.0819 -0.1007  0.0409
 1333ERGO    R416715  18.170   7.769   9.295 -0.3923  0.1264 -0.1162
 1333ERGO    R516716  17.953   7.780   9.282 -0.4180 -0.2510 -0.0666
 1333ERGO    C116717  18.037   7.688   8.921 -0.3671 -0.3500 -0.0297
 1333ERGO    C216718  18.287   7.659   8.674  0.0623  0.0337  0.1983
 1334ERGO   ROH16719   7.305   3.604   9.308  0.0755  0.0614  0.2330
 1334ERGO    R116720   7.284   3.798   9.103 -0.0122  0.0590  0.2400
 1334ERGO    R216721   7.398   4.049   9.123  0.1466 -0.0032  0.1149
 1334ERGO    R316722   7.512   3.980   8.886 -0.1162 -0.0819  0.0077
 1334ERGO    R416723   7.481   4.271   8.872  0.1785 -0.0408  0.0917
 1334ERGO    R516724   7.409   4.126   8.726 -0.0951  0.0588  0.1191
 1334ERGO    C116725   7.636   4.337   8.503 -0.0498 -0.1366 -0.0224
 1334ERGO    C216726   7.702   4.609   8.218  0.1839 -0.3148 -0.0480
 1335ERGO   ROH16727   5.185   1.286   9.704  0.1842  0.1913  0.0404
 1335ERGO    R116728   5.063   1.172   9.476  0.1596  0.0726  0.1115
 1335ERGO    R216729   4.872   1.305   9.327 -0.0015 -0.0795  0.1746
 1335ERGO    R316730   5.040   1.250   9.121 -0.0525  0.0066  0.1100
 1335ERGO    R416731   4.780   1.297   8.994 -0.1534 -0.2677  0.2193
 1335ERGO    R516732   4.908   1.122   8.968 -0.0101 -0.1604  0.2143
 1335ERGO    C116733   4.885   1.241   8.606 -0.2897 -0.2964  0.1848
 1335ERGO    C216734   4.852   1.313   8.312 -0.2046  0.0182 -0.0524
 1336ERGO   ROH16735   4.176   4.838   9.787  0.1391 -0.0033  0.1225
 1336ERGO    R116736   4.231   4.833   9.510  0.1404  0.0376  0.1217
 1336ERGO    R216737   4.059   4.721   9.325  0.2043 -0.0591  0.1184
 1336ERGO    R316738   4.078   4.965   9.207  0.0602 -0.0433  0.1272
 1336ERGO    R416739   3.987   4.785   8.993  0.1349 -0.0814  0.1293
 1336ERGO    R516740   4.160   4.918   8.987  0.0622  0.0120  0.1170
 1336ERGO    C116741   3.962   5.052   8.689 -0.0407 -0.0795  0.1440
 1336ERGO    C216742   3.840   5.025   8.393 -0.1634  0.2935  0.4966
 1337ERGO   ROH16743  16.785   8.443   9.873 -0.0018  0.2308 -0.0060
 1337ERGO    R116744  16.614   8.368   9.660  0.0940  0.1451 -0.0531
 1337ERGO    R216745  16.635   8.478   9.407  0.1488  0.1091 -0.0614
 1337ERGO    R316746  16.652   8.217   9.331  0.2510  0.1016 -0.0166
 1337ERGO    R416747  16.594   8.364   9.083 -0.1679  0.0040  0.0116
 1337ERGO    R516748  16.483   8.193   9.162  0.0546 -0.0644  0.1946
 1337ERGO    C116749  16.586   8.053   8.823 -0.2566 -0.0644  0.0961
 1337ERGO    C216750  16.718   7.895   8.462  0.1228  0.1702  0.0717
 1338ERGO   ROH16751   9.576   5.760   6.354  0.1136 -0.2110 -0.2029
 1338ERGO    R116752   9.680   5.802   6.614  0.0530 -0.0746 -0.1976
 1338ERGO    R216753   9.524   5.788   6.842  0.0066 -0.0111 -0.2128
 1338ERGO    R316754   9.713   5.609   6.921  0.0303  0.0620 -0.1115
 1338ERGO    R416755   9.592   5.705   7.170 -0.0546  0.0859 -0.1773
 1338ERGO    R516756   9.804   5.704   7.120 -0.0492  0.1289 -0.1146
 1338ERGO    C116757   9.809   5.489   7.435 -0.0679  0.2109 -0.0615
 1338ERGO    C216758   9.531   5.438   7.693 -0.0634 -0.0283 -0.1123
 1339ERGO   ROH16759   6.922   1.034   6.163 -0.0124 -0.0819  0.1126
 1339ERGO    R116760   7.060   1.044   6.410  0.0396 -0.1786  0.0866
 1339ERGO    R216761   6.933   1.101   6.648  0.1329 -0.0414  0.0970
 1339ERGO    R316762   7.046   0.867   6.727 -0.0595 -0.1333  0.1101
 1339ERGO    R416763   6.999   1.016   6.976  0.1522 -0.0234  0.0988
 1339ERGO    R516764   7.188   0.929   6.910  0.0582 -0.2174  0.0547
 1339ERGO    C116765   7.144   0.746   7.242 -0.0173 -0.0991  0.1122
 1339ERGO    C216766   7.274   0.802   7.583  0.0272 -0.2419  0.2032
 1340ERGO   ROH16767  14.150   6.670   9.963 -0.0250  0.2495  0.0807
 1340ERGO    R116768  14.138   6.865   9.758  0.1743  0.2083  0.0279
 1340ERGO    R216769  14.358   6.935   9.605  0.2202 -0.1435 -0.0712
 1340ERGO    R316770  14.192   6.875   9.398  0.0599  0.0255  0.0045
 1340ERGO    R416771  14.434   6.979   9.271  0.0707 -0.1261 -0.1045
 1340ERGO    R516772  14.230   7.049   9.238  0.1020  0.0342  0.0226
 1340ERGO    C116773  14.322   6.949   8.882 -0.1668  0.0428 -0.0527
 1340ERGO    C216774  14.445   6.967   8.606 -0.2743  0.0870  0.1987
 1341ERGO   ROH16775   8.656   0.437   9.587 -0.1192 -0.0010 -0.1034
 1341ERGO    R116776   8.614   0.343   9.323 -0.0682  0.0475 -0.1293
 1341ERGO    R216777   8.400   0.425   9.169  0.0128  0.1486 -0.1915
 1341ERGO    R316778   8.595   0.489   8.991  0.0973  0.0967 -0.1175
 1341ERGO    R416779   8.348   0.588   8.869  0.1737  0.1764 -0.2048
 1341ERGO    R516780   8.494   0.455   8.776  0.1666  0.1366 -0.1557
 1341ERGO    C116781   8.501   0.744   8.527  0.3467  0.1438 -0.1428
 1341ERGO    C216782   8.264   0.893   8.336  0.0212 -0.0193 -0.1630
 1342ERGO   ROH16783  17.795  15.538   5.870 -0.0533 -0.0277 -0.0481
 1342ERGO    R116784  17.729  15.408   6.113 -0.1830  0.1006 -0.0136
 1342ERGO    R216785  17.896  15.411   6.333 -0.1403 -0.0785 -0.0425
 1342ERGO    R316786  17.675  15.508   6.459  0.0042  0.2348 -0.0217
 1342ERGO    R416787  17.868  15.461   6.674 -0.1205 -0.2833 -0.0090
 1342ERGO    R516788  17.664  15.385   6.664 -0.2646  0.0947 -0.1149
 1342ERGO    C116789  17.644  15.582   6.990  0.0264 -0.1084  0.0300
 1342ERGO    C216790  17.725  15.914   7.336  0.0124 -0.1765  0.1489
 1343ERGO   ROH16791   3.769  13.853   9.531 -0.2896  0.1905  0.1734
 1343ERGO    R116792   3.675  13.727   9.296 -0.2525  0.1499  0.1790
 1343ERGO    R216793   3.434  13.794   9.177 -0.1264  0.3032 -0.0097
 1343ERGO    R316794   3.589  13.831   8.957  0.0514  0.0546  0.0715
 1343ERGO    R416795   3.322  13.777   8.851  0.1439 -0.0387 -0.0899
 1343ERGO    R516796   3.505  13.673   8.798  0.1756 -0.1070  0.1704
 1343ERGO    C116797   3.402  13.802   8.455  0.4681 -0.4713 -0.0602
 1343ERGO    C216798   3.465  13.767   8.195 -0.0124 -0.0272  0.2875
 1344ERGO   ROH16799   1.708  10.969   9.800 -0.2117 -0.2014  0.0821
 1344ERGO    R116800   1.677  10.830   9.555 -0.1376 -0.1559  0.0459
 1344ERGO    R216801   1.690  10.956   9.310 -0.2818 -0.0708  0.0774
 1344ERGO    R316802   1.879  10.768   9.259 -0.1327  0.0995 -0.0052
 1344ERGO    R416803   1.806  10.873   8.995 -0.4280 -0.0521  0.0180
 1344ERGO    R516804   1.807  10.664   9.056 -0.1778 -0.0328  0.0807
 1344ERGO    C116805   2.052  10.648   8.765 -0.3731  0.1187 -0.0942
 1344ERGO    C216806   2.038  10.568   8.488  0.1928 -0.2290  0.1630
 1345ERGO   ROH16807   6.499  14.501   9.343  0.2569  0.2982  0.2418
 1345ERGO    R116808   6.421  14.563   9.078  0.2013  0.2685  0.2510
 1345ERGO    R216809   6.596  14.670   8.892  0.2390 -0.0153  0.1176
 1345ERGO    R316810   6.516  14.457   8.743 -0.0786  0.0058  0.2506
 1345ERGO    R416811   6.656  14.632   8.554  0.1474 -0.2986  0.1302
 1345ERGO    R516812   6.454  14.553   8.532  0.0298 -0.0294  0.2029
 1345ERGO    C116813   6.615  14.411   8.216 -0.2041 -0.4437  0.2623
 1345ERGO    C216814   6.745  14.383   7.908  0.0799  0.2129  0.2714
 1346W        W16815   6.619   0.302   9.556  0.0072  0.2249 -0.2303
 1347W        W16816   7.946   4.943   0.995 -0.2140  0.0168 -0.0809
 1348W        W16817  14.959  10.050   1.139  0.0899  0.1030  0.1366
 1349W        W16818  16.544   3.651  12.825  0.2209  0.0547 -0.1330
 1350W        W16819   2.246   8.009  14.672  0.0334 -0.0562  0.0474
 1351W        W16820   5.648  18.091  11.955 -0.1555 -0.1779 -0.0619
 1352W        W16821   4.050  14.968  11.091  0.0635  0.0342  0.2091
 1353W        W16822   2.891   6.491   4.464 -0.0049  0.0210 -0.2405
 1354W        W16823   5.267  13.843  15.813 -0.1930 -0.0279 -0.2936
 1355W        W16824  10.178   2.983  12.594  0.2278 -0.2409 -0.0056
 1356W        W16825   1.949   2.579   0.210 -0.2352  0.0988 -0.1717
 1357W        W16826   9.545  11.424   0.315  0.2229 -0.3571 -0.1754
 1358W        W16827  12.017   8.504  16.025 -0.1839 -0.0851  0.0295
 1359W        W16828   4.175   5.389   5.206 -0.0185  0.0954 -0.2077
 1360W        W16829   1.800   7.547   0.285 -0.1244  0.0411  0.1207
 1361W        W16830  18.296   7.930  13.301  0.2764 -0.0804  0.3197
 1362W        W16831   7.874  11.283   3.330 -0.2238 -0.3475  0.0559
 1363W        W16832  16.639   1.987   1.146  0.1135  0.0244 -0.1375
 1364W        W16833  15.747   4.738   5.030  0.3555 -0.0223  0.1664
 1365W        W16834  14.321   6.095   5.087 -0.1946  0.0054  0.0691
 1366W        W16835  10.827  10.988   2.578  0.1969  0.0515  0.1079
 1367W        W16836   5.540   9.604  12.817 -0.0489  0.2294 -0.0103
 1368W        W16837   1.230   9.188   1.190  0.0820 -0.0716 -0.1825
 1369W        W16838   3.554   1.572  15.784  0.0244 -0.2144 -0.1370
 1370W        W16839  14.186  15.205  13.948 -0.0941 -0.0649 -0.1421
 1371W        W16840   8.876   0.320   0.478 -0.0318 -0.2998  0.0619
 1372W        W16841   6.942  12.279  15.192  0.1502  0.1350 -0.1242
 1373W        W16842   6.376  16.025   1.146 -0.0453 -0.0037 -0.1715
 1374W        W16843  12.184   4.597  11.172  0.2546  0.4141  0.0636
 1375W        W16844   5.765   8.590   2.266 -0.1653 -0.1955 -0.2590
 1376W        W16845  10.504  18.316  15.859 -0.1903  0.0240 -0.3204
 1377W        W16846  18.306   6.423   0.159 -0.1943  0.2898 -0.0614
 1378W        W16847  18.210   6.089   2.952  0.0142  0.0802 -0.0736
 1379W        W16848  16.688   1.458   5.378 -0.0294 -0.0685 -0.3151
 1380W        W16849   2.653  13.330  15.102  0.2312 -0.2108  0.4868
 1381W        W16850   9.907  14.193   3.038  0.0037 -0.2919  0.4188
 1382W        W16851   5.408  12.082  12.379 -0.0796  0.0262  0.0227
 1383W        W16852   1.962  11.375   2.583 -0.0210  0.2589 -0.3469
 1384W        W16853   6.954   2.868   4.601  0.0005 -0.1721 -0.4521
 1385W        W16854  15.724  17.818  14.739  0.1160  0.0449 -0.0642
 1386W        W16855   8.620  14.195  11.544  0.1326  0.0847 -0.0908
 1387W        W16856  14.274  13.849   2.215  0.1085  0.1505 -0.1615
 1388W        W16857  18.031   0.387   1.673  0.2294  0.3596  0.1775
 1389W        W16858   2.877  14.437   0.038 -0.1286  0.2523  0.0250
 1390W        W16859  14.489   6.251   2.829  0.2940  0.3596 -0.2371
 1391W        W16860  12.237   8.893   3.378 -0.3684  0.1476 -0.0628
 1392W        W16861   6.573   6.825  15.702  0.0102  0.0203 -0.1172
 1393W        W16862  16.637  15.664  12.844 -0.0646 -0.1020 -0.1903
 1394W        W16863   6.828   4.355  15.163 -0.1800 -0.0077 -0.1136
 1395W        W16864  16.854  13.292   0.339 -0.0743  0.0440  0.1390
 1396W        W16865  15.510   9.265   5.242 -0.1442  0.3327  0.1839
 1397W        W16866   0.288   8.535   5.236 -0.1313  0.2014 -0.0137
 1398W        W16867   6.289   2.295  13.367  0.0744  0.1156 -0.5710
 1399W        W16868   8.888  13.105  10.421 -0.1549  0.0089  0.0128
 1400W        W16869   8.572  16.549   4.368 -0.1306  0.1091 -0.1023
 1401W        W16870   6.088  16.073   5.001  0.0234  0.1218 -0.1117
 1402W        W16871   8.146  12.110  10.954  0.0914  0.1764  0.4914
 1403W        W16872   4.564   7.158  12.565 -0.0378 -0.0366  0.3239
 1404W        W16873   5.396   4.615  13.367  0.0699  0.2216  0.1642
 1405W        W16874   8.552  15.707  12.470 -0.1397  0.0593  0.0758
 1406W        W16875  11.078   2.911  11.687 -0.4704 -0.0919 -0.3071
 1407W        W16876   1.368   3.294   3.470 -0.2999 -0.0069 -0.0134
 1408W        W16877  14.465   9.058  13.403 -0.2169 -0.1591  0.0559
 1409W        W16878  12.618  16.695   2.273  0.1281 -0.0854 -0.2510
 1410W        W16879   2.537  15.899  11.639  0.0301  0.0381  0.0040
 1411W        W16880   6.055  11.670   2.471  0.1110 -0.1813 -0.0849
 1412W        W16881  16.823   3.914  15.378 -0.1319 -0.2311 -0.0171
 1413W        W16882  16.478   2.020  10.183  0.0894 -0.1239  0.0609
 1414W        W16883   2.219   4.105   3.476 -0.2498  0.1857  0.1177
 1415W        W16884  11.762   6.537   3.665  0.1941 -0.0311 -0.2761
 1416W        W16885   0.018   1.986  13.474  0.0011  0.0977 -0.1397
 1417W        W16886   8.278  16.366  11.850  0.2141  0.0081 -0.0270
 1418W        W16887  14.774   8.243   1.156 -0.1410 -0.1275  0.0185
 1419W        W16888  10.758  17.033  13.560  0.1193  0.0674 -0.1357
 1420W        W16889   0.191  17.173  15.518  0.0877  0.1918  0.5716
 1421W        W16890   1.884   9.636  13.210  0.2438 -0.0134 -0.0530
 1422W        W16891  14.996   2.604   5.286  0.1438 -0.2102 -0.3463
 1423W        W16892   8.677  10.089   1.097 -0.0067 -0.1425 -0.0075
 1424W        W16893   7.552   3.967  11.326 -0.1613 -0.2741  0.1315
 1425W        W16894   6.243  14.895  14.668 -0.0229  0.1152  0.1060
 1426W        W16895   8.169  16.911  12.081  0.0202  0.0160 -0.0229
 1427W        W16896  15.627  16.466  13.196  0.3169  0.3864 -0.0893
 1428W        W16897   1.167  10.000  12.192  0.0154 -0.0891 -0.1510
 1429W        W16898   4.695   2.237  12.831  0.0824 -0.1532 -0.3225
 1430W        W16899   4.067   1.554  15.545  0.0868 -0.0613  0.0893
 1431W        W16900  12.809   6.476  15.403 -0.1518 -0.0455  0.1518
 1432W        W16901   4.739  18.447  11.032 -0.1887  0.1077  0.3331
 1433W        W16902  10.560  11.635  14.577 -0.3436  0.0304 -0.2968
 1434W        W16903  11.472   8.479   2.087 -0.0849  0.3179 -0.2335
 1435W        W16904  10.956   6.857   2.218 -0.2875 -0.3209  0.0013
 1436W        W16905  13.604   8.028  15.303  0.1979  0.0967 -0.1747
 1437W        W16906   6.075  15.220   1.908  0.0077  0.3788  0.2267
 1438W        W16907   9.552  15.663  13.747 -0.4083  0.3288 -0.2230
 1439W        W16908   1.620  11.172  12.813  0.3276  0.2720  0.1449
 1440W        W16909  13.390  13.820   3.601  0.3097  0.3983 -0.2230
 1441W        W16910  11.728   5.603   2.147 -0.0846  0.1175  0.3090
 1442W        W16911   5.855  16.849  15.550  0.1283 -0.4616 -0.4061
 1443W        W16912   2.425   7.811   2.145  0.1358 -0.0639  0.4336
 1444W        W16913   9.250  14.989   4.497  0.0080 -0.2148  0.1183
 1445W        W16914  17.525  12.518  12.747 -0.3452 -0.2587 -0.1477
 1446W        W16915   9.605   7.480   2.722  0.1195 -0.4818  0.1835
 1447W        W16916   4.918   1.232   3.801 -0.0234  0.2822  0.0527
 1448W        W16917  14.976   6.925  11.052  0.0105 -0.0921 -0.1682
 1449W        W16918   3.944   9.094   2.749  0.0412 -0.2061 -0.0771
 1450W        W16919   2.705   5.804   3.414 -0.2383  0.0736 -0.0885
 1451W        W16920  15.504  18.074  13.530  0.2170  0.3893 -0.0497
 1452W        W16921  14.632   2.539   2.302 -0.0114 -0.2240 -0.0051
 1453W        W16922  15.990  15.543  12.169  0.1010  0.3032 -0.0938
 1454W        W16923  15.794  10.660   1.077  0.1941 -0.1668 -0.0457
 1455W        W16924   1.462   1.999   3.597 -0.1175  0.0375 -0.0355
 1456W        W16925   8.604  11.825   5.303  0.1390 -0.0694 -0.1385
 1457W        W16926  14.390   9.637   0.467  0.0490  0.0400 -0.0115
 1458W        W16927  10.642  16.515  12.997 -0.1075  0.0072 -0.0917
 1459W        W16928   0.672   1.715   0.734 -0.0268  0.2933 -0.2497
 1460W        W16929  11.275   3.334   4.618 -0.0488  0.3205  0.2400
 1461W        W16930   0.518   4.476   0.908  0.0278 -0.1406  0.2952
 1462W        W16931  12.501  12.971  10.077 -0.1687  0.0622 -0.0943
 1463W        W16932   1.468  16.358   4.248 -0.0930 -0.1365  0.2398
 1464W        W16933   6.496  11.512   3.034  0.0530 -0.0883 -0.3523
 1465W        W16934  12.907   7.086  13.877  0.1415 -0.0025  0.2324
 1466W        W16935  15.911   5.736   0.958  0.0819  0.0268 -0.1733
 1467W        W16936   6.056   4.049   0.632 -0.1737  0.1919 -0.0110
 1468W        W16937   4.739   2.557   1.915  0.0217 -0.1998  0.1203
 1469W        W16938   2.895   7.912   2.295  0.0405 -0.0770 -0.3050
 1470W        W16939   8.855   5.662  14.608 -0.0691  0.1183 -0.0410
 1471W        W16940   6.418  10.787  11.186 -0.1816  0.4478 -0.2595
 1472W        W16941   5.184   2.710  11.850  0.1713 -0.1915 -0.3095
 1473W        W16942   4.713  13.629  10.931 -0.0248  0.0885  0.0148
 1474W        W16943  16.175  17.052   3.368  0.1231 -0.0962 -0.2507
 1475W        W16944  14.974   8.224   4.116  0.1406  0.3753 -0.1329
 1476W        W16945  10.716  14.290   5.114 -0.0758 -0.3530 -0.4288
 1477W        W16946  10.485  18.298  11.388 -0.2549 -0.3976  0.3873
 1478W        W16947  12.767  14.985  10.975  0.1210 -0.2507  0.1862
 1479W        W16948   9.153   7.705   4.985  0.3492  0.0920  0.2518
 1480W        W16949  15.600  13.846  11.280 -0.2428  0.1303  0.0947
 1481W        W16950  13.372   2.413   0.360 -0.1140  0.2486 -0.1861
 1482W        W16951   1.116  15.404  11.630 -0.0642 -0.1480 -0.2886
 1483W        W16952   5.333   7.121   1.040  0.2156 -0.1468 -0.0518
 1484W        W16953   1.356   4.245  15.724  0.3691 -0.1756  0.0851
 1485W        W16954   7.266   4.986   5.576 -0.0231  0.1810  0.1246
 1486W        W16955   2.195  18.123  12.305 -0.0788  0.0158 -0.0656
 1487W        W16956  17.318   6.229   4.915 -0.1657 -0.1482 -0.1084
 1488W        W16957  18.204  10.017   1.290 -0.1267  0.3448 -0.1159
 1489W        W16958   8.460   6.682   5.742 -0.0434  0.1453 -0.3585
 1490W        W16959  18.376   0.679   0.960 -0.3321  0.0338  0.1203
 1491W        W16960   4.226   4.774   5.831 -0.1669 -0.0019 -0.2575
 1492W        W16961   3.994  17.918  12.861  0.0634 -0.1541 -0.1650
 1493W        W16962   6.330   8.111   1.485 -0.1039 -0.0454  0.0582
 1494W        W16963   4.940   6.075   0.378  0.1052  0.2208  0.1574
 1495W        W16964  17.996   0.579   2.687 -0.0450  0.2037 -0.2685
 1496W        W16965   3.293  10.740   1.459  0.1498 -0.0872  0.1124
 1497W        W16966  13.191   4.816  15.772 -0.0992  0.0419  0.1066
 1498W        W16967  13.602   3.444   1.551  0.1949 -0.1085 -0.0793
 1499W        W16968   1.485  14.199  13.411 -0.3553 -0.1373 -0.0204
 1500W        W16969  18.404  11.657   1.386  0.0713 -0.1465  0.3118
 1501W        W16970  18.073   8.506  13.199 -0.2911  0.0300  0.3786
 1502W        W16971   5.463   6.216   4.169 -0.2133  0.4476  0.1708
 1503W        W16972  10.078   7.857  14.698  0.0021  0.0802  0.2672
 1504W        W16973   0.880  13.719  13.892  0.0685  0.0671  0.1814
 1505W        W16974  13.450   6.084   4.779 -0.0355  0.0822  0.2747
 1506W        W16975   7.662   8.817  13.516 -0.2006 -0.1527  0.1355
 1507W        W16976  13.032   7.768   4.523  0.3731 -0.1453  0.4005
 1508W        W16977   5.612  10.482  14.223  0.1036  0.3308 -0.0055
 1509W        W16978   2.015  11.414   5.073  0.1802 -0.1211 -0.0105
 1510W        W16979  15.392   5.243  13.210 -0.2082 -0.1233 -0.1480
 1511W        W16980   7.865   2.979   0.116  0.2663 -0.1067 -0.1705
 1512W        W16981  11.391   4.295  15.427  0.0475  0.1368  0.0209
 1513W        W16982  11.911   3.648  15.835 -0.1247  0.0604  0.1846
 1514W        W16983   8.988  10.987   4.282 -0.1664 -0.0459 -0.2154
 1515W        W16984  17.638   2.421   3.773  0.0656  0.0594 -0.0234
 1516W        W16985   4.582   2.926   0.491 -0.4345 -0.3702  0.0435
 1517W        W16986  17.267  15.780  13.379  0.2323 -0.0003 -0.3163
 1518W        W16987   7.840   4.149  14.791 -0.1339 -0.1720 -0.1461
 1519W        W16988  10.112   2.158  14.078  0.1975 -0.1797  0.2247
 1520W        W16989   5.613   2.358   4.919  0.1472  0.0389  0.1270
 1521W        W16990   5.382  18.132   0.073 -0.0151 -0.5029  0.0639
 1522W        W16991   0.843   6.034  12.474  0.0571  0.0520  0.1530
 1523W        W16992  11.141   8.499   4.264  0.1167  0.0898 -0.0439
 1524W        W16993  10.516   1.962   2.314  0.0608 -0.2767  0.0362
 1525W        W16994   5.243   0.769   1.456 -0.3316 -0.3381 -0.0253
 1526W        W16995   1.091   5.571   4.163 -0.0103  0.0056 -0.0690
 1527W        W16996   7.767  16.226  12.646  0.3045  0.1958 -0.0233
 1528W        W16997   7.143   7.546  10.412  0.1652 -0.2295 -0.4050
 1529W        W16998   2.215   7.992  14.072  0.0456 -0.1686  0.1534
 1530W        W16999   6.503   5.357   4.339  0.0836 -0.2148 -0.0062
 1531W        W17000  13.131  12.440  11.324 -0.1756  0.1233 -0.1991
 1532W        W17001  15.853  14.363  11.269  0.1514 -0.2506  0.3450
 1533W        W17002  11.123   4.112  12.828 -0.1556 -0.2265  0.0897
 1534W        W17003  17.408   4.376  11.763  0.2288  0.1154 -0.0124
 1535W        W17004   5.528   7.386  12.995  0.0267 -0.1372  0.1557
 1536W        W17005  12.141  13.228  13.333 -0.0261 -0.1134 -0.2109
 1537W        W17006   0.266  14.953   0.176  0.2190  0.3824 -0.0355
 1538W        W17007   4.790  18.430   2.326  0.1511  0.2599  0.0612
 1539W        W17008  18.249   1.513   5.343 -0.0437 -0.1152 -0.2413
 1540W        W17009  13.083  14.287  15.780 -0.2586  0.1333  0.0334
 1541W        W17010   3.846  18.374   3.164  0.0466 -0.4211 -0.0359
 1542W        W17011  13.250  10.545  11.758 -0.2114  0.1140 -0.1732
 1543W        W17012   0.517   0.843   3.667  0.0906  0.5149 -0.3090
 1544W        W17013  18.407   4.109   3.204  0.1776 -0.0420  0.0260
 1545W        W17014  16.464   5.126  13.359 -0.0261 -0.2425 -0.1807
 1546W        W17015  13.782  14.705   3.444  0.3636 -0.2212 -0.0969
 1547W        W17016  18.013   0.973  11.913 -0.0663 -0.0070  0.0154
 1548W        W17017   6.515  18.147  13.543 -0.1276  0.2667 -0.0153
 1549W        W17018   5.498  11.907   0.039  0.1087  0.0881 -0.0732
 1550W        W17019   0.908   9.681  14.937  0.1346 -0.0180 -0.2214
 1551W        W17020  10.746  14.058  15.890  0.2856 -0.1659 -0.0013
 1552W        W17021   9.142   0.351   1.188  0.0951  0.4752 -0.1010
 1553W        W17022   8.833   1.284  11.001  0.1876 -0.1499  0.0561
 1554W        W17023   9.517  14.317   4.128  0.0540  0.1944 -0.0323
 1555W        W17024   4.820  15.728   1.957 -0.2065 -0.1078 -0.3099
 1556W        W17025  13.945   4.384   1.734  0.2323  0.1495 -0.2709
 1557W        W17026  11.920  14.645  14.654  0.2071  0.1489 -0.1698
 1558W        W17027  13.765   9.252   1.255 -0.0873 -0.0023 -0.0823
 1559W        W17028  13.165   5.312   5.043  0.1541  0.1018 -0.0718
 1560W        W17029  14.951   3.997  13.911  0.1105  0.0965 -0.0417
 1561W        W17030  12.098   0.922  13.086  0.1016 -0.1052  0.1161
 1562W        W17031  11.798  16.993   1.672  0.2480  0.0712  0.2221
 1563W        W17032   1.837  12.461  11.448 -0.0982 -0.0027  0.1306
 1564W        W17033  16.362   4.682   0.199  0.1052  0.1590 -0.1589
 1565W        W17034   9.963  11.665   0.689  0.3999  0.0525 -0.3068
 1566W        W17035   8.136   6.125  14.503 -0.1863  0.1241 -0.0477
 1567W        W17036   4.800   2.255   4.701  0.0846  0.1006  0.2290
 1568W        W17037   5.359   9.068   2.099  0.1952 -0.0018 -0.2219
 1569W        W17038  12.247  18.393   3.734 -0.2157  0.1565 -0.3318
 1570W        W17039   7.223  11.878   4.139 -0.0746 -0.0372 -0.0365
 1571W        W17040   2.260   8.853  15.148 -0.1756 -0.1790  0.0185
 1572W        W17041   1.045   1.400  15.891  0.1034  0.4975  0.4294
 1573W        W17042  16.875   9.935   0.266 -0.0402 -0.2891  0.2287
 1574W        W17043   2.994   0.263  15.854  0.2258 -0.0349 -0.0248
 1575W        W17044   4.192  17.410  15.831  0.0042 -0.1484  0.0789
 1576W        W17045   4.422  10.027   0.257  0.1008  0.1226 -0.1226
 1577W        W17046   4.595  17.748  15.961 -0.1054  0.2184 -0.0040
 1578W        W17047   1.648   5.560   1.003 -0.2047 -0.1366  0.3147
 1579W        W17048  12.714  14.921  14.430 -0.0179 -0.1096  0.0707
 1580W        W17049  15.381  18.050  12.212 -0.0430 -0.1852 -0.1116
 1581W        W17050  10.632  15.368   3.346  0.1582  0.2756 -0.1019
 1582W        W17051   3.494   0.305   3.049 -0.2063 -0.2765  0.1731
 1583W        W17052   9.630   3.276  15.538 -0.1354 -0.0041  0.2218
 1584W        W17053   5.408   0.239  12.921  0.2474 -0.0480  0.1678
 1585W        W17054   3.878  11.595   2.685  0.1043  0.3167  0.2515
 1586W        W17055   8.531   0.149   0.070 -0.1782  0.1837 -0.2424
 1587W        W17056   4.466  18.448   1.108  0.0854 -0.0859  0.0697
 1588W        W17057  13.699  17.096   3.194  0.1713  0.0772 -0.1531
 1589W        W17058   1.390   3.756  15.026 -0.0860  0.1522 -0.0313
 1590W        W17059  10.757  12.004  13.763 -0.1422 -0.1527 -0.0710
 1591W        W17060   0.459   8.321  12.227 -0.0772  0.2688  0.2986
 1592W        W17061  11.673   4.208   3.858 -0.0308  0.1364 -0.1124
 1593W        W17062  17.441  14.978   0.604  0.0464 -0.1165  0.0129
 1594W        W17063   9.844  16.903   0.812  0.0701 -0.2869  0.1599
 1595W        W17064   7.434  13.435  13.833 -0.4315  0.0579 -0.0920
 1596W        W17065  17.195   7.838  11.304 -0.2184  0.1273  0.2019
 1597W        W17066   2.429   6.083   5.367 -0.1843  0.2100  0.3590
 1598W        W17067   0.227  13.232   1.205  0.0811  0.0428 -0.1068
 1599W        W17068   8.484   1.461   1.564 -0.2285 -0.1091  0.3479
 1600W        W17069  12.638   5.896   2.133 -0.1480  0.4041  0.3197
 1601W        W17070   1.637   7.808  13.890 -0.0118 -0.0507  0.0935
 1602W        W17071  12.291  11.155  12.420 -0.2328 -0.0461  0.0254
 1603W        W17072  14.099   1.723   3.915 -0.1205 -0.2719 -0.0268
 1604W        W17073  16.596  14.040   3.404  0.0265  0.0027 -0.0613
 1605W        W17074   8.836  14.717  10.463 -0.0297 -0.0619 -0.0451
 1606W        W17075  12.422  12.509   1.794 -0.3312  0.2151  0.1563
 1607W        W17076   3.208   9.801  13.072 -0.0567  0.0179 -0.2653
 1608W        W17077   8.720  16.813   3.996 -0.1569  0.1079  0.1130
 1609W        W17078   0.490  15.167   2.865 -0.2054  0.3493 -0.1552
 1610W        W17079   1.093  13.061  14.544 -0.2340 -0.1004 -0.2494
 1611W        W17080  11.679  16.778  15.806 -0.0083  0.1324 -0.0566
 1612W        W17081   8.829   6.820  10.901  0.1978  0.3615  0.2225
 1613W        W17082  10.700   2.154   1.453 -0.2854  0.1205  0.1782
 1614W        W17083  17.495  11.724   5.350  0.0624 -0.0118 -0.1784
 1615W        W17084  13.566   3.400  12.388 -0.0050  0.0368  0.3083
 1616W        W17085  17.332  13.513   3.361  0.4818 -0.1103  0.1570
 1617W        W17086  15.198   0.878   3.415  0.0181  0.1604  0.0636
 1618W        W17087  11.934  17.775  15.275  0.1005  0.0003 -0.2013
 1619W        W17088  12.230   6.025  12.984  0.1233  0.0377  0.0133
 1620W        W17089  17.509   2.953   1.984 -0.2387  0.5337  0.1148
 1621W        W17090  15.004   3.820  14.410 -0.3465 -0.2928 -0.0353
 1622W        W17091  14.525  14.927  11.130  0.0611  0.0725 -0.2121
 1623W        W17092  11.698  15.413   4.123 -0.0809 -0.2123 -0.2054
 1624W        W17093   2.181   3.816  15.665 -0.2517 -0.0114 -0.2444
 1625W        W17094  13.056  11.013  11.657 -0.3564 -0.1376 -0.1675
 1626W        W17095  17.097  15.699   3.474  0.3512  0.5698  0.1976
 1627W        W17096   2.876   4.342   4.185 -0.0470  0.1038 -0.1671
 1628W        W17097  10.433  11.640   0.907  0.3085 -0.3697  0.0689
 1629W        W17098  16.468  12.674   1.216  0.1179  0.0627  0.0539
 1630W        W17099  12.981   8.333   0.272  0.1170 -0.0627  0.1942
 1631W        W17100  16.956  15.793  10.167  0.0769  0.0785  0.0250
 1632W        W17101   9.626  10.644   3.142 -0.2188  0.1811  0.1552
 1633W        W17102   3.750   5.907  14.669 -0.3643  0.1340 -0.0904
 1634W        W17103   5.356  13.440   4.425  0.0497 -0.0972  0.0629
 1635W        W17104  18.431  15.097  12.821 -0.2205  0.1013  0.1351
 1636W        W17105  14.792   5.868   2.795 -0.5072  0.0007 -0.0349
 1637W        W17106   8.015   4.687  11.826  0.0981 -0.2033  0.0058
 1638W        W17107   8.023  17.328  13.533 -0.1982 -0.2910 -0.1754
 1639W        W17108   8.621  14.758  15.780  0.0904  0.2230  0.3112
 1640W        W17109  16.835  10.162  14.115 -0.3562 -0.2545  0.2681
 1641W        W17110   6.185   5.558  14.225  0.2528  0.1652  0.0065
 1642W        W17111  17.087   1.325   4.282 -0.1491  0.3872  0.6079
 1643W        W17112  14.542   7.184   4.085  0.0807  0.3252 -0.3625
 1644W        W17113   1.982   7.361  12.686  0.0478 -0.1129 -0.0655
 1645W        W17114  15.679  17.822  11.058  0.0207 -0.0916  0.2468
 1646W        W17115   1.398   8.621   2.973 -0.1008 -0.1397  0.6822
 1647W        W17116   1.290   1.903   6.135 -0.4482 -0.2856 -0.1839
 1648W        W17117  10.284  10.434  14.314  0.0347 -0.3611 -0.1226
 1649W        W17118   3.443   3.936  13.513 -0.0440  0.2276  0.0494
 1650W        W17119  11.244   1.364   5.790 -0.2261  0.0480  0.3019
 1651W        W17120   1.082   4.037  11.395 -0.2463 -0.0187  0.2734
 1652W        W17121  17.606   0.963   0.409  0.0637 -0.0810  0.1150
 1653W        W17122  18.347  16.131   3.510  0.2565  0.0862  0.2820
 1654W        W17123   2.363  16.444  12.370  0.2648 -0.3202 -0.0183
 1655W        W17124   7.357  15.085   1.495  0.0350 -0.5416  0.0546
 1656W        W17125  14.212  12.933   0.808 -0.0759  0.2916  0.1704
 1657W        W17126   8.631   1.626  11.505  0.0500 -0.0427 -0.0442
 1658W        W17127   1.106   4.673   1.425  0.2514 -0.3078  0.1145
 1659W        W17128   3.186   0.173  14.731  0.2258  0.1384  0.0756
 1660W        W17129   6.552   4.606  14.676 -0.2069 -0.1490 -0.0035
 1661W        W17130  16.534   1.159   1.787 -0.0481 -0.1709  0.3318
 1662W        W17131   4.699   8.712   5.622  0.1421  0.4589 -0.2668
 1663W        W17132   1.403   4.333   4.398 -0.0119 -0.2370  0.1450
 1664W        W17133  10.816  16.437   2.126 -0.1837 -0.1209 -0.0276
 1665W        W17134   0.071   3.312  14.149  0.0066 -0.0768  0.0516
 1666W        W17135  14.000   2.863   4.734 -0.0826 -0.3776 -0.1133
 1667W        W17136   9.173   3.969  11.637  0.0973  0.2540  0.0780
 1668W        W17137  10.589   9.909  13.550  0.2609 -0.0413  0.1738
 1669W        W17138  16.298  12.523   4.913  0.1815 -0.3606 -0.0494
 1670W        W17139  15.360   1.762   3.182  0.0305  0.0695 -0.1359
 1671W        W17140  17.595   8.650   2.510 -0.3135  0.2824 -0.2599
 1672W        W17141   0.979   5.634  13.240 -0.0023  0.1965  0.2482
 1673W        W17142   1.702   6.634  12.923 -0.3055 -0.2162 -0.2908
 1674W        W17143   3.447  15.298  10.427  0.1000  0.0731 -0.3862
 1675W        W17144  15.202  18.083   0.263 -0.0718 -0.1926 -0.0741
 1676W        W17145  13.977  16.215   2.311  0.0137 -0.0284 -0.0146
 1677W        W17146  12.162   9.077  16.007 -0.2082  0.0431 -0.0324
 1678W        W17147   0.973  14.405  12.077 -0.3963  0.1135  0.3624
 1679W        W17148   1.806  17.254  13.165 -0.0930 -0.1555  0.3039
 1680W        W17149   1.783   1.597  14.348 -0.0282  0.2371 -0.0602
 1681W        W17150  13.729   3.829  14.896  0.1852 -0.0430 -0.1449
 1682W        W17151  18.241  10.138   2.858  0.1110 -0.1564  0.0837
 1683W        W17152   7.676  15.846  11.230 -0.0427  0.0810  0.0075
 1684W        W17153  12.474  16.656   2.922 -0.1877 -0.2569 -0.5006
 1685W        W17154   0.214  18.378  14.857  0.0994  0.1613 -0.1025
 1686W        W17155  10.793  17.698   2.105  0.1951 -0.3548 -0.0605
 1687W        W17156   3.615   8.187   5.663 -0.0663  0.3550 -0.1037
 1688W        W17157  18.278  16.946  12.174  0.1842  0.2436  0.1305
 1689W        W17158   9.305  15.936  14.294 -0.2718 -0.0633 -0.0826
 1690W        W17159  15.734  15.586  12.634  0.0820  0.0854  0.1113
 1691W        W17160  17.619  18.353   3.817  0.3158  0.0046  0.2395
 1692W        W17161   5.232  12.867   5.140  0.1073  0.0142 -0.0843
 1693W        W17162  17.419  16.576  13.552 -0.1868 -0.0538 -0.0784
 1694W        W17163  16.685   8.759  14.477  0.2798 -0.2318 -0.3115
 1695W        W17164  15.792   9.525  15.251  0.0606  0.5010 -0.2245
 1696W        W17165   6.524  16.338  15.056  0.0910  0.2300 -0.1615
 1697W        W17166  16.753   4.406   5.901  0.3179  0.2336  0.0006
 1698W        W17167   2.581   7.893  15.897 -0.1564  0.1689 -0.3124
 1699W        W17168   0.258  14.173  10.408 -0.1114  0.2915  0.2670
 1700W        W17169  14.164  11.701  14.976 -0.1236 -0.1061  0.0792
 1701W        W17170   2.365   5.516   3.604 -0.1738  0.2413 -0.0793
 1702W        W17171   0.318  11.716   0.818  0.0704 -0.1172  0.1058
 1703W        W17172   8.521   4.340  12.681  0.0310  0.1705 -0.1618
 1704W        W17173   8.900  11.234   0.744  0.0964 -0.0422  0.0519
 1705W        W17174   5.183  12.434  12.101  0.0507  0.2811 -0.0635
 1706W        W17175   2.047  11.295  14.964  0.0162  0.1909 -0.1403
 1707W        W17176   2.198   5.948   4.032 -0.1027  0.0912 -0.0429
 1708W        W17177   5.075  12.969  15.453 -0.1241 -0.1964 -0.0224
 1709W        W17178  18.231  17.047   1.166 -0.1673 -0.1892 -0.0860
 1710W        W17179   7.424   5.260  13.772 -0.0630  0.0233  0.0616
 1711W        W17180  15.154   3.300  11.374 -0.0187  0.1765 -0.0614
 1712W        W17181   2.470   8.597  10.812  0.2922  0.1393  0.2359
 1713W        W17182  10.316   4.782  15.944 -0.0404 -0.1114  0.1874
 1714W        W17183  14.570  15.351   3.739 -0.1695  0.0476  0.0913
 1715W        W17184   4.095   6.989  15.223 -0.1725 -0.1422  0.3008
 1716W        W17185  13.746  14.061   1.056 -0.1341  0.1142 -0.1251
 1717W        W17186  13.038  12.318  14.766  0.1791 -0.1810  0.1638
 1718W        W17187   5.498  11.101  15.071 -0.3247  0.1405  0.0158
 1719W        W17188  15.634   8.344  13.591  0.2106  0.4357 -0.0984
 1720W        W17189   2.866  12.999  15.726  0.0158  0.0916 -0.1342
 1721W        W17190  12.920   5.683   1.405  0.0269 -0.1322 -0.1617
 1722W        W17191   1.306  11.354   0.140 -0.0534  0.2391  0.1404
 1723W        W17192  10.500   1.511   5.395  0.0792 -0.1695 -0.1612
 1724W        W17193  16.360  11.821  11.319 -0.0819  0.0820  0.1071
 1725W        W17194  17.838   9.402  15.260  0.3716 -0.1212  0.0631
 1726W        W17195   1.049   3.524  14.036  0.0881  0.0488 -0.1094
 1727W        W17196  12.029   6.043  10.677  0.0306 -0.0028  0.0708
 1728W        W17197  11.015   1.624  11.766 -0.0772  0.3598 -0.1165
 1729W        W17198  12.630   7.419   3.533  0.1529 -0.1657  0.0936
 1730W        W17199   4.349   7.985   5.127  0.1480  0.1977 -0.4871
 1731W        W17200  13.835   6.671   4.496  0.2719  0.2095 -0.0248
 1732W        W17201   4.053   8.780  13.539  0.3803 -0.0167  0.3124
 1733W        W17202   1.415   4.166   2.673  0.1716 -0.0031  0.3951
 1734W        W17203   1.946  18.137   0.506 -0.0853  0.1435  0.2576
 1735W        W17204  16.866   5.338  13.474  0.0201  0.1523  0.4030
 1736W        W17205  13.551  16.409   1.967 -0.1485 -0.2138  0.0882
 1737W        W17206   7.416   2.728  13.056 -0.0277  0.0937 -0.1211
 1738W        W17207   4.169  15.389   5.866  0.0450  0.1957 -0.0754
 1739W        W17208   0.766   9.079   3.410  0.0820  0.1724  0.0059
 1740W        W17209  10.047   4.908   0.665 -0.0235  0.1038  0.1439
 1741W        W17210  12.844   5.769   3.098  0.0933  0.0918 -0.2114
 1742W        W17211  17.211   9.716  14.768 -0.1508 -0.0277 -0.1244
 1743W        W17212   5.804   1.336   3.588 -0.2497  0.0396 -0.2104
 1744W        W17213   9.000   9.215  14.906  0.3440 -0.0818  0.4154
 1745W        W17214  13.825  10.038  14.022  0.1961 -0.1228 -0.3734
 1746W        W17215  14.694  14.568  11.458  0.1532  0.0531  0.2031
 1747W        W17216   5.144  13.770   0.272  0.0067 -0.1771 -0.1332
 1748W        W17217   7.358  11.118   4.765 -0.1437 -0.2914 -0.0432
 1749W        W17218   3.187  17.387  15.285  0.1629 -0.2127 -0.1991
 1750W        W17219   3.712  16.646  11.982 -0.0877  0.2686  0.0683
 1751W        W17220  14.986  12.166   1.611 -0.1187 -0.3200  0.3501
 1752W        W17221  13.600  12.369   0.564 -0.1496  0.3377  0.1910
 1753W        W17222   4.899   4.179   3.983 -0.1568  0.1853 -0.0991
 1754W        W17223  16.428  17.044   2.903  0.1544 -0.0933  0.1147
 1755W        W17224   5.431   3.174   4.169 -0.2119 -0.2183  0.2609
 1756W        W17225  16.406  16.239   4.720 -0.0824  0.1657  0.0552
 1757W        W17226   1.075  10.928  14.960  0.2744  0.1250  0.3792
 1758W        W17227  13.486   5.873   2.147  0.0170  0.0845  0.1986
 1759W        W17228   7.184   3.128   5.536  0.0195  0.0734 -0.1128
 1760W        W17229   9.807   7.657   5.500  0.1272  0.0416 -0.0290
 1761W        W17230   8.986  16.926  10.650 -0.0282  0.3482 -0.0534
 1762W        W17231   2.207   1.950  14.831 -0.3344 -0.5882  0.0180
 1763W        W17232   9.992   5.472   4.733  0.0831 -0.1435  0.2475
 1764W        W17233   4.585   7.263   2.258 -0.2709  0.3223 -0.0603
 1765W        W17234   0.586   8.892   5.207 -0.1553 -0.1787 -0.2217
 1766W        W17235   4.992  11.725  15.979 -0.1945 -0.0965 -0.0993
 1767W        W17236  13.976   4.452   4.009  0.1199 -0.2159 -0.2624
 1768W        W17237   4.997   5.374  13.683 -0.0847 -0.0601  0.2965
 1769W        W17238  13.704   2.140   4.063 -0.1509  0.1888 -0.3509
 1770W        W17239   6.171   3.819   4.580 -0.0027  0.1027  0.0661
 1771W        W17240  12.305  14.278   2.523 -0.3301  0.0474  0.2500
 1772W        W17241   0.515  14.027  13.026  0.1156 -0.0171  0.2521
 1773W        W17242   4.529   8.463  14.563 -0.1024  0.0409  0.1032
 1774W        W17243   4.321   2.497  13.093  0.2200 -0.0607  0.1926
 1775W        W17244   3.369   8.004  14.038  0.4449 -0.0001  0.1712
 1776W        W17245  15.990   6.640  13.330 -0.0441  0.0914 -0.1331
 1777W        W17246   2.630  18.034   0.988  0.1557  0.3814  0.2530
 1778W        W17247   6.595  12.051  13.817 -0.0868 -0.1807 -0.1280
 1779W        W17248   6.058  14.181  15.128  0.0433  0.0807  0.0762
 1780W        W17249  14.008   3.408  14.792 -0.1403 -0.2990 -0.3388
 1781W        W17250  17.494   7.410   1.159 -0.4512  0.1290  0.0111
 1782W        W17251   9.502  11.372  14.755 -0.1092 -0.5675 -0.0406
 1783W        W17252   7.683   3.331   4.715  0.0068 -0.1798  0.1399
 1784W        W17253   4.345   0.376  13.745  0.2998  0.1071 -0.2216
 1785W        W17254  11.778  12.237  11.396 -0.1695 -0.0326  0.0879
 1786W        W17255   5.909   2.591  12.990  0.0338  0.1725  0.0774
 1787W        W17256   1.206  16.522   3.326  0.2059  0.1934  0.0601
 1788W        W17257   0.863   3.772   5.553  0.0493  0.0364  0.3600
 1789W        W17258   7.368   0.014  15.282 -0.0439 -0.0137 -0.1312
 1790W        W17259  10.769   0.259  14.349  0.1819  0.2694 -0.0813
 1791W        W17260  13.748   4.586  13.619  0.0361 -0.1600 -0.2295
 1792W        W17261   8.228   3.294   4.956  0.1834 -0.2623  0.1499
 1793W        W17262   8.198  11.038   4.413 -0.1157  0.0630 -0.0272
 1794W        W17263   0.036   7.514   0.975 -0.0520  0.1768  0.0396
 1795W        W17264  14.128  10.098   2.863  0.0046 -0.1325 -0.0866
 1796W        W17265   3.358  16.231  13.618  0.0357  0.2920 -0.2700
 1797W        W17266  17.939  10.147   5.299 -0.1818  0.1855  0.1216
 1798W        W17267   8.077   4.832   0.440 -0.0263  0.1322  0.4100
 1799W        W17268  15.827   0.882  10.177  0.1484  0.1003  0.0910
 1800W        W17269  12.420   3.382  11.480 -0.5802 -0.1236 -0.2263
 1801W        W17270  14.948   2.390   4.084  0.0248  0.0086 -0.0254
 1802W        W17271  13.192   3.823   1.057 -0.2830 -0.0435  0.0610
 1803W        W17272  16.941  11.106   2.021  0.0646  0.1153 -0.0021
 1804W        W17273   1.138   5.716   1.132  0.0165 -0.1307 -0.0125
 1805W        W17274   1.468   3.147   1.784 -0.0362  0.0548 -0.1581
 1806W        W17275   3.239  14.882   2.358 -0.1005 -0.2248  0.1635
 1807W        W17276  16.188   3.350  11.040  0.0378 -0.1922  0.0426
 1808W        W17277   2.477  16.090  13.324 -0.2462 -0.0132  0.2753
 1809W        W17278  16.878  16.685   5.129  0.2852  0.0818  0.2223
 1810W        W17279   9.210   9.733  10.954 -0.1425  0.1968  0.3642
 1811W        W17280  14.435   5.329   1.661 -0.1136  0.0705  0.0217
 1812W        W17281   4.743   0.861  10.436 -0.3752  0.2331  0.2365
 1813W        W17282  12.071  15.007   4.907  0.0039 -0.1326 -0.1586
 1814W        W17283   4.098  14.858  12.027 -0.2815  0.3742  0.2686
 1815W        W17284   5.054   5.369  12.363 -0.3032  0.1505  0.1587
 1816W        W17285  15.416   2.798   1.186  0.1328 -0.0770 -0.1093
 1817W        W17286   1.029  16.037  13.013  0.4323 -0.0614  0.4675
 1818W        W17287   8.655   5.182   0.015  0.4329  0.1323  0.2898
 1819W        W17288   5.605   2.073  11.763  0.2338 -0.1747 -0.3962
 1820W        W17289  14.804   3.351   0.123 -0.2536  0.0823  0.1779
 1821W        W17290   6.499  17.064   5.418 -0.0571  0.0205  0.1915
 1822W        W17291  14.993   3.409   2.824 -0.1598 -0.0842 -0.0857
 1823W        W17292  12.582  15.029   1.509  0.1996  0.0907 -0.0029
 1824W        W17293  11.208  16.660  11.181  0.2163 -0.0286  0.2174
 1825W        W17294   6.060   0.472   1.758 -0.0426 -0.1108  0.1096
 1826W        W17295  11.824   5.265   2.671 -0.0061 -0.0013 -0.2435
 1827W        W17296  14.372   4.474   1.278 -0.4672  0.0984 -0.0154
 1828W        W17297   7.612  16.466  13.123  0.3556 -0.4462 -0.1412
 1829W        W17298  13.151  15.499   3.475 -0.1395  0.2939  0.0211
 1830W        W17299  17.482  14.652  10.484  0.2475 -0.0663 -0.1496
 1831W        W17300   3.463   6.597   1.995 -0.1509 -0.1459  0.0656
 1832W        W17301   4.376   3.011  13.770  0.0412  0.1001  0.3344
 1833W        W17302   3.861   2.069   0.904 -0.4277 -0.0110 -0.0834
 1834W        W17303   4.333  17.888  13.250  0.0191 -0.0819  0.1584
 1835W        W17304   9.994   3.691  15.653 -0.1592 -0.1360 -0.1202
 1836W        W17305   6.892  10.977  10.979  0.2208  0.0678  0.0109
 1837W        W17306  16.908  14.480   1.550  0.0680 -0.2632  0.0405
 1838W        W17307   8.782   5.679  12.571  0.1335  0.2131  0.0082
 1839W        W17308   0.217  14.917  11.962  0.0229 -0.2023 -0.0046
 1840W        W17309   4.848  14.424  10.871  0.0914  0.1259 -0.3491
 1841W        W17310   8.765   2.790   2.565  0.0306  0.0182  0.0353
 1842W        W17311  13.301  17.346  11.852  0.1359  0.0816 -0.0230
 1843W        W17312  10.166  11.558   5.560  0.1175 -0.3215 -0.3293
 1844W        W17313   2.852  17.476   0.247  0.0848 -0.1101 -0.2236
 1845W        W17314   8.757   1.215  15.573 -0.0912  0.1963  0.0541
 1846W        W17315   1.105  17.245  14.596 -0.4196 -0.2118  0.1279
 1847W        W17316  11.837   0.996   0.191 -0.1344 -0.1312  0.0012
 1848W        W17317  16.550  16.801  13.604 -0.1277  0.1271  0.0371
 1849W        W17318  10.860  13.264  12.957  0.0185 -0.1063  0.2204
 1850W        W17319  13.731   6.278   0.317  0.1449  0.3390  0.0589
 1851W        W17320   2.442   8.397   3.510 -0.1185 -0.4500 -0.0029
 1852W        W17321   6.680   9.056  10.498 -0.3686  0.0222  0.1145
 1853W        W17322   4.874   5.990   4.762  0.3397 -0.1366 -0.1446
 1854W        W17323  11.437  16.199   3.780 -0.0766 -0.2090  0.0635
 1855W        W17324  14.841   1.922   5.431  0.1291 -0.0243 -0.2753
 1856W        W17325   2.498   8.440  13.411  0.3605  0.1083  0.1250
 1857W        W17326   4.390   2.976  14.359 -0.3446  0.1927 -0.0566
 1858W        W17327  10.012  14.958  12.032  0.1285  0.1070  0.2041
 1859W        W17328  13.125   7.993  15.234 -0.1234  0.1048  0.0672
 1860W        W17329  16.327  10.885   4.121 -0.2420 -0.1806  0.3899
 1861W        W17330  17.173   2.255  11.938  0.3566  0.0049  0.0293
 1862W        W17331  16.868   9.885  12.372  0.0370  0.1711  0.2024
 1863W        W17332   9.752   5.418   5.280 -0.0617  0.3658  0.3388
 1864W        W17333  13.642   7.616  10.078  0.0594  0.3759  0.1539
 1865W        W17334   8.331  11.847  14.672  0.0494 -0.0785 -0.0889
 1866W        W17335   6.877  17.376   4.631  0.1508  0.0647 -0.3656
 1867W        W17336  13.507  17.445  15.952  0.2303 -0.0802 -0.3499
 1868W        W17337  17.451  15.109  11.814 -0.1686  0.2674  0.2317
 1869W        W17338  12.181  10.373  10.707  0.0779  0.4063 -0.0700
 1870W        W17339  17.306  12.794   3.362 -0.2155 -0.1366  0.1251
 1871W        W17340   0.362   1.327   5.660  0.2991 -0.1856  0.1757
 1872W        W17341  15.977  14.292  14.709 -0.2228 -0.0162 -0.0890
 1873W        W17342  15.897   3.952   0.199 -0.0777 -0.3878  0.0099
 1874W        W17343   6.173  17.254   3.629  0.3403 -0.1466 -0.1346
 1875W        W17344  11.414  10.429  14.547  0.4216 -0.2534 -0.1993
 1876W        W17345  14.226   7.435  11.443  0.0866 -0.1064  0.1830
 1877W        W17346   6.756  16.044   3.956  0.2070  0.3785 -0.0668
 1878W        W17347   7.346   1.872  15.022 -0.0658 -0.0045 -0.1891
 1879W        W17348  10.738   8.217  10.895  0.0832 -0.0858  0.0976
 1880W        W17349  12.551  18.046   1.830  0.4745  0.3139 -0.0251
 1881W        W17350   8.726  15.075  14.644  0.0029 -0.0658  0.2585
 1882W        W17351   0.677   7.102   4.280  0.1372  0.0015  0.1796
 1883W        W17352   5.471   2.215   3.869  0.2682 -0.0743 -0.0787
 1884W        W17353   2.858  16.386  13.159 -0.1628 -0.3452  0.4109
 1885W        W17354  15.574  11.306  14.454 -0.0220 -0.0701 -0.1460
 1886W        W17355  13.376  15.776   1.423 -0.4617  0.1720  0.2524
 1887W        W17356   0.760  16.255  12.081 -0.0072 -0.0364  0.2836
 1888W        W17357   0.675  12.488  14.394 -0.1104  0.4811 -0.1199
 1889W        W17358   4.929   3.222  14.247 -0.2603 -0.3489 -0.0961
 1890W        W17359  18.314  14.971   5.170 -0.2726  0.3004 -0.0641
 1891W        W17360  11.195   4.329   4.804 -0.0782  0.2162 -0.0516
 1892W        W17361   0.985  14.027   3.484  0.0843 -0.0864  0.2979
 1893W        W17362  14.197  10.586  13.154  0.1576 -0.0071  0.2104
 1894W        W17363  14.048  11.033  11.920  0.2983 -0.3812 -0.0034
 1895W        W17364   1.182  14.099   2.227 -0.0274  0.1361  0.0358
 1896W        W17365  14.973   8.926   1.594 -0.0924  0.2712  0.2531
 1897W        W17366  15.460  16.133  15.733  0.0180 -0.0230  0.2091
 1898W        W17367   3.022   6.260  14.225  0.0234  0.0715  0.1188
 1899W        W17368   6.596   0.057  10.512 -0.0772 -0.0228  0.3365
 1900W        W17369  11.530  13.535   2.328 -0.0521 -0.2597 -0.0834
 1901W        W17370  11.065  11.264   2.199  0.0341 -0.3105 -0.1553
 1902W        W17371  16.351   5.197  14.783 -0.0443  0.0119 -0.0771
 1903W        W17372   4.744  14.470   4.587 -0.0418  0.0159  0.2828
 1904W        W17373   3.426   5.887   3.216  0.0362  0.0468  0.1898
 1905W        W17374   3.097  12.525   5.466  0.0058 -0.1296  0.0006
 1906W        W17375   3.026   7.668  13.654  0.0704 -0.2618 -0.0507
 1907W        W17376  12.979  17.227   3.737  0.0372 -0.5135 -0.3785
 1908W        W17377   5.984  12.804   4.826 -0.0792 -0.0090  0.1189
 1909W        W17378  18.057  12.838  13.618 -0.1716 -0.3503 -0.1664
 1910W        W17379   8.015   3.357  15.521 -0.4446 -0.1933 -0.0351
 1911W        W17380  17.541   7.387   4.329 -0.0950 -0.2480 -0.0858
 1912W        W17381   1.905  17.857   3.909 -0.0347  0.0494 -0.0644
 1913W        W17382   2.284  13.486  13.790  0.1151 -0.1241 -0.4392
 1914W        W17383   7.986   8.063   3.306  0.0049 -0.2499 -0.1700
 1915W        W17384   0.607  16.220  13.239 -0.0931 -0.0229  0.2399
 1916W        W17385   4.175  13.061  15.450  0.0747  0.3720 -0.3350
 1917W        W17386   9.169  14.325  10.504 -0.0642  0.3164 -0.0254
 1918W        W17387   4.384   3.866   2.878 -0.2370 -0.0335 -0.1936
 1919W        W17388  17.808  10.161   4.216  0.0370 -0.3837  0.0447
 1920W        W17389  10.382  13.306   0.651  0.1402  0.0889 -0.0483
 1921W        W17390   2.347   9.685  14.938  0.4067  0.1029 -0.0008
 1922W        W17391   4.781  14.328  13.450  0.1662 -0.1371 -0.1917
 1923W        W17392   3.804  10.390  11.479  0.0528  0.1417 -0.1066
 1924W        W17393   9.119  13.126  10.854 -0.0755 -0.1705 -0.1854
 1925W        W17394   7.964   5.209  11.392 -0.1233  0.3037  0.0144
 1926W        W17395  12.961  16.948  14.557  0.0616  0.0396  0.1549
 1927W        W17396   8.042  10.242   5.117  0.2658 -0.0674  0.2792
 1928W        W17397   0.513  10.710   6.243  0.0283 -0.1289 -0.3070
 1929W        W17398  15.005   7.307   2.355  0.1454  0.3143  0.1711
 1930W        W17399   0.496   4.121  13.716 -0.0147 -0.1386 -0.3549
 1931W        W17400   9.154   6.963  13.483  0.2205 -0.0404  0.1344
 1932W        W17401   6.415   8.784   2.992 -0.2966  0.0465 -0.0208
 1933W        W17402  13.935  13.928  12.201  0.1833  0.0667  0.4198
 1934W        W17403   1.045  17.371   2.883  0.1802  0.0973  0.1872
 1935W        W17404  11.829   0.498   4.822 -0.1707 -0.1728  0.1510
 1936W        W17405  12.845  11.533  13.328 -0.1933 -0.0321  0.0533
 1937W        W17406   1.616  13.534  15.974  0.1462 -0.1265  0.0818
 1938W        W17407   5.542   1.901   5.687 -0.2124  0.2261 -0.0805
 1939W        W17408   5.021  10.650   4.079 -0.0609 -0.1874 -0.3535
 1940W        W17409  16.869  12.143   0.409 -0.0648 -0.1540  0.0778
 1941W        W17410   9.109  15.936   1.431 -0.0486 -0.0761 -0.2163
 1942W        W17411   3.124  11.634   3.988 -0.0296 -0.2669  0.1161
 1943W        W17412   7.856   7.291   6.176  0.0684  0.1066  0.0892
 1944W        W17413   1.346   4.621  14.104  0.1461 -0.1138  0.2814
 1945W        W17414  16.947   0.720  14.754  0.0527  0.1881  0.0488
 1946W        W17415  17.003   6.361   4.528 -0.0507 -0.0989 -0.2297
 1947W        W17416   6.451  16.980   1.427  0.1798  0.1957  0.1041
 1948W        W17417  16.608  10.415   1.561 -0.2159  0.1294  0.3335
 1949W        W17418  12.080  10.643   0.542 -0.0009 -0.0804 -0.0450
 1950W        W17419  11.431   3.761  13.012 -0.3151 -0.0775  0.0708
 1951W        W17420   0.175   8.736  14.503  0.1475  0.0640 -0.1850
 1952W        W17421  17.223  11.004   0.635  0.0072 -0.1615 -0.0132
 1953W        W17422   7.417   7.504  13.883 -0.4073  0.2040  0.2755
 1954W        W17423   3.540  17.074  11.727  0.4443  0.1970 -0.1451
 1955W        W17424  16.503  10.269   2.981 -0.2101  0.0259 -0.0813
 1956W        W17425  10.593  13.122   2.157 -0.3338 -0.3136 -0.1601
 1957W        W17426   3.071   8.148   3.260  0.2640  0.4647  0.0659
 1958W        W17427   3.856  17.285   2.400  0.1626  0.2492 -0.1444
 1959W        W17428   7.397  11.954  12.766 -0.0831 -0.0045  0.2886
 1960W        W17429   4.714  11.415   5.154 -0.2973 -0.0140  0.0662
 1961W        W17430   3.559   1.780  12.545  0.2378 -0.0938 -0.1721
 1962W        W17431   1.984   6.180   5.304  0.1869 -0.2364  0.1063
 1963W        W17432   4.784  10.731   2.629 -0.0686  0.1504 -0.2233
 1964W        W17433  13.056  14.511   3.353  0.0775  0.0231  0.0414
 1965W        W17434   9.364   9.258  11.039  0.0254  0.0701  0.0279
 1966W        W17435   6.314  15.475  13.849 -0.0838  0.1960  0.2208
 1967W        W17436  16.923  10.362  15.420 -0.2203 -0.1603 -0.0801
 1968W        W17437   1.744  12.706  15.847  0.0493  0.0258  0.0001
 1969W        W17438   6.435   2.105   4.452 -0.0509 -0.1704 -0.0550
 1970W        W17439  11.342  16.841  13.523 -0.1698  0.0731  0.4260
 1971W        W17440  11.464  11.834  14.182 -0.1045 -0.0357 -0.0012
 1972W        W17441   9.037  13.588  15.510 -0.4511 -0.1432  0.4460
 1973W        W17442   2.531   0.609   3.453  0.0096 -0.0360  0.0214
 1974W        W17443  13.422  12.654   5.402  0.3712  0.4056  0.0729
 1975W        W17444   5.680  12.439  12.089 -0.5300  0.1179 -0.3402
 1976W        W17445  12.649   6.995   0.945 -0.1913  0.0398 -0.0843
 1977W        W17446   2.621  16.209   0.618 -0.1505  0.3627  0.0702
 1978W        W17447  11.505   4.222   2.114 -0.0829  0.0773  0.2033
 1979W        W17448   3.732  11.328  13.322  0.2363 -0.0285 -0.1929
 1980W        W17449  12.865   0.441   1.331  0.1755  0.0326 -0.1344
 1981W        W17450   8.695   6.760  12.445 -0.1431 -0.1503 -0.3461
 1982W        W17451   5.890   6.934   0.898  0.0565 -0.2684 -0.0909
 1983W        W17452  17.770   5.053  12.748 -0.0141  0.3663  0.0933
 1984W        W17453  11.438  14.843  14.550  0.0524  0.1133 -0.2389
 1985W        W17454   5.921  16.905   2.468 -0.0959  0.0778 -0.2530
 1986W        W17455  16.069   1.173   3.155 -0.1849 -0.3203 -0.0617
 1987W        W17456   6.480  10.551   4.869 -0.0935 -0.0048 -0.0550
 1988W        W17457  10.586  10.774   0.749  0.0935  0.0742  0.0795
 1989W        W17458  18.418  16.030   1.085 -0.0785  0.1560 -0.0237
 1990W        W17459  18.117  11.317  14.915 -0.1569  0.0630  0.2365
 1991W        W17460   6.157   7.779  11.416 -0.0527  0.0769 -0.0246
 1992W        W17461   5.083   6.299  10.886 -0.1792 -0.0138  0.2649
 1993W        W17462   2.755  10.407   2.283 -0.2542 -0.0199 -0.0520
 1994W        W17463  16.849  11.269   3.425  0.0210  0.0888 -0.0317
 1995W        W17464  10.440   1.221  14.699 -0.1562 -0.1962  0.1491
 1996W        W17465   1.824   3.891  12.482  0.1998  0.1048 -0.0721
 1997W        W17466   2.349   7.122  12.452 -0.0501  0.1542 -0.1070
 1998W        W17467   3.548  13.883   2.090 -0.3116  0.1071  0.0417
 1999W        W17468   4.179   5.089   1.566  0.0457 -0.1906  0.1260
 2000W        W17469  17.135  15.792  11.862  0.3196  0.1209 -0.0948
 2001W        W17470   4.797  17.842   4.104 -0.0142  0.0186 -0.1123
 2002W        W17471   7.941   4.057   2.510 -0.1182 -0.0223 -0.0978
 2003W        W17472   6.470  17.948   2.328  0.4068 -0.0298  0.0483
 2004W        W17473  17.650   3.287  12.145 -0.1449 -0.1362 -0.1857
 2005W        W17474  13.621   0.382   0.254  0.0284  0.1504  0.0871
 2006W        W17475   7.150  17.518  10.364  0.0393 -0.0002  0.0389
 2007W        W17476   0.579  13.111  12.105 -0.2069  0.1170  0.1866
 2008W        W17477   0.378  11.805   5.026 -0.1059 -0.1806 -0.1121
 2009W        W17478   0.352   2.285  14.242  0.1209  0.1308  0.3765
 2010W        W17479   0.469  11.224  16.012 -0.0700 -0.0803 -0.1518
 2011W        W17480  17.510  15.249   0.184 -0.2779 -0.0531  0.0641
 2012W        W17481  10.394   0.055  14.826 -0.0670  0.2068  0.4343
 2013W        W17482  16.468  17.347  11.503 -0.0237 -0.1690 -0.1746
 2014W        W17483   0.646  14.631  15.476  0.0731 -0.2814  0.3297
 2015W        W17484  11.495  13.775  13.161 -0.1682  0.1203 -0.3780
 2016W        W17485  14.815   3.767   4.467 -0.0472  0.2908  0.2683
 2017W        W17486  16.107   5.043   2.699  0.1660  0.1866  0.0991
 2018W        W17487   5.136   7.832   1.830 -0.1651 -0.0764 -0.0981
 2019W        W17488   5.541   4.932   3.317  0.0382 -0.1588 -0.0080
 2020W        W17489   8.803   1.609   3.384  0.0443  0.0628  0.3530
 2021W        W17490   9.127  15.417   1.116  0.0653  0.1904 -0.0690
 2022W        W17491  14.375   9.088   1.155 -0.1940  0.0685 -0.1299
 2023W        W17492  10.891   6.639   1.735 -0.0861 -0.3075  0.0770
 2024W        W17493   1.590   7.875  14.840  0.4489  0.0020 -0.1612
 2025W        W17494  14.294  13.702  15.206  0.1916  0.0627  0.2650
 2026W        W17495   8.332   1.597   4.227 -0.2080 -0.0164  0.2536
 2027W        W17496   1.144   0.485  13.422  0.0103  0.0031 -0.2440
 2028W        W17497   8.664  14.341   2.183  0.0235  0.0435 -0.0194
 2029W        W17498  17.128   2.938  13.127  0.2022 -0.2117  0.1547
 2030W        W17499   5.806   4.289  15.581  0.2535 -0.0050  0.1747
 2031W        W17500  10.408   6.653  14.126  0.1858 -0.2736 -0.3500
 2032W        W17501  17.468  13.658   1.298 -0.2708  0.2165 -0.2360
 2033W        W17502   9.931  17.118   1.802  0.1912  0.4057 -0.1564
 2034W        W17503   5.025  12.806  13.643 -0.1793  0.2366 -0.2029
 2035W        W17504  15.777   7.854   1.374 -0.2309 -0.2769 -0.2126
 2036W        W17505   7.894   8.179   5.314  0.4021  0.4053  0.0751
 2037W        W17506  17.176   6.785   2.035  0.1079 -0.1255 -0.0719
 2038W        W17507  16.181   9.458   1.787  0.4388  0.1268 -0.0562
 2039W        W17508   1.097  17.006  12.953  0.2459 -0.0401 -0.0578
 2040W        W17509  11.901  10.646  14.636 -0.3581 -0.5011  0.1950
 2041W        W17510  16.221   6.858   3.276 -0.1699  0.0500 -0.2403
 2042W        W17511   8.575   5.099  11.837 -0.1144  0.1742 -0.3074
 2043W        W17512   6.080  14.905  15.860  0.3235  0.0951 -0.0172
 2044W        W17513  15.830   9.356   4.510 -0.0098  0.2084 -0.2042
 2045W        W17514  15.258   8.403  10.931 -0.2339  0.1925 -0.0674
 2046W        W17515   6.789   0.324   0.869  0.0959  0.2077 -0.0554
 2047W        W17516  16.589   0.228  10.996 -0.0202 -0.0943  0.0643
 2048W        W17517  18.257  12.275  15.677  0.2572  0.3734  0.2437
 2049W        W17518   1.971   6.765  15.684  0.1895  0.1071 -0.2115
 2050W        W17519  11.218   5.007   0.926 -0.0192 -0.1813  0.0453
 2051W        W17520  13.759   0.360   2.540 -0.2558 -0.3820  0.0068
 2052W        W17521   4.080   3.588   0.514  0.0210  0.1044 -0.1653
 2053W        W17522   7.095  11.591   0.787  0.0832  0.0819  0.0462
 2054W        W17523  17.940   5.035   2.910 -0.0105  0.1153  0.0511
 2055W        W17524   1.866   2.927   1.949  0.0389 -0.1095 -0.0109
 2056W        W17525   6.637  14.842  15.733  0.0964 -0.1015 -0.1883
 2057W        W17526   8.144  11.568   4.118 -0.0450  0.2167 -0.0791
 2058W        W17527   2.666  12.625   4.487  0.0578  0.2022 -0.1453
 2059W        W17528   7.817   5.179   4.133  0.2321 -0.0655 -0.0551
 2060W        W17529   0.412   7.721   1.261  0.1450  0.0236 -0.3028
 2061W        W17530   9.679  15.085   4.814  0.5889 -0.0328 -0.0016
 2062W        W17531  13.818   1.308   3.973  0.1699  0.1347  0.0044
 2063W        W17532  15.393  14.542  14.368  0.1656  0.1231 -0.0566
 2064W        W17533  15.349   6.738  15.616  0.1326  0.3182 -0.0226
 2065W        W17534  16.870   8.610   1.080  0.2572  0.0212 -0.0652
 2066W        W17535   0.932  16.854  14.896  0.0909  0.1117  0.2636
 2067W        W17536   3.083  15.495   0.087 -0.3359 -0.3986 -0.2618
 2068W        W17537   0.831   6.789   0.475  0.0815  0.1905  0.0837
 2069W        W17538   6.055  16.624  12.625 -0.0538 -0.2286 -0.0023
 2070W        W17539  14.789  12.297  15.738 -0.1384  0.1206  0.0599
 2071W        W17540   6.056   0.005  14.444 -0.2162 -0.0727  0.0873
 2072W        W17541  10.445   1.163  15.437 -0.1960 -0.2645 -0.0445
 2073W        W17542  15.966  12.364   5.258  0.1001 -0.0710  0.0441
 2074W        W17543   1.787   0.267   4.047 -0.2126 -0.2077 -0.1140
 2075W        W17544  14.424   7.114   5.533 -0.2191 -0.0035 -0.2307
 2076W        W17545  13.888   9.544  13.848  0.1816 -0.0858 -0.1058
 2077W        W17546  17.900  10.089  11.103 -0.1518  0.0023 -0.2439
 2078W        W17547  10.892  14.614  12.436 -0.2611 -0.0208  0.1176
 2079W        W17548   2.195   9.481   1.561  0.0259  0.1122 -0.4324
 2080W        W17549   7.537  15.669   3.919  0.2918 -0.0638  0.0265
 2081W        W17550   2.240  11.374  11.975 -0.0435 -0.0991  0.1694
 2082W        W17551   7.807   5.438   2.520  0.2987 -0.1277 -0.1032
 2083W        W17552   3.286   8.960  12.430 -0.1385 -0.0353 -0.6707
 2084W        W17553  13.638  12.302   2.416  0.1052 -0.1833  0.1208
 2085W        W17554  13.928   5.647  13.893 -0.1239  0.0165 -0.1278
 2086W        W17555  12.660   0.799   2.080 -0.2979 -0.1866 -0.0325
 2087W        W17556   7.243   0.387   2.719 -0.2200 -0.0473  0.0164
 2088W        W17557   4.485   1.509   5.265 -0.1829  0.0965 -0.1067
 2089W        W17558  15.488  11.426  11.113 -0.1894  0.0265  0.2368
 2090W        W17559   5.965  16.882   1.238  0.2621  0.0164 -0.1743
 2091W        W17560  18.424   9.054   0.852  0.0473  0.1239 -0.2875
 2092W        W17561   0.324  15.836  10.752 -0.0027 -0.2243  0.3249
 2093W        W17562   9.010  16.399   3.970 -0.0414 -0.1296  0.1096
 2094W        W17563  11.741  12.835   0.507  0.0222  0.1295  0.1000
 2095W        W17564  15.450  14.592   2.891 -0.0717  0.1581 -0.3287
 2096W        W17565  17.527  17.432  12.330  0.0462 -0.0005  0.4470
 2097W        W17566   2.734  10.797   3.080 -0.2839 -0.2590 -0.1199
 2098W        W17567  11.388   8.181  13.565 -0.2577 -0.1763  0.1288
 2099W        W17568  14.721   1.245   4.574  0.2857 -0.0227 -0.0958
 2100W        W17569   3.657   4.734   0.505 -0.1717 -0.3447 -0.1859
 2101W        W17570   0.849  13.614  12.857  0.0536 -0.1268  0.0012
 2102W        W17571   2.461  17.615   2.343 -0.2073 -0.0446  0.0736
 2103W        W17572   2.210  11.394   0.000 -0.2559 -0.0172 -0.2355
 2104W        W17573  14.834  16.583  12.384  0.2208 -0.0705 -0.2883
 2105W        W17574   7.479   0.514  15.381  0.0096 -0.1123  0.0011
 2106W        W17575   9.416  10.220   3.938  0.0676  0.3725  0.0129
 2107W        W17576  14.185  15.874  10.767  0.1296  0.2400 -0.2315
 2108W        W17577   7.060  17.951   3.427 -0.0784  0.0167  0.1030
 2109W        W17578   5.808   0.939  13.459 -0.1083 -0.1050 -0.2103
 2110W        W17579   9.354   7.828   1.349 -0.0312 -0.2559  0.0551
 2111W        W17580  11.393  15.407  14.453 -0.0877 -0.0646 -0.0395
 2112W        W17581   0.740  14.089  15.004 -0.0973 -0.2463  0.1311
 2113W        W17582  16.038  13.897  15.283 -0.0905 -0.0623  0.1402
 2114W        W17583   6.985   3.366   3.317 -0.1253 -0.1882  0.2159
 2115W        W17584   0.287  13.893   5.013  0.1475 -0.0493  0.1295
 2116W        W17585   1.535   2.240   1.097 -0.1108  0.0231 -0.2931
 2117W        W17586  10.565  17.695   1.682 -0.2017  0.1603 -0.0846
 2118W        W17587   2.798   7.465   2.098  0.4984 -0.2058  0.1708
 2119W        W17588  10.048   2.397   4.522 -0.1329  0.1252 -0.1126
 2120W        W17589   8.111   2.194  13.438  0.2523 -0.1218 -0.2439
 2121W        W17590   9.379   9.172   1.683 -0.1265  0.0363 -0.0826
 2122W        W17591   5.837  11.170   0.781  0.0722 -0.0291 -0.1792
 2123W        W17592  11.504   9.067  14.063  0.0430 -0.1497  0.1680
 2124W        W17593   9.502   0.291  10.880 -0.0299 -0.1225  0.1142
 2125W        W17594  11.116  10.695   0.345 -0.0383 -0.1498  0.0545
 2126W        W17595   3.771  13.507  12.214  0.0441 -0.1107  0.1018
 2127W        W17596  14.840   6.377   4.807 -0.0438 -0.3026 -0.0289
 2128W        W17597   5.996  11.225  13.714 -0.2577  0.1704  0.1526
 2129W        W17598  17.530   7.182  14.296  0.0513 -0.0456 -0.1373
 2130W        W17599   6.933   8.267   0.821 -0.3393 -0.1971 -0.2880
 2131W        W17600   1.291  18.437   1.097 -0.3100  0.0469  0.1203
 2132W        W17601  15.612  18.394   3.457 -0.1263 -0.2646  0.0707
 2133W        W17602   4.343  17.454  13.727  0.1309  0.0136  0.2106
 2134W        W17603   2.257  13.811   0.046 -0.1210 -0.1837 -0.3573
 2135W        W17604  13.088  15.092  14.027  0.0539 -0.2015  0.0984
 2136W        W17605   4.608  12.903  10.051  0.0873 -0.2440 -0.0886
 2137W        W17606  17.558  15.815  14.346  0.0568 -0.2617  0.0895
 2138W        W17607  17.189   7.884   0.405  0.2938  0.0435  0.0946
 2139W        W17608   8.847   0.081   0.869  0.0383  0.1332 -0.0262
 2140W        W17609  14.354   7.765  13.908  0.1867 -0.2298 -0.1618
 2141W        W17610   6.734   4.348   3.986 -0.1551  0.0355 -0.0061
 2142W        W17611  16.288   0.681   3.535  0.0537 -0.1579  0.4194
 2143W        W17612   6.009   3.121   4.793  0.2374 -0.1441 -0.0255
 2144W        W17613   9.752  12.762  13.312  0.2901 -0.0915 -0.0934
 2145W        W17614  12.415   2.433   1.345  0.0753  0.0474  0.2468
 2146W        W17615   2.565   0.490   5.837 -0.2422  0.1734  0.0411
 2147W        W17616  13.486   0.353   4.174  0.0921 -0.0321  0.1757
 2148W        W17617   8.774  16.809   1.329 -0.3415  0.2913 -0.1270
 2149W        W17618  13.119   1.563  13.384  0.1257  0.0153 -0.0074
 2150W        W17619  16.482  14.010  15.524  0.1643  0.1362 -0.3557
 2151W        W17620   8.257  17.703   2.523  0.1627  0.0264 -0.1240
 2152W        W17621  16.695   9.654  14.981  0.0824  0.1019 -0.1597
 2153W        W17622  12.521  10.266   5.280  0.0924 -0.1142  0.2487
 2154W        W17623  15.943   2.111   4.194 -0.1344  0.2007 -0.0063
 2155W        W17624   0.809   8.051   2.456 -0.0635  0.0080 -0.2618
 2156W        W17625  17.627   6.586   4.239 -0.2581  0.2020 -0.0326
 2157W        W17626  13.503   6.704   1.818 -0.0315 -0.1202  0.0901
 2158W        W17627   3.000  16.081   5.532 -0.1054 -0.3912 -0.0309
 2159W        W17628   1.765  15.786  15.425  0.0617 -0.1126 -0.3485
 2160W        W17629   8.273  16.190   3.980  0.1191  0.1716  0.1425
 2161W        W17630   8.049   2.774   1.224 -0.0765 -0.2426 -0.0471
 2162W        W17631   3.965   8.029  12.241 -0.1256  0.0574 -0.0391
 2163W        W17632  14.586  15.449   4.734 -0.0879 -0.3569 -0.0089
 2164W        W17633   4.122   7.038   4.033 -0.3122  0.2220 -0.1673
 2165W        W17634   9.266   2.284   5.968  0.0946 -0.1146 -0.1928
 2166W        W17635   1.076  18.275  13.729 -0.1278  0.2297  0.1246
 2167W        W17636   8.987   6.175  15.051 -0.0333 -0.1954  0.2188
 2168W        W17637   4.591  11.239   4.719  0.1951  0.0251 -0.1429
 2169W        W17638  16.539  16.724   1.733 -0.0178 -0.1010 -0.0955
 2170W        W17639   4.714   5.196   4.500 -0.4211 -0.1537  0.0002
 2171W        W17640   4.083   2.787   5.102 -0.0563 -0.0435 -0.0233
 2172W        W17641   2.569  10.109   5.477  0.2826 -0.2373 -0.2255
 2173W        W17642  18.106  17.016  13.992  0.0787  0.0480  0.1284
 2174W        W17643  11.720   8.884  12.295  0.1320 -0.0155 -0.3752
 2175W        W17644   9.796   9.466  12.310  0.0196 -0.3178 -0.0959
 2176W        W17645  15.158   1.996   2.299  0.0400 -0.0389  0.0378
 2177W        W17646  17.879  15.413  15.247 -0.0680  0.0635 -0.0477
 2178W        W17647  13.089   6.716   2.677 -0.0025 -0.0457  0.3460
 2179W        W17648   9.273   0.335   2.201  0.3207 -0.0006 -0.0406
 2180W        W17649  10.470   4.703   0.960  0.2090  0.1934  0.1438
 2181W        W17650  16.340   4.866  15.203  0.0246  0.0195 -0.1757
 2182W        W17651   3.396   1.760   1.699  0.2221  0.2691  0.0051
 2183W        W17652   2.830  14.781  15.273  0.2310 -0.0138  0.2491
 2184W        W17653  12.678   9.903  12.027 -0.2433  0.1728  0.2975
 2185W        W17654  14.614  17.796   3.353  0.2062 -0.2137  0.0392
 2186W        W17655  15.658  10.730  11.731 -0.0116  0.0853 -0.0077
 2187W        W17656   8.125  16.266   3.438  0.1484  0.1442  0.1077
 2188W        W17657  14.852  12.207   5.315 -0.1824  0.0201  0.0528
 2189W        W17658   2.030   5.704  15.148 -0.2122  0.0279 -0.2023
 2190W        W17659  14.409  16.101   1.654 -0.0237 -0.0727  0.3967
 2191W        W17660   2.045   8.551   1.170 -0.2864  0.0887  0.2105
 2192W        W17661   3.150  17.077   4.892  0.2230 -0.2768 -0.0115
 2193W        W17662  16.302   9.859   1.560 -0.3850 -0.2451  0.0574
 2194W        W17663  12.117  11.121   0.445 -0.0774  0.2563 -0.2664
 2195W        W17664  17.025  15.339   1.577  0.1336  0.4549 -0.2639
 2196W        W17665   7.021   5.826  12.314 -0.2428 -0.1357  0.0251
 2197W        W17666   7.708   0.059  12.206  0.0770  0.1622  0.3423
 2198W        W17667  14.609   6.031  11.349  0.0757 -0.0793 -0.0384
 2199W        W17668   0.142  13.810  10.784 -0.0311  0.0565  0.1149
 2200W        W17669  14.739   2.915   4.135 -0.0397 -0.1384 -0.3973
 2201W        W17670  14.642   8.391  14.685 -0.0764  0.1542  0.0354
 2202W        W17671  14.134   9.385   2.883  0.2614  0.1191 -0.0951
 2203W        W17672   1.107   1.296  14.542  0.0177 -0.5134  0.1139
 2204W        W17673   9.698  14.484  13.294  0.3519  0.0790 -0.1570
 2205W        W17674   5.417   4.067   2.474  0.1279  0.0541 -0.0177
 2206W        W17675   9.489  17.788  12.441 -0.3470  0.1597 -0.3276
 2207W        W17676   5.145  15.748  13.139  0.2673 -0.0762  0.2454
 2208W        W17677   5.646   7.516  11.497  0.1070  0.0567  0.0509
 2209W        W17678   8.961  11.852   2.241  0.3461  0.0978  0.0121
 2210W        W17679  16.889   5.537  11.638 -0.0329  0.2704 -0.4094
 2211W        W17680   8.622   9.481   4.107 -0.3120  0.2384  0.4009
 2212W        W17681   9.747   2.449   4.063  0.0045  0.2697 -0.0193
 2213W        W17682  13.024   3.445   0.780 -0.3473  0.1521  0.0389
 2214W        W17683   3.372  15.062   0.399 -0.2525  0.2298 -0.0488
 2215W        W17684   2.110  10.371  12.890 -0.1177 -0.1486 -0.0591
 2216W        W17685  17.592   4.863   4.641  0.3048 -0.3920  0.2536
 2217W        W17686  10.820   3.233  13.340 -0.1000 -0.0209  0.2338
 2218W        W17687  11.677   2.152   0.415  0.0922 -0.0026 -0.0724
 2219W        W17688  12.302   1.235  15.379  0.3408  0.0185  0.2802
 2220W        W17689  16.001  15.756   2.734  0.3445  0.3041  0.3613
 2221W        W17690  15.206   5.961  13.579  0.2518  0.2063 -0.0194
 2222W        W17691   3.565   8.993  15.512  0.3865 -0.0900 -0.2481
 2223W        W17692   5.465   2.083   2.249 -0.2204  0.1565  0.2717
 2224W        W17693   2.287  11.614  14.586 -0.0506 -0.2225 -0.2175
 2225W        W17694   4.488   5.282  15.925  0.0527  0.2528  0.1773
 2226W        W17695   2.961   3.841   3.985 -0.1707 -0.0754  0.0086
 2227W        W17696  14.697  12.023  13.555 -0.3476  0.0944  0.0436
 2228W        W17697   6.134  16.075   1.650 -0.1153  0.2077  0.0734
 2229W        W17698   8.274  10.551   4.174 -0.0046  0.1200 -0.2916
 2230W        W17699   7.468   7.642   0.854  0.0042 -0.1138  0.3402
 2231W        W17700  10.226  13.573   0.107  0.0970 -0.2138 -0.1516
 2232W        W17701   1.826   9.383  11.963  0.1719 -0.3813  0.0925
 2233W        W17702  15.600  15.420  13.101 -0.2517  0.4149 -0.0761
 2234W        W17703  14.661  13.190   0.861  0.1436 -0.1220  0.2104
 2235W        W17704   8.207  18.313  12.378 -0.0108 -0.1406  0.1035
 2236W        W17705   7.948   0.331   2.303  0.3537 -0.0958  0.1785
 2237W        W17706   4.349  14.603  12.895 -0.3077 -0.3421  0.1139
 2238W        W17707   0.747   1.126  11.506 -0.0026 -0.3868  0.1230
 2239W        W17708  14.269   4.543  12.802 -0.0219 -0.0021  0.2082
 2240W        W17709   2.862  15.239   2.608  0.2401  0.0556 -0.0262
 2241W        W17710   5.862  10.299  12.997  0.0585 -0.3280 -0.0242
 2242W        W17711  13.533   5.621   4.845 -0.1040  0.0752 -0.1136
 2243W        W17712  16.718   7.292   2.215 -0.0882 -0.0499  0.3050
 2244W        W17713   2.436   8.056   4.286 -0.1860  0.0469 -0.1495
 2245W        W17714   5.874  16.479  12.152  0.2414 -0.0078 -0.1302
 2246W        W17715   1.301   9.224   0.298 -0.2404  0.1980 -0.1084
 2247W        W17716  10.927   0.971   1.445  0.1298 -0.0362 -0.0795
 2248W        W17717   4.917   1.025   1.893  0.2771  0.2573  0.2641
 2249W        W17718  11.194  13.614  14.067  0.0564 -0.1674 -0.0801
 2250W        W17719   6.952   8.393   5.304 -0.0375 -0.0023 -0.1174
 2251W        W17720   2.211   8.347   5.708 -0.0326 -0.1811 -0.0360
 2252W        W17721  17.047   0.306  15.149 -0.1836 -0.2961  0.1643
 2253W        W17722  16.136  17.446  14.699 -0.1315  0.0962  0.0556
 2254W        W17723   8.131   3.110  12.949  0.1712 -0.1502  0.2645
 2255W        W17724   3.026  11.570   0.379 -0.1825 -0.1762  0.0807
 2256W        W17725   7.890  13.032   0.175  0.2808 -0.1065  0.1608
 2257W        W17726  13.485  10.893  16.024  0.0473 -0.0926  0.0385
 2258W        W17727   1.432  12.547   1.533  0.1925  0.2827 -0.0616
 2259W        W17728   9.976   4.989  12.793 -0.0957 -0.0710  0.1290
 2260W        W17729   5.038   4.145  11.273  0.1011 -0.0645  0.0162
 2261W        W17730   8.251  17.595   1.689  0.2057 -0.0540  0.1232
 2262W        W17731   5.171  11.163  11.110 -0.3039 -0.4363 -0.3624
 2263W        W17732   4.609   3.382   0.253 -0.0360 -0.1060  0.1928
 2264W        W17733   8.402   8.650  12.877  0.1190  0.0316 -0.2044
 2265W        W17734  17.627  12.849  10.711 -0.2590  0.1956  0.0311
 2266W        W17735   0.044   7.250   2.005 -0.0319 -0.1379 -0.1684
 2267W        W17736   2.306   2.976   2.779 -0.0370  0.1353 -0.0482
 2268W        W17737   5.857   7.700   1.409  0.0367  0.2595  0.0356
 2269W        W17738   1.972   6.252  11.560  0.0375 -0.0148 -0.2338
 2270W        W17739   9.196   0.067   4.028  0.1512 -0.2257  0.2341
 2271W        W17740  15.412   9.885   3.765  0.2242 -0.1059  0.0320
 2272W        W17741   1.900   7.184  10.830 -0.0795 -0.1832  0.0591
 2273W        W17742   6.129   4.472   4.268  0.3001 -0.0083  0.0676
 2274W        W17743  18.022  11.056   0.193 -0.0405  0.0774  0.0680
 2275W        W17744   1.323   1.098  14.002 -0.0904 -0.1638 -0.3094
 2276W        W17745  12.290  17.959  11.412  0.1020 -0.0008  0.0205
 2277W        W17746   5.664   9.116  13.780 -0.3200  0.2793 -0.3571
 2278W        W17747  11.943   0.891  15.062 -0.2835  0.1446 -0.0961
 2279W        W17748  14.224   8.411   5.702 -0.0736 -0.2491  0.0649
 2280W        W17749   0.086   8.737  11.185  0.0858  0.0489 -0.2350
 2281W        W17750   2.788   0.462  10.391 -0.3063 -0.0449 -0.3269
 2282W        W17751   1.298   7.726   3.604  0.0888  0.1754 -0.0438
 2283W        W17752   9.905  12.794   0.515 -0.0590 -0.1426  0.3390
 2284W        W17753   9.174  18.158   5.195 -0.5125 -0.1200 -0.1774
 2285W        W17754  11.450   4.000  14.977  0.1460 -0.1666  0.1251
 2286W        W17755   3.191   6.830   4.882  0.1105 -0.1572 -0.1804
 2287W        W17756  13.534   1.353  11.955 -0.0466  0.1622  0.1484
 2288W        W17757   7.033   4.296  14.153 -0.2831  0.0985 -0.0581
 2289W        W17758  10.750   3.779  14.223 -0.2292 -0.1101  0.1090
 2290W        W17759   0.582  10.702   3.471  0.3228  0.0352  0.1190
 2291W        W17760   7.705  16.993   1.069  0.0850 -0.0353 -0.2110
 2292W        W17761  12.638  15.904  13.508  0.1678 -0.1407 -0.0176
 2293W        W17762   6.585  16.653   3.504  0.1112  0.0991 -0.2018
 2294W        W17763  13.505  13.359   4.048 -0.0148 -0.1972 -0.0747
 2295W        W17764   0.737   3.079  14.732 -0.0163  0.0309 -0.3571
 2296W        W17765  15.329   2.083   3.962 -0.0538  0.1175 -0.0632
 2297W        W17766   2.350   7.842   0.586  0.0780  0.1246 -0.0213
 2298W        W17767   3.922   4.791  10.229 -0.1160 -0.1807  0.0476
 2299W        W17768  11.374   3.206   1.076  0.2195  0.0750  0.0522
 2300W        W17769  16.117  15.802   4.647 -0.0099  0.0800 -0.0308
 2301W        W17770   4.857   6.997   1.416  0.0861  0.2306 -0.0157
 2302W        W17771   1.480  16.155  12.801 -0.0528 -0.0447  0.0320
 2303W        W17772  11.991  15.535  13.357  0.2301  0.1467  0.0274
 2304W        W17773   6.081   5.052  12.963 -0.3025 -0.2466 -0.4108
 2305W        W17774   6.792  14.385   1.071 -0.1245 -0.0204 -0.3624
 2306W        W17775  15.557   7.087  11.165  0.0507 -0.4317  0.1141
 2307W        W17776   5.234  12.897   5.725  0.3101 -0.0096 -0.2430
 2308W        W17777   9.674   3.812   2.139 -0.2661 -0.1691  0.1589
 2309W        W17778  13.923  12.102  14.760 -0.0791 -0.1213  0.0154
 2310W        W17779  12.784  11.924  15.788 -0.3651 -0.0125  0.0421
 2311W        W17780  10.335   4.348  11.404  0.3299 -0.3572  0.4308
 2312W        W17781  18.346   1.155   1.152 -0.0505 -0.0806  0.0421
 2313W        W17782   7.921  15.380   4.163  0.1350 -0.1601  0.1258
 2314W        W17783   3.977   3.339  14.527 -0.2632  0.0913  0.2101
 2315W        W17784   1.351   2.094  12.918 -0.1876  0.1429 -0.0965
 2316W        W17785   9.085  16.827  10.158 -0.0578 -0.0928 -0.2598
 2317W        W17786  13.148   6.988   1.071  0.0187 -0.0022 -0.3011
 2318W        W17787   2.300   7.026  13.781  0.1158 -0.1342 -0.2812
 2319W        W17788   8.444  17.599  16.001  0.3052 -0.1154 -0.0145
 2320W        W17789   2.788   4.404  15.022 -0.2214  0.0083  0.0986
 2321W        W17790   0.480   4.284  14.194  0.0107  0.3619 -0.4009
 2322W        W17791  13.895   5.851   3.533  0.0009 -0.1797 -0.2017
 2323W        W17792   3.912   6.648  14.010  0.1521 -0.2913  0.0763
 2324W        W17793   5.434   5.588  10.603  0.4343 -0.1408  0.3683
 2325W        W17794   9.757  15.576   5.559 -0.2628  0.0704 -0.2604
 2326W        W17795  12.133   1.830  12.473  0.2651  0.0056 -0.0962
 2327W        W17796  10.352  13.292  13.887  0.0545  0.0889 -0.1549
 2328W        W17797  11.715   6.812  13.426 -0.2488 -0.0231  0.1602
 2329W        W17798  18.204  17.734   4.811  0.1924 -0.1992 -0.0483
 2330W        W17799   2.611   8.169   0.913 -0.1831  0.0495 -0.0129
 2331W        W17800  11.854  18.081   2.038  0.1357  0.0682 -0.1501
 2332W        W17801  13.961  13.573   4.883  0.1322 -0.0534  0.0651
 2333W        W17802   2.870   4.867   4.404  0.1361 -0.0295 -0.1984
 2334W        W17803   6.301   7.375   2.116 -0.3229  0.0964  0.0764
 2335W        W17804  11.212   6.917   0.971 -0.1211  0.0531 -0.1192
 2336W        W17805  11.287   5.623   3.544 -0.1681  0.1552 -0.1078
 2337W        W17806  13.412   1.528  11.503  0.2314  0.0502  0.1145
 2338W        W17807  17.946   8.918   0.203 -0.1225  0.0898 -0.0609
 2339W        W17808   7.690  11.908   5.593 -0.0010  0.0431 -0.0626
 2340W        W17809   1.747   0.026  15.737  0.0355 -0.2388  0.1650
 2341W        W17810  13.040   3.477   4.888  0.2733  0.0650 -0.2060
 2342W        W17811   5.349   2.663   1.751  0.0682  0.0639 -0.1055
 2343W        W17812   5.476   2.969   1.013 -0.1197 -0.0378 -0.2784
 2344W        W17813  14.693   9.608  14.022 -0.2840  0.1753  0.0522
 2345W        W17814   3.439   9.180   4.095  0.1103 -0.1041  0.3281
 2346W        W17815  12.847  11.677  12.811  0.1018  0.2272 -0.2529
 2347W        W17816  16.141  14.448  10.899  0.2387 -0.1376 -0.1375
 2348W        W17817   7.252   7.053   1.744  0.3076  0.1224 -0.0468
 2349W        W17818   7.501  17.208  15.701 -0.1336  0.0413 -0.1277
 2350W        W17819  16.233   0.239   1.128 -0.1109  0.3619 -0.0490
 2351W        W17820   4.607  10.846   0.183 -0.2614  0.3525  0.2271
 2352W        W17821   7.969  16.762   3.484 -0.0509 -0.0251  0.2677
 2353W        W17822  10.608   7.459   0.936 -0.1393  0.1452  0.4338
 2354W        W17823  14.500  17.113  10.821  0.1802  0.0360 -0.1130
 2355W        W17824  13.202   9.239  10.581  0.0022  0.2889 -0.2807
 2356W        W17825  10.860  18.218  11.698  0.3154 -0.4613  0.3499
 2357W        W17826   2.943   6.751   4.015 -0.0177 -0.0831 -0.2483
 2358W        W17827   2.991  13.804  11.289 -0.1418 -0.1138 -0.2601
 2359W        W17828  16.598   3.586   0.591  0.0999  0.4418 -0.2896
 2360W        W17829  13.746  13.660   0.379  0.0289 -0.1215 -0.1210
 2361W        W17830   5.965   7.691   2.395 -0.1409  0.1469  0.2557
 2362W        W17831  14.200   0.987   5.300 -0.0849  0.0883  0.1710
 2363W        W17832   5.534   3.428  12.702  0.2609  0.0896 -0.0739
 2364W        W17833  13.859   0.879   4.789 -0.1000  0.1208 -0.1326
 2365W        W17834  16.120   3.290   2.269 -0.0754 -0.3265  0.2628
 2366W        W17835   4.117   6.857  13.169 -0.3425  0.0106 -0.0005
 2367W        W17836   6.681   6.109   2.486 -0.4183 -0.1043  0.0048
 2368W        W17837   5.766  15.774  15.722  0.1154  0.0399  0.0737
 2369W        W17838  18.114   5.576  12.054  0.1746  0.1389  0.0415
 2370W        W17839   7.423  14.542   1.610  0.1434 -0.2909  0.2126
 2371W        W17840   3.982   7.883  15.499 -0.1180 -0.2137  0.1340
 2372W        W17841   1.925  12.598  14.953 -0.0886 -0.1268  0.0367
 2373W        W17842   0.660   5.346  12.983 -0.0479 -0.1323  0.0696
 2374W        W17843   3.785   6.252   5.236  0.0121 -0.1434  0.1421
 2375W        W17844   9.310   8.293   4.159 -0.1671 -0.4320 -0.0905
 2376W        W17845  17.259   2.105   3.432  0.2022 -0.0201  0.2063
 2377W        W17846  11.988  17.143  12.505  0.1622 -0.2755  0.1033
 2378W        W17847  10.568  15.369  13.478 -0.1844  0.0352 -0.1206
 2379W        W17848  16.637   5.636   2.490  0.0602  0.1816  0.2548
 2380W        W17849  17.041  17.516  15.263  0.0692  0.1003 -0.3185
 2381W        W17850   4.928  16.262  13.804  0.0115 -0.1462  0.0071
 2382W        W17851  17.837  12.620  10.237  0.2562 -0.1538  0.0495
 2383W        W17852  17.229   6.385  14.744  0.2506  0.0977 -0.3179
 2384W        W17853  10.194  12.834  13.423 -0.1424  0.0281  0.0133
 2385W        W17854   0.473   6.536  11.484 -0.1031 -0.0900 -0.0532
 2386W        W17855   6.689   3.401  13.204 -0.1041  0.0277 -0.0415
 2387W        W17856  13.610  16.161   1.194 -0.2687  0.1732 -0.0359
 2388W        W17857  13.334   6.231  15.369 -0.2911 -0.3557 -0.0443
 2389W        W17858  11.091  17.449  11.075  0.2411 -0.1999 -0.2654
 2390W        W17859  10.998   0.065  13.431  0.0242 -0.0670  0.0442
 2391W        W17860  18.048   8.489   2.359  0.3045  0.2169  0.1579
 2392W        W17861   4.219   9.271   1.875 -0.0820 -0.0066  0.0951
 2393W        W17862   6.603  15.532  12.601  0.1445  0.3679  0.0146
 2394W        W17863   5.876  15.332  14.142 -0.0826 -0.0364  0.0137
 2395W        W17864  16.091  15.679  10.548  0.2105 -0.0136 -0.1851
 2396W        W17865  13.299  12.036   2.752  0.0030  0.1425 -0.1135
 2397W        W17866  13.441   8.912  14.628 -0.1043 -0.2031  0.2914
 2398W        W17867   7.016   2.977   0.355  0.1271 -0.0886 -0.2632
 2399W        W17868  10.825  13.963  15.363 -0.0304  0.3067  0.5713
 2400W        W17869   4.771   4.500  13.362 -0.0798 -0.1235 -0.5183
 2401W        W17870   5.970   4.046   2.490  0.4190  0.2953  0.0933
 2402W        W17871  15.710   4.919  15.951  0.0231 -0.0814 -0.1144
 2403W        W17872  15.410  17.886  13.095 -0.1507 -0.0569  0.1632
 2404W        W17873   2.790   7.397  13.338  0.0952 -0.1582  0.3695
 2405W        W17874   8.235  15.267  12.234 -0.1096  0.3653  0.2750
 2406W        W17875   2.902  15.563  11.601 -0.0072 -0.3030 -0.2300
 2407W        W17876   8.767   3.062  12.963 -0.0840 -0.1302  0.0132
 2408W        W17877  11.184  13.185  12.515  0.0085 -0.1712 -0.0906
 2409W        W17878  15.821   8.826  14.716  0.1393 -0.2471  0.1164
 2410W        W17879  14.608   6.736   3.134  0.1273 -0.0029 -0.1580
 2411W        W17880  16.947  18.106   0.781  0.0902 -0.0197  0.1478
 2412W        W17881   7.137   4.705  13.856 -0.0328  0.4122  0.1972
 2413W        W17882  16.715   5.351  14.301 -0.0908  0.1887  0.3400
 2414W        W17883  12.087  10.132   0.474  0.1593 -0.1560 -0.1124
 2415W        W17884   0.695  10.280  15.559  0.2401 -0.1222 -0.3172
 2416W        W17885  15.786  16.056  10.789  0.1744 -0.1865  0.1136
 2417W        W17886   9.954  13.513  11.318  0.0861 -0.5433 -0.1243
 2418W        W17887  11.490   4.941   2.821 -0.4814  0.1041 -0.1342
 2419W        W17888  15.211  17.796   6.278  0.1952  0.4819  0.0956
 2420W        W17889   6.324   2.003  14.758  0.0077  0.2987 -0.1709
 2421W        W17890   2.728   0.100   0.294  0.2408 -0.1556  0.1942
 2422W        W17891  15.963  16.677  14.202 -0.0147 -0.3942  0.3097
 2423W        W17892  15.136   8.581  14.424  0.3084 -0.1197 -0.2532
 2424W        W17893  15.197  16.894  13.919 -0.1039 -0.2419  0.3617
 2425W        W17894   1.435  14.973  14.257  0.1942  0.0941 -0.4241
 2426W        W17895  13.055  17.118   4.294  0.0555 -0.3082  0.0586
 2427W        W17896  10.322   7.790  14.243  0.1432  0.0272  0.4851
 2428W        W17897  10.272   5.179  12.383  0.1194  0.3555 -0.0833
 2429W        W17898   8.436   7.449  13.992 -0.2362 -0.2798 -0.2207
 2430W        W17899   5.954   3.272   3.910  0.0121  0.5238 -0.2165
 2431W        W17900  11.279   7.939   2.146 -0.1330  0.0697  0.1210
 2432W        W17901   0.601   8.848  12.231  0.1039  0.2122  0.0538
 2433W        W17902   3.063  15.976   6.047 -0.0501 -0.0184  0.1827
 2434W        W17903   1.637   4.637   4.038 -0.0253  0.1219  0.1710
 2435W        W17904   3.897  10.446  13.177 -0.2973  0.0030 -0.0037
 2436W        W17905   6.282   7.776  12.801  0.0870 -0.1587 -0.0092
 2437W        W17906  12.340  17.782  13.442 -0.1058 -0.1557 -0.1696
 2438W        W17907   8.123  17.236   1.340  0.3240 -0.0122 -0.2172
 2439W        W17908   1.092  14.665  11.368  0.2259  0.1709  0.0671
 2440W        W17909  14.717   6.410   0.663  0.0336  0.3990  0.3554
 2441W        W17910  10.333   5.617   2.806  0.2847 -0.0033  0.0672
 2442W        W17911   6.734   6.808  14.575 -0.3265  0.0774 -0.6120
 2443W        W17912  15.313  17.381  14.405  0.0792  0.2668  0.0360
 2444W        W17913   7.661   0.747   1.788 -0.0424 -0.2227  0.0129
 2445W        W17914  14.002   1.788   4.861  0.3025 -0.2052 -0.0752
 2446W        W17915   7.619   9.311  11.436 -0.0807 -0.2653 -0.1621
 2447W        W17916  14.315   2.362  13.412  0.0075  0.0864  0.3569
 2448W        W17917   9.927  10.659  14.026 -0.1751  0.0518  0.2553
 2449W        W17918   3.227  17.318   4.060 -0.0231  0.2375 -0.1268
 2450W        W17919   2.280   4.856   1.725 -0.2962  0.2311 -0.1252
 2451W        W17920   3.631   2.190   1.919  0.3611 -0.1921  0.1390
 2452W        W17921   0.878  14.330  12.689 -0.0138 -0.3196  0.1070
 2453W        W17922   5.108  13.335  10.905  0.0235  0.1786  0.0001
 2454W        W17923  17.833   4.601  14.112  0.1272 -0.0375  0.1935
 2455W        W17924  12.612  13.249  15.837  0.1978 -0.0773  0.0768
 2456W        W17925  14.794  16.743   3.855 -0.0923  0.1022  0.0364
 2457W        W17926   4.573   8.257  13.292  0.2142 -0.0226 -0.1004
 2458W        W17927  16.125  15.501  12.962  0.1964  0.1615  0.1981
 2459W        W17928   5.888   7.834  13.607 -0.0419 -0.4893 -0.1721
 2460W        W17929  17.560  13.564   2.919 -0.2148  0.2459 -0.0100
 2461W        W17930   1.479   6.446   0.945  0.1999  0.3090  0.1219
 2462W        W17931  14.197  11.397  13.173 -0.1409 -0.1000 -0.0294
 2463W        W17932  10.138  12.930   4.314 -0.1661 -0.0115 -0.0512
 2464W        W17933   7.847  12.975  12.901  0.2101  0.0949  0.2382
 2465W        W17934   3.452  17.328  14.863  0.2292  0.2475  0.0789
 2466W        W17935   1.608  17.703  11.645 -0.0454 -0.2663  0.0429
 2467W        W17936   8.741   2.813  12.180  0.3028  0.1100  0.6022
 2468W        W17937  15.594   5.039   3.293 -0.0880  0.1960  0.1149
 2469W        W17938  12.798  15.212   3.740 -0.0069 -0.1784 -0.0552
 2470W        W17939  12.060  12.364   3.378 -0.0106 -0.3144  0.0347
 2471W        W17940   4.066  17.746   0.123 -0.0004 -0.1801  0.2510
 2472W        W17941  17.965   0.780   0.700 -0.1608 -0.1066  0.0024
 2473W        W17942   6.966  14.110  15.095  0.0239 -0.0871 -0.1709
 2474W        W17943  14.203   2.601   9.999  0.2386 -0.1268 -0.2666
 2475W        W17944  14.173   0.279   2.897 -0.1633  0.1595  0.6831
 2476W        W17945  15.297   9.998  11.134 -0.2431  0.2129  0.1170
 2477W        W17946  15.367   8.899  12.804  0.2492  0.3225  0.3579
 2478W        W17947  17.411   3.129   5.479  0.0540  0.0350  0.0151
 2479W        W17948   6.301  11.673  12.821  0.0369 -0.3834 -0.1263
 2480W        W17949   5.628   6.164   0.905  0.2537  0.0651  0.1450
 2481W        W17950  15.772   9.215  10.906 -0.2181 -0.0404 -0.0405
 2482W        W17951  13.930   8.793   0.220 -0.1865 -0.1302  0.2677
 2483W        W17952  11.869   2.347   4.130  0.1144  0.0023  0.0962
 2484W        W17953  17.573  10.924   2.765  0.0661  0.0496 -0.0412
 2485W        W17954   8.567  11.203  12.384 -0.0910  0.0888 -0.1712
 2486W        W17955   3.381   7.668  13.186  0.0282  0.3903 -0.0687
 2487W        W17956   1.190  16.443  10.911  0.1759 -0.1343  0.0149
 2488W        W17957  13.431   2.491   5.951 -0.0242  0.2532 -0.0336
 2489W        W17958  11.999   3.935   1.607  0.0878 -0.0885  0.0712
 2490W        W17959  15.794  17.705  13.341 -0.3270 -0.1784 -0.3123
 2491W        W17960  10.901  12.304  15.813 -0.1876 -0.0706 -0.2801
 2492W        W17961  14.780   1.875   6.198  0.0658 -0.2939 -0.1459
 2493W        W17962  15.740   8.091  11.564 -0.1379  0.3871 -0.2150
 2494W        W17963   9.090  18.272  11.033  0.2305 -0.2284  0.0369
 2495W        W17964   5.174  14.184   1.139  0.1784 -0.0245  0.0978
 2496W        W17965  15.444  15.203   2.031  0.2075  0.0589  0.0301
 2497W        W17966   6.515  10.074  15.354 -0.0005  0.0565 -0.1585
 2498W        W17967  13.162   9.654  12.582 -0.2156 -0.1455 -0.0965
 2499W        W17968  15.435  11.958  10.865 -0.0803  0.1646  0.1348
 2500W        W17969  11.461   1.107  15.709 -0.0508 -0.0756 -0.0811
 2501W        W17970   7.443  11.844   1.476  0.0634 -0.0804  0.3419
 2502W        W17971   3.259  11.022   4.508 -0.1125 -0.1277 -0.3454
 2503W        W17972  13.600   6.921  12.014 -0.0678  0.0930  0.2072
 2504W        W17973   5.174   6.914   5.550  0.1004 -0.1536  0.0253
 2505W        W17974   4.441  15.316   0.089  0.1175 -0.0202  0.1839
 2506W        W17975   9.956   1.038  12.643 -0.2232 -0.0799  0.2016
 2507W        W17976  15.806   9.726   5.532  0.0503  0.0458 -0.3158
 2508W        W17977   1.785  15.289   2.493 -0.1755  0.0883 -0.0740
 2509W        W17978   2.086  17.149  15.228  0.0958 -0.2037  0.0831
 2510W        W17979   5.243  11.999   2.867  0.0620  0.2280  0.0338
 2511W        W17980   7.666  17.705  15.484  0.0163  0.0911 -0.2585
 2512W        W17981   5.997   8.583   3.368  0.1845 -0.0707  0.2193
 2513W        W17982   3.010   9.306  15.295 -0.4028 -0.4723  0.0969
 2514W        W17983  17.982  11.570   0.101  0.1270 -0.3060 -0.2624
 2515W        W17984   7.670  13.575  12.925 -0.1700 -0.1767  0.0325
 2516W        W17985  13.728  13.469  15.944 -0.2681  0.0308  0.0212
 2517W        W17986  14.510   5.286  13.469 -0.2352 -0.0516 -0.0802
 2518W        W17987   5.778  14.808   1.833  0.1902  0.0464 -0.1697
 2519W        W17988  10.786  13.038   0.463  0.3578  0.2372 -0.0833
 2520W        W17989  17.139   9.498  11.156 -0.0509 -0.1817  0.2405
 2521W        W17990   6.038   4.222  13.915 -0.0127  0.4212 -0.0145
 2522W        W17991  11.597  10.082  15.784  0.0758  0.5244 -0.0157
 2523W        W17992  11.685   4.044   9.941  0.1500 -0.0136  0.1075
 2524W        W17993  17.085  17.978  14.310 -0.0771 -0.0530  0.0087
 2525W        W17994  12.069   1.356  11.217 -0.0157 -0.2049  0.1652
 2526W        W17995   4.145   8.311   2.496  0.0814  0.1858 -0.3079
 2527W        W17996   3.814  14.857  11.595  0.1860 -0.0692 -0.3108
 2528W        W17997  16.700  18.230  11.467  0.1135 -0.0772  0.0039
 2529W        W17998  11.925   1.314   0.567 -0.1360  0.0380  0.1168
 2530W        W17999   9.986   9.285  12.733  0.0375 -0.2127  0.0215
 2531W        W18000  18.234   9.718  15.708 -0.1740  0.1305 -0.2276
 2532W        W18001   1.438   9.375  12.724 -0.1528 -0.0457  0.0683
 2533W        W18002   0.652   7.948   1.952 -0.1912 -0.1792 -0.0534
 2534W        W18003  12.266   9.544   2.745  0.2153 -0.1453  0.0533
 2535W        W18004   4.522  11.374   0.978 -0.2184  0.1150 -0.0653
 2536W        W18005  10.172   3.514   1.137 -0.2091 -0.2552 -0.5112
 2537W        W18006   8.885   2.254  15.747 -0.0437 -0.1192  0.0865
 2538W        W18007  10.625   8.719   4.717 -0.1488  0.2583 -0.0068
 2539W        W18008  11.093   7.861  13.290 -0.0677 -0.0569  0.2019
 2540W        W18009   6.091   6.402  12.761 -0.3088 -0.0987  0.1618
 2541W        W18010   0.742  12.900   3.063  0.0482  0.1094 -0.0286
 2542W        W18011  15.626  13.524  10.919  0.3228 -0.0004  0.3732
 2543W        W18012   0.406   4.231   3.363  0.1151  0.0988  0.0273
 2544W        W18013   8.704  17.587   2.291  0.3714 -0.2921  0.0336
 2545W        W18014   9.263  11.713  12.929 -0.0095  0.2475  0.1007
 2546W        W18015  15.128   6.068  11.413  0.1342  0.3579  0.0760
 2547W        W18016  14.813   4.873  14.217  0.1937 -0.2207 -0.0957
 2548W        W18017  11.583  10.805  10.205  0.0667  0.0244 -0.0645
 2549W        W18018   6.962  13.566  11.331 -0.0556  0.0598  0.0323
 2550W        W18019   8.783   4.800  12.255 -0.4434 -0.2437  0.1363
 2551W        W18020  17.855  11.432  12.816  0.3176  0.1784 -0.0163
 2552W        W18021  14.870   7.540   1.071  0.3230  0.3756  0.3329
 2553W        W18022   5.748  14.085   2.528 -0.4747  0.1355 -0.0790
 2554W        W18023   4.164   6.513   4.089 -0.3065  0.1448  0.3022
 2555W        W18024   3.083  14.824   2.809 -0.1627  0.0432 -0.0736
 2556W        W18025   4.562   7.899   1.833 -0.2432  0.1863 -0.0858
 2557W        W18026   7.314  16.753  10.945 -0.1575 -0.2835 -0.2342
 2558W        W18027   4.339  16.147   4.677  0.0896  0.0417  0.2370
 2559W        W18028  15.357   9.830   0.123  0.0760 -0.3360 -0.2315
 2560W        W18029   1.112   6.904  15.454 -0.2705  0.2024 -0.1721
 2561W        W18030  11.937   9.842   4.313 -0.0142 -0.0139 -0.0593
 2562W        W18031   0.004  12.904   4.204  0.1176  0.0694  0.2338
 2563W        W18032  13.996   3.417   4.837 -0.0275  0.3396  0.0620
 2564W        W18033  13.126   6.615  12.061  0.1483  0.0476 -0.2060
 2565W        W18034  15.827  10.843   4.280 -0.2707  0.1195 -0.1558
 2566W        W18035   0.715   9.872  13.592  0.1203 -0.0346  0.1340
 2567W        W18036  18.334  12.632  10.863 -0.0077 -0.0605 -0.3959
 2568W        W18037   6.368  14.491  11.295  0.0712 -0.1017 -0.0189
 2569W        W18038  10.787  17.786   4.081 -0.1124 -0.3810  0.0529
 2570W        W18039   0.567   3.742  11.283  0.0262  0.0324 -0.0712
 2571W        W18040   5.446  13.425  13.466  0.1313  0.0589  0.1069
 2572W        W18041   2.169   0.914   1.239 -0.2418 -0.0121 -0.1609
 2573W        W18042   7.941   8.849   0.107  0.0813  0.2450  0.0707
 2574W        W18043  18.067  10.856   2.384  0.2151 -0.0542 -0.2160
 2575W        W18044   5.649  16.725   2.914  0.1590  0.0428 -0.0803
 2576W        W18045   3.501  15.901   5.184 -0.1807  0.0179 -0.1396
 2577W        W18046   4.540   4.225   2.052  0.1398  0.1195  0.0288
 2578W        W18047  15.556   4.859  14.755 -0.1493  0.0717  0.1325
 2579W        W18048  13.503  12.091   3.332  0.6644 -0.0042 -0.1180
 2580W        W18049   3.284   5.297  15.921 -0.0424 -0.0317  0.1790
 2581W        W18050   2.157   9.588   2.347  0.4003 -0.0589 -0.0105
 2582W        W18051  15.224   7.721  14.276 -0.2239 -0.3271  0.0484
 2583W        W18052  17.491  17.367  11.332 -0.0133  0.3289  0.0059
 2584W        W18053  12.686  17.586   2.549  0.2383 -0.0008 -0.1737
 2585W        W18054  13.673   6.188   1.696 -0.0750 -0.2612 -0.0072
 2586W        W18055  14.501  18.243   1.076 -0.0227  0.0189  0.1544
 2587W        W18056  11.903  16.385  13.566  0.0396  0.2479  0.0634
 2588W        W18057  16.463  14.917  12.165 -0.0215 -0.2138  0.1214
 2589W        W18058   9.036  10.722  11.806 -0.3666 -0.1788  0.1355
 2590W        W18059   6.174   9.137   2.661 -0.2094 -0.0630 -0.0522
 2591W        W18060  10.461  11.870   3.469 -0.3013 -0.0535 -0.1828
 2592W        W18061   5.304   7.255   2.116 -0.0101 -0.3994 -0.2156
 2593W        W18062   3.642   9.974   3.726  0.1592  0.0156  0.0334
 2594W        W18063  14.991   4.354  14.224 -0.0802  0.0424 -0.2031
 2595W        W18064   6.559   8.125   5.516  0.1701  0.2387  0.1771
 2596W        W18065  12.952  11.562  11.811  0.0950 -0.1346  0.1782
 2597W        W18066   8.621   5.751  10.839 -0.2420  0.2204  0.0220
 2598W        W18067   2.012   7.630   5.377 -0.0080 -0.2143  0.0896
 2599W        W18068   3.095   6.284   5.734 -0.0716  0.0323  0.2051
 2600W        W18069   1.722  17.647  15.107 -0.0284  0.2156 -0.4389
 2601W        W18070   1.115   9.606  13.460 -0.4508  0.1148  0.3607
 2602W        W18071  16.389   9.033   1.884 -0.0925 -0.1057  0.1336
 2603W        W18072  12.682   0.681   5.285  0.0689  0.0347 -0.0515
 2604W        W18073   8.736   8.936  10.444 -0.2805 -0.0181 -0.0330
 2605W        W18074  14.560   0.752  11.730 -0.0814  0.0220 -0.0059
 2606W        W18075  10.100  17.750   0.971  0.0376  0.2447 -0.0012
 2607W        W18076   4.551   4.028  12.621 -0.0858  0.0850 -0.0599
 2608W        W18077   6.701   8.573  14.980  0.0463 -0.1938  0.1280
 2609W        W18078  10.325   2.284  15.685 -0.1246 -0.2304 -0.2440
 2610W        W18079   0.773   9.076  11.719  0.0533 -0.4365  0.2823
 2611W        W18080   2.633  14.178  13.282  0.1154 -0.1347  0.1331
 2612W        W18081  16.352   8.723  11.559 -0.3255  0.2838  0.1529
 2613W        W18082  13.687  18.460   1.159  0.1381 -0.4521 -0.0516
 2614W        W18083   5.370   5.542  13.348  0.0921 -0.4422  0.0873
 2615W        W18084   7.098   7.512  13.533 -0.2242 -0.0209  0.1777
 2616W        W18085   9.784  12.508  15.612 -0.3681  0.0345 -0.4665
 2617W        W18086   0.837   8.015  14.366  0.0447  0.1199 -0.2597
 2618W        W18087   7.229   3.834   0.476 -0.0733 -0.1451 -0.1881
 2619W        W18088   1.478   5.122   2.970  0.1051 -0.3486  0.3126
 2620W        W18089   6.284  11.839  15.475 -0.3468  0.0744 -0.5608
 2621W        W18090   5.322  14.454  13.698 -0.1841  0.3011 -0.1430
 2622W        W18091  15.731   6.428  14.532  0.0113 -0.0852  0.2537
 2623W        W18092   7.731   4.218  12.318  0.3430 -0.4073 -0.1129
 2624W        W18093  10.310  14.070   1.861 -0.2392 -0.1017 -0.0523
 2625W        W18094  15.305  14.131  12.148 -0.0605  0.0647 -0.1351
 2626W        W18095  14.046   1.450  13.199  0.1649 -0.0530  0.2180
 2627W        W18096   2.194  12.888  12.327  0.0344 -0.2072 -0.1450
 2628W        W18097  16.104  17.797   1.441 -0.0605  0.3727  0.1119
 2629W        W18098  15.895  17.254   4.064  0.0436 -0.0490  0.0673
 2630W        W18099  17.436   1.435  12.052  0.1660 -0.3059  0.0940
 2631W        W18100  13.889   9.957  11.355  0.0773  0.1078 -0.0404
 2632W        W18101  11.284  11.400  14.417 -0.1744 -0.0343 -0.1935
 2633W        W18102   7.210   4.786   2.803 -0.0921 -0.0064 -0.1298
 2634W        W18103  13.405  17.004  12.270 -0.0928  0.2567 -0.0635
 2635W        W18104   2.618   0.132  11.677 -0.1220  0.0317 -0.0529
 2636W        W18105  12.832   5.490  13.807 -0.1411 -0.0589 -0.1756
 2637W        W18106  10.614   8.025  14.577 -0.3810  0.1773  0.3905
 2638W        W18107   8.073   1.614  11.215  0.0027 -0.2180  0.1432
 2639W        W18108   8.379   4.350  12.187  0.3176  0.2517  0.0455
 2640W        W18109  12.656   7.718   5.256  0.2695 -0.0844 -0.0296
 2641W        W18110   9.129   2.424  14.677  0.0311 -0.1644  0.1042
 2642W        W18111  14.146  13.641  14.634  0.1735  0.2873 -0.1203
 2643W        W18112  13.135  15.196   1.447 -0.1847  0.2309 -0.1437
 2644W        W18113   3.872   1.470   9.851 -0.3319 -0.2173 -0.1007
 2645W        W18114  14.062   6.135  13.722 -0.1165  0.1778 -0.0883
 2646W        W18115  11.077  12.714  14.191  0.2748  0.3230 -0.2092
 2647W        W18116   5.020   3.354   3.508  0.2661 -0.2531 -0.1653
 2648W        W18117   2.496   8.725   1.130 -0.2108 -0.0281 -0.2558
 2649W        W18118   3.695  16.844  13.642 -0.0047  0.0547 -0.1969
 2650W        W18119  17.659   9.373   0.209  0.0118 -0.1007  0.1325
 2651W        W18120  14.635   7.424  11.819 -0.2626  0.1117  0.1808
 2652W        W18121   7.037   3.701   4.915  0.3227 -0.2366 -0.0630
 2653W        W18122   3.409   3.749  15.061 -0.0966  0.1620  0.0859
 2654W        W18123   8.003   4.589  15.590  0.0366  0.3822  0.0927
 2655W        W18124   1.144  12.912  11.685  0.1065 -0.1382 -0.2178
 2656W        W18125  17.184  17.418   5.063  0.1424  0.1587 -0.2339
 2657W        W18126  15.862   2.745  12.597  0.1872  0.1127  0.1712
 2658W        W18127  16.752  11.860   5.130  0.1764  0.2118 -0.2381
 2659W        W18128   5.612  15.035   5.243  0.4480 -0.0401  0.2079
 2660W        W18129  14.731  10.304  11.859 -0.0743 -0.0429 -0.3475
 2661W        W18130   8.863   6.824   0.523  0.0688 -0.2330  0.0283
 2662W        W18131  10.880   4.706   3.038 -0.0248 -0.1931  0.0861
 2663W        W18132  15.723  13.752   3.628  0.2788 -0.3190 -0.1863
 2664W        W18133  14.500   0.038   1.872  0.0163  0.1347 -0.0435
 2665W        W18134   8.870  15.848   3.823  0.1275 -0.0319  0.1853
 2666W        W18135   7.358   8.805   4.165  0.0676  0.2268  0.1220
 2667W        W18136  14.975  11.507  12.375  0.3942  0.0917  0.2470
 2668W        W18137  15.389  12.831  12.928  0.2143  0.3034  0.1418
 2669W        W18138   2.231  13.063   4.014  0.0078 -0.1497  0.0875
 2670W        W18139  16.461  10.455   4.701  0.0600 -0.2023  0.2012
 2671W        W18140   5.314  16.383  14.068 -0.1123  0.1846 -0.0630
 2672W        W18141  16.406  17.033   5.417 -0.0743  0.2179  0.0082
 2673W        W18142  17.969  13.617   1.708 -0.3494  0.3133  0.0345
 2674W        W18143  17.320   1.680   2.702  0.1074  0.5126  0.2955
 2675W        W18144  10.904  12.025   4.527 -0.1034  0.1652 -0.0260
 2676W        W18145   5.513  15.967   3.354  0.0092 -0.0082 -0.0498
 2677W        W18146   1.475  16.646  15.908  0.2146  0.0194  0.0323
 2678W        W18147   8.274  13.803   4.913 -0.0313 -0.2853  0.4216
 2679W        W18148   3.314  13.892   3.153 -0.0477  0.0382 -0.3456
 2680W        W18149   4.728   6.579  15.589  0.2613 -0.0855  0.2032
 2681W        W18150   8.844  17.111  11.938  0.0565 -0.1078  0.0410
 2682W        W18151  11.040  16.149  10.186  0.1572  0.1436 -0.1101
 2683W        W18152  16.020   3.213  15.893  0.1499  0.2922  0.2725
 2684W        W18153   3.599   5.161   1.000 -0.0867 -0.1053  0.1699
 2685W        W18154   0.269   7.867  16.001  0.1390 -0.0867  0.3041
 2686W        W18155  12.323  10.137   4.835  0.1493 -0.2807 -0.2112
 2687W        W18156  16.872  16.280  11.028 -0.2057 -0.3165  0.2286
 2688W        W18157  12.046  15.387   2.114  0.2805  0.2062  0.1028
 2689W        W18158  12.973   0.345   4.288  0.0913 -0.3316  0.1670
 2690W        W18159   6.115  12.170  12.416  0.1239 -0.0029  0.0903
 2691W        W18160  11.670   9.372   5.823  0.0044 -0.0038  0.2651
 2692W        W18161   6.678   0.620  12.768  0.0118  0.1611  0.2371
 2693W        W18162   1.745   5.793  13.903 -0.1774  0.0777  0.2021
 2694W        W18163  14.437  12.415  15.408  0.1045  0.3951  0.1333
 2695W        W18164  16.698  13.078  11.040 -0.2210  0.2228 -0.4777
 2696W        W18165   3.841  16.080  12.394  0.2153 -0.0922 -0.2565
 2697W        W18166  17.491  17.575   1.756  0.4383 -0.0367  0.3960
 2698W        W18167  14.643   3.739  14.882  0.0493 -0.0204 -0.1563
 2699W        W18168   0.340  10.406   5.871  0.0001  0.1413 -0.0756
 2700W        W18169  12.004  14.267   0.790  0.0889  0.0849  0.0739
 2701W        W18170  14.918   1.297  11.137  0.1611  0.4095  0.1373
 2702W        W18171  16.318  17.982   4.068  0.2338  0.2800  0.0240
 2703W        W18172  15.017  16.002   1.742 -0.0644 -0.0970  0.1907
 2704W        W18173   1.131   1.728  13.746  0.2259 -0.2434 -0.1047
 2705W        W18174   3.308   5.270  15.437  0.1364 -0.3286  0.1220
 2706W        W18175   7.367  14.888   2.548 -0.3406 -0.2498  0.2610
 2707W        W18176  13.137  12.344  15.773  0.2557  0.2787  0.3025
 2708W        W18177  12.480  15.873  14.195  0.0301  0.2535  0.2187
 2709W        W18178  11.604   2.600  11.316 -0.1255  0.0203  0.1048
 2710W        W18179  10.161   0.627  13.635 -0.0071  0.0630 -0.1025
 2711W        W18180   2.183  13.304   5.186 -0.2204  0.2264 -0.1210
 2712W        W18181   8.815   0.641  15.546  0.0019  0.0668 -0.1064
 2713W        W18182  11.559   2.199   1.646 -0.0209 -0.1507  0.1372
 2714W        W18183   7.738   5.961  15.834  0.1862 -0.1665 -0.0314
 2715W        W18184  12.468   5.889  11.495  0.2735 -0.0660  0.0488
 2716W        W18185  16.343   1.583   0.997  0.1082 -0.4252 -0.0947
 2717W        W18186   4.253  12.890   3.826  0.0105 -0.1422  0.1888
 2718W        W18187  15.667  17.012  14.000 -0.1111 -0.0382 -0.1967
 2719W        W18188   3.889   2.868  15.385  0.2445  0.3211  0.0643
 2720W        W18189   7.433  14.339  11.333  0.2146 -0.1105  0.1585
 2721W        W18190   1.319   8.659  14.030 -0.0210  0.1829  0.2270
 2722W        W18191  15.748  15.864  14.821 -0.0608 -0.1217 -0.0374
 2723W        W18192   8.365   9.468   4.571 -0.1927 -0.0134  0.1235
 2724W        W18193  11.900   0.287   3.774  0.0650  0.1094 -0.0363
 2725W        W18194   3.777   8.827  13.936 -0.1364 -0.4453 -0.0754
 2726W        W18195  15.572  18.201  12.640  0.2959 -0.2386  0.0599
 2727W        W18196  15.832   4.166  15.514  0.1255 -0.1608 -0.0618
 2728W        W18197  11.792  15.093  10.981 -0.1190  0.1732  0.0404
 2729W        W18198   6.405   9.779   5.999  0.1633 -0.0599  0.1166
 2730W        W18199   9.574  18.295   2.756 -0.1400 -0.0547 -0.1939
 2731W        W18200   1.199  14.795   3.812 -0.0387 -0.0455 -0.0266
 2732W        W18201   8.460   3.389  13.259  0.1054  0.1521 -0.0061
 2733W        W18202  16.765   6.280   0.055 -0.0695  0.0721  0.0110
 2734W        W18203   6.776   0.130   3.000 -0.0550 -0.1131 -0.0658
 2735W        W18204  17.868  17.177  11.593 -0.0917 -0.1149 -0.0335
 2736W        W18205  10.977   9.711   2.826  0.0033 -0.0447 -0.3297
 2737W        W18206  18.207   0.458   2.169  0.5144 -0.1282 -0.1880
 2738W        W18207  17.851   6.548   3.103 -0.1679  0.1478  0.0045
 2739W        W18208  16.858  17.137   4.872 -0.1538  0.1941  0.0761
 2740W        W18209   0.796   6.790  13.205  0.0746  0.1991  0.0197
 2741W        W18210  17.280  18.382  15.510  0.0988 -0.2377  0.1868
 2742W        W18211   6.021  13.205   2.580 -0.0989  0.2394  0.1400
 2743W        W18212  13.154   3.651  13.470  0.0429  0.0425 -0.1400
 2744W        W18213  17.859   0.855   1.829 -0.2186 -0.1226 -0.1126
 2745W        W18214   0.674   1.692   4.351  0.2375  0.1421  0.0085
 2746W        W18215  15.472   0.511   4.225 -0.2454 -0.1603  0.1269
 2747W        W18216  11.657  10.358  13.707  0.0457 -0.2200 -0.1437
 2748W        W18217  14.471   3.022   4.668 -0.0580  0.2552  0.3038
 2749W        W18218   3.012   4.217   4.837 -0.0817  0.0537 -0.2241
 2750W        W18219   4.830  15.330  13.424 -0.2885  0.0194 -0.1011
 2751W        W18220   1.168   2.376   0.244 -0.0414  0.2990 -0.1002
 2752W        W18221   6.655   3.342  11.409 -0.0857 -0.2419 -0.0785
 2753W        W18222   7.947   0.962  14.212 -0.1038  0.0426 -0.0110
 2754W        W18223  14.459  15.382   1.805 -0.0335 -0.3718  0.2128
 2755W        W18224  11.168   4.837  10.206 -0.1750  0.1156  0.1704
 2756W        W18225   6.039   2.484  15.567 -0.0606  0.1008  0.4608
 2757W        W18226  13.606  14.399   0.160  0.0190 -0.2733  0.0248
 2758W        W18227   0.467  11.600   3.028 -0.0639 -0.0455 -0.0140
 2759W        W18228   0.358  14.461  14.091 -0.1793  0.0978 -0.2380
 2760W        W18229   0.327   3.461   4.756 -0.0619 -0.0310 -0.0408
 2761W        W18230   1.898  11.971  11.275 -0.0234  0.1378  0.2827
 2762W        W18231  11.750   3.915  14.006 -0.2665  0.0164  0.1718
 2763W        W18232   8.289   7.273   1.073 -0.1223  0.3348  0.0335
 2764W        W18233   7.904  16.656   0.728 -0.2208  0.1058  0.0386
 2765W        W18234  14.385   1.244  15.079  0.0685  0.2689 -0.0752
 2766W        W18235  10.524   9.049  13.759  0.1671  0.0113 -0.0360
 2767W        W18236   4.932  15.536  14.414  0.2448  0.1530  0.1152
 2768W        W18237   4.330   0.238  14.213 -0.1693  0.2980  0.1209
 2769W        W18238  15.694   7.087  15.301  0.2947 -0.2137  0.1104
 2770W        W18239  12.608   4.398  15.456 -0.4014 -0.2363  0.0439
 2771W        W18240   6.734  13.740  12.444  0.2610  0.0054  0.1791
 2772W        W18241   6.847  17.436   1.218 -0.0010  0.0963  0.0025
 2773W        W18242  13.761   7.539  15.554 -0.1778 -0.1456  0.1233
 2774W        W18243   8.050   5.894   1.170  0.0456  0.1733  0.0181
 2775W        W18244   9.891  13.029  10.505  0.0899  0.0276 -0.0951
 2776W        W18245   4.468  12.722  15.277 -0.1447  0.0775  0.0472
 2777W        W18246  16.741  15.826   4.841  0.0535 -0.0976  0.0887
 2778W        W18247  15.924  13.824   0.296 -0.1973  0.4800  0.1203
 2779W        W18248  16.157  17.171   5.879  0.0449 -0.1147 -0.0387
 2780W        W18249   1.638  10.884  12.306  0.0638 -0.0100  0.1886
 2781W        W18250   0.384   6.425  13.224  0.0714  0.1044 -0.2072
 2782W        W18251   7.359   6.725   4.012  0.2416  0.0896 -0.0449
 2783W        W18252   4.307   2.366   4.338  0.0563 -0.0702 -0.2478
 2784W        W18253   4.462   9.614   5.472 -0.0567 -0.1007  0.2883
 2785W        W18254  15.047  13.034   5.273  0.1763  0.3031 -0.0667
 2786W        W18255   7.353   4.835   4.499 -0.0749 -0.1782 -0.1191
 2787W        W18256  18.299   9.265   3.786 -0.0117  0.3839 -0.2212
 2788W        W18257  14.014   0.089   3.324  0.1075  0.4669 -0.0355
 2789W        W18258  13.491   4.541   3.218  0.5526 -0.0790  0.0392
 2790W        W18259  10.825  12.753   3.203 -0.3385 -0.2453 -0.1284
 2791W        W18260  13.897  11.901   5.057 -0.0936  0.0912 -0.0323
 2792W        W18261   0.914  10.841   4.170  0.2243 -0.0636 -0.2246
 2793W        W18262  10.074  17.408  15.083  0.2391 -0.1092  0.0838
 2794W        W18263  11.630  16.830   2.883  0.2791  0.1462 -0.0991
 2795W        W18264   0.017  15.684   1.778  0.3952  0.4482  0.1269
 2796W        W18265   2.198   1.331  11.741  0.0219 -0.2277 -0.0545
 2797W        W18266   2.269   4.352  15.631 -0.0514 -0.3201 -0.0457
 2798W        W18267   0.542   0.554   5.254  0.2719 -0.2386 -0.1224
 2799W        W18268  17.300  13.440  14.123 -0.0132  0.0380 -0.1044
 2800W        W18269   1.594   3.893  11.422  0.1238 -0.4570  0.1616
 2801W        W18270   6.988   9.414  12.635  0.2815  0.0396 -0.0250
 2802W        W18271   5.121  18.449  14.276 -0.0183  0.1547  0.1965
 2803W        W18272   0.514  10.906  11.172 -0.0202 -0.1895  0.0686
 2804W        W18273   5.670   9.929  13.265  0.1547 -0.0475  0.0884
 2805W        W18274   9.086   3.707   5.572  0.2099  0.2128 -0.0286
 2806W        W18275  12.494  13.238  11.211 -0.1853  0.3056  0.1550
 2807W        W18276   2.802  12.562   5.878 -0.0164  0.1431  0.0577
 2808W        W18277   2.479   9.441  11.374 -0.1176  0.0429  0.1069
 2809W        W18278   7.359   7.540   2.513 -0.0114  0.0138  0.4130
 2810W        W18279  16.706  12.581  10.875  0.0952  0.3169  0.2152
 2811W        W18280   4.629   6.525   0.671 -0.4319 -0.2518  0.1257
 2812W        W18281   4.819   7.406   1.871 -0.0515  0.2668 -0.1240
 2813W        W18282   4.338   7.422  15.757  0.2711  0.0379  0.0549
 2814W        W18283   4.508  14.298   5.173  0.0959  0.0951 -0.1639
 2815W        W18284   0.216  12.354  13.917  0.0924 -0.0181  0.1283
 2816W        W18285  17.108  12.797   2.221 -0.1857 -0.1286  0.2152
 2817W        W18286  12.553   0.704   3.110 -0.3871  0.2637 -0.1044
 2818W        W18287  16.474   3.388   5.878 -0.0413  0.0019 -0.1836
 2819W        W18288   0.942  17.980  13.130 -0.1615 -0.2105  0.1285
 2820W        W18289  11.166   0.868  12.532  0.1104  0.4357  0.0992
 2821W        W18290  17.949  10.379  13.982 -0.1870 -0.0574  0.1176
 2822W        W18291  13.806  17.403  15.260 -0.2362 -0.3011  0.1009
 2823W        W18292  11.493  18.370   1.934  0.0502 -0.2018 -0.4665
 2824W        W18293   5.864   8.142   2.119  0.0453  0.1654 -0.0424
 2825W        W18294   6.005   9.057   2.175 -0.0580 -0.0283  0.2509
 2826W        W18295   4.614  17.391   2.794 -0.0499  0.1949  0.5095
 2827W        W18296  16.770  17.560  13.388 -0.0162  0.1377  0.0583
 2828W        W18297   9.118   4.305   3.716  0.2496 -0.5688 -0.0814
 2829W        W18298   2.791  13.337  11.506 -0.0626 -0.2651  0.0607
 2830W        W18299   7.870   0.535   3.907  0.0745 -0.3164  0.0442
 2831W        W18300   4.318   3.584  15.909  0.0415  0.0965 -0.1340
 2832W        W18301  15.325  15.934   0.247  0.1186 -0.1075 -0.2876
 2833W        W18302   6.160  11.722  11.428  0.2245 -0.0613 -0.0122
 2834W        W18303   8.412  13.614   1.552  0.0142  0.0315 -0.4613
 2835W        W18304   2.533  10.816   3.920 -0.1388  0.2990  0.2175
 2836W        W18305   1.788   9.730   4.188 -0.2268 -0.1080 -0.1162
 2837W        W18306   6.210  11.934   2.899 -0.0592 -0.2772  0.1096
 2838W        W18307  11.514   9.703   2.718  0.2698  0.4666 -0.1032
 2839W        W18308  10.908   9.161   3.775  0.1124  0.3486 -0.2848
 2840W        W18309   2.758  11.852   4.456  0.4311  0.3424 -0.3081
 2841W        W18310  16.795  18.350  15.130  0.3406  0.0571 -0.0701
 2842W        W18311   7.238   2.161  11.938 -0.1492  0.1393  0.1701
 2843W        W18312  10.357  11.704  15.577 -0.0958 -0.1260 -0.3691
 2844W        W18313   1.161   6.132   4.077  0.4030  0.0150  0.3261
 2845W        W18314  12.679  13.135   3.720 -0.3801  0.1281 -0.0126
 2846W        W18315  15.368   5.478   4.240 -0.1596 -0.5326 -0.1528
 2847W        W18316   3.473   7.729  14.447 -0.0411  0.2325 -0.2769
 2848W        W18317   8.526   0.319  14.554  0.4459  0.0034 -0.3605
 2849W        W18318  15.085  15.539  10.498 -0.3229  0.1228 -0.0698
 2850W        W18319   3.044   3.012  10.575  0.0271 -0.3538 -0.1409
 2851W        W18320   5.782   1.428   5.539 -0.0599 -0.0857 -0.0531
 2852W        W18321  16.723  10.272  12.676 -0.2500  0.3032  0.1844
 2853W        W18322   4.479  11.968  11.959  0.3812  0.1216 -0.1842
 2854W        W18323  12.429   3.618   2.570 -0.1505  0.2558 -0.1975
 2855W        W18324   3.620  15.922   4.675  0.2457  0.1499  0.0641
 2856W        W18325  16.845  11.500   3.952 -0.0456  0.1654  0.0398
 2857W        W18326   5.447  10.701  11.871  0.0703  0.0390  0.0866
 2858W        W18327   9.592   2.329  14.522 -0.0475 -0.1132 -0.0334
 2859W        W18328   0.608  13.077   3.513 -0.0084 -0.3813 -0.2781
 2860W        W18329   0.897   0.724  13.048  0.0812 -0.3011  0.4038
 2861W        W18330   9.971  17.461   3.721 -0.1198 -0.0049 -0.2222
 2862W        W18331   8.556  15.192   2.217 -0.2258 -0.1405 -0.0498
 2863W        W18332   5.321  15.597   3.703  0.0482  0.1856 -0.2789
 2864W        W18333   9.528   9.416   0.182 -0.1423 -0.2788  0.0859
 2865W        W18334  12.517   3.453   0.569 -0.1793 -0.1808 -0.2999
 2866W        W18335   4.681   1.821   2.310  0.1942  0.0007 -0.0251
 2867W        W18336   4.842  11.774  13.507  0.0357  0.3105 -0.0341
 2868W        W18337   7.215   0.084  13.794 -0.3387 -0.2381 -0.2018
 2869W        W18338  11.914   6.948   5.406 -0.1166  0.0983 -0.1708
 2870W        W18339   8.564  10.286   1.905 -0.1369 -0.0983  0.1113
 2871W        W18340   2.611  10.426  15.475  0.1755  0.0976  0.0464
 2872W        W18341  12.288  10.118  11.227 -0.0640 -0.1376  0.3945
 2873W        W18342  13.308  11.291  13.418  0.3263 -0.1766  0.2239
 2874W        W18343   0.531  14.300   0.828  0.0737 -0.0967 -0.2038
 2875W        W18344   0.681  12.750  12.796 -0.1113 -0.2641 -0.5402
 2876W        W18345   9.071  14.438   2.681  0.1353  0.2485 -0.0479
 2877W        W18346  11.703  15.106  12.095  0.4546 -0.0329 -0.1574
 2878W        W18347   7.919  17.763  12.555 -0.0902  0.2888  0.2805
 2879W        W18348   7.735  16.825   1.635  0.1128 -0.0713 -0.2571
 2880W        W18349  13.255   4.980   2.878  0.2722  0.0982  0.0580
 2881W        W18350   7.558   7.663  13.429 -0.0322  0.3748 -0.0070
 2882W        W18351   2.578   9.026   4.152 -0.2504  0.0010 -0.2364
 2883W        W18352   6.824   8.265  11.082  0.5543  0.0792  0.2001
 2884W        W18353  12.187   3.238  13.377  0.1777 -0.0631 -0.1730
 2885W        W18354  17.624   4.104  13.979  0.1807  0.2552 -0.2249
 2886W        W18355   1.081  15.400  12.137  0.1930  0.1812 -0.1996
 2887W        W18356  10.991   2.812   5.776 -0.2114  0.1972  0.1069
 2888W        W18357  17.869  10.613  13.239 -0.0427  0.0086  0.0363
 2889W        W18358   4.856   8.924  13.134  0.0294 -0.0728  0.0287
 2890W        W18359  17.900   9.010  14.877 -0.2190  0.0158  0.4538
 2891W        W18360   3.850   6.650   5.695  0.0380 -0.2737 -0.2648
 2892W        W18361  17.035  13.586   4.512  0.0916 -0.2004 -0.2377
 2893W        W18362  17.904   2.698   3.457  0.0269  0.0405  0.2004
 2894W        W18363   2.418   3.703   3.236  0.0947 -0.5648  0.3727
 2895W        W18364   2.793  13.709  12.482 -0.0578 -0.1065 -0.3121
 2896W        W18365  17.590  17.004   5.399 -0.2400 -0.0722  0.1626
 2897W        W18366  11.152   4.857   4.885  0.1470 -0.2814  0.1681
 2898W        W18367   2.160   0.948  14.090 -0.2444  0.3239  0.0104
 2899W        W18368  13.950  13.212   0.469  0.0488  0.1261 -0.0455
 2900W        W18369   6.253   5.615   1.318 -0.0890 -0.1748  0.0172
 2901W        W18370   1.327   0.684   0.376  0.2062 -0.0535 -0.1616
 2902W        W18371  14.704   5.264   5.325  0.0564 -0.0070 -0.0004
 2903W        W18372  18.273  10.046   4.037  0.0085  0.0087  0.0765
 2904W        W18373  10.121   7.451   1.581  0.1201 -0.2757 -0.1799
 2905W        W18374  11.837   4.350  14.232 -0.0935  0.1675 -0.1145
 2906W        W18375  15.566   1.956   0.363 -0.1984  0.2417  0.1641
 2907W        W18376  17.045   2.485  14.380 -0.1324 -0.1376 -0.1625
 2908W        W18377   8.054  10.396   1.708  0.2671 -0.0685  0.1554
 2909W        W18378  11.329  13.245  13.052 -0.1847  0.1109  0.2001
 2910W        W18379   6.286   1.121   2.113  0.3142 -0.2312 -0.1100
 2911W        W18380   5.976   0.016  11.200 -0.0798 -0.0211 -0.1477
 2912W        W18381   8.174  10.135   2.418  0.1164 -0.0306  0.2397
 2913W        W18382  10.866  11.940   3.886  0.2842 -0.0471 -0.0988
 2914W        W18383   9.898  15.402   1.549 -0.0813  0.0013  0.2064
 2915W        W18384  12.924   4.735   1.222 -0.1669 -0.1896  0.0302
 2916W        W18385   4.714  17.165   4.501 -0.1932 -0.0477 -0.1994
 2917W        W18386  10.631   6.433   0.858  0.2348 -0.0564  0.1070
 2918W        W18387  15.738   6.150  13.596  0.3050  0.4167 -0.2758
 2919W        W18388  18.173   7.293   5.645  0.2494  0.0398 -0.0183
 2920W        W18389   4.671  16.645  14.893 -0.2845 -0.0836  0.1249
 2921W        W18390   6.031   2.915   3.528 -0.2913  0.2499  0.2511
 2922W        W18391   3.717  17.435   5.322 -0.1134  0.0769  0.0862
 2923W        W18392   5.419   1.266   1.704 -0.1020  0.2212  0.0073
 2924W        W18393  11.800   3.987   0.567 -0.2041 -0.0066 -0.4222
 2925W        W18394   7.172   5.525  11.910 -0.0311  0.0982  0.1497
 2926W        W18395  11.790   1.886  12.095  0.1662  0.2857  0.0673
 2927W        W18396   3.962   4.672   2.822 -0.2045  0.0777  0.0282
 2928W        W18397   1.912  14.125   3.321  0.3135 -0.1679  0.0142
 2929W        W18398  13.366   7.888   3.217 -0.2492 -0.2485  0.0093
 2930W        W18399  18.035   9.599  12.900  0.3803  0.1307 -0.2931
 2931W        W18400   3.091   5.837   1.990  0.0889 -0.0487 -0.3486
 2932W        W18401   5.779   0.098   0.101 -0.2219 -0.0778 -0.5171
 2933W        W18402  15.715   6.128   4.689 -0.0705 -0.2452  0.2065
 2934W        W18403   8.292   0.140   2.040  0.1224  0.0169 -0.5189
 2935W        W18404   9.122  14.328   9.527  0.3435  0.0872 -0.1391
 2936W        W18405   0.947  11.826   3.237 -0.0630  0.0574 -0.2329
 2937W        W18406  12.242   3.256  15.765  0.3738 -0.0634 -0.1818
 2938W        W18407  11.025   5.551   3.125  0.1541  0.0262  0.1262
 2939W        W18408  10.801   3.653  15.138 -0.0674  0.2541  0.1246
 2940W        W18409  18.394   8.204  11.255  0.2010 -0.1055  0.0970
 2941W        W18410   2.832  10.691   0.412 -0.0167  0.1586  0.0821
 2942W        W18411  11.766  15.406  11.684  0.0876  0.1022  0.0461
 2943W        W18412   5.235  11.255   2.210  0.2842 -0.2656 -0.1192
 2944W        W18413   1.615  13.434   0.461  0.0976  0.0404  0.2902
 2945W        W18414  13.623   7.793   5.306  0.1835  0.0459  0.2444
 2946W        W18415  18.422   7.350  11.801  0.0584  0.0003  0.0800
 2947W        W18416   0.817  10.144   5.569  0.0013 -0.2866 -0.3799
 2948W        W18417  15.190  13.866  14.838  0.2401 -0.2918 -0.0969
 2949W        W18418   1.780   5.141  14.281 -0.1958 -0.1769 -0.1589
 2950W        W18419  12.765  14.134  14.374  0.1191  0.1117 -0.2380
 2951W        W18420   4.313   3.616  11.824  0.3145  0.1022  0.0079
 2952W        W18421   4.696   4.833   3.490  0.0663 -0.1149 -0.1012
 2953W        W18422  11.839   8.292   1.831 -0.0128 -0.1015 -0.0171
 2954W        W18423   6.479   5.137  11.198 -0.1232  0.2837  0.3275
 2955W        W18424   9.765   1.057  14.697 -0.5939 -0.0655  0.1641
 2956W        W18425   9.031   6.279  11.699 -0.0343 -0.0031  0.2301
 2957W        W18426  15.706   3.161   1.354  0.0900  0.1681  0.1754
 2958W        W18427  11.357   1.938  11.530 -0.1711 -0.2036 -0.0324
 2959W        W18428   4.948  17.625  11.026 -0.1681 -0.1796 -0.1091
 2960W        W18429  10.403   4.161  14.053  0.1331 -0.1038  0.1371
 2961W        W18430  13.586   6.048  15.806 -0.1183 -0.1370  0.0734
 2962W        W18431  17.525   9.758  12.548 -0.1030 -0.0524 -0.0901
 2963W        W18432  16.648  11.711  13.255 -0.2091 -0.0778 -0.2172
 2964W        W18433   5.308  10.600  14.960  0.1621  0.3504  0.1751
 2965W        W18434   5.583  13.120   4.875 -0.0386 -0.5241 -0.0076
 2966W        W18435   8.032  15.227   2.175 -0.3027 -0.1306  0.1758
 2967W        W18436  14.462   9.089  15.129 -0.0465 -0.1845 -0.0195
 2968W        W18437   5.356  10.982   1.732  0.1217 -0.1339  0.3398
 2969W        W18438  14.816   1.835   4.129  0.4064  0.2243 -0.0381
 2970W        W18439  17.544   2.240   2.230  0.0630  0.1132  0.3393
 2971W        W18440  15.263   1.516   2.368 -0.0082  0.1904  0.0372
 2972W        W18441   9.751   5.523   5.811 -0.1471  0.0114 -0.3710
 2973W        W18442  16.437   4.380   2.862 -0.2005 -0.1562  0.2946
 2974W        W18443   6.360  15.028  13.570 -0.0281 -0.1321 -0.0395
 2975W        W18444  11.835  12.800   1.114 -0.0392  0.1399 -0.3197
 2976W        W18445   9.697   1.586  13.497 -0.0658  0.1478 -0.1600
 2977W        W18446  16.641  13.252   5.353 -0.0502  0.0950 -0.1096
 2978W        W18447   3.717   4.185  14.890 -0.0025  0.1641  0.0495
 2979W        W18448   3.849  10.705  14.017 -0.0414 -0.0648  0.0994
 2980W        W18449  17.885  16.132   1.404  0.0215 -0.2185 -0.1078
 2981W        W18450   1.459   1.826  13.324  0.1482  0.4129 -0.1201
 2982W        W18451   8.842  15.004   1.530 -0.0078 -0.0368 -0.1691
 2983W        W18452  16.938  12.386   2.020  0.1726 -0.0166 -0.0725
 2984W        W18453   8.132  17.656   0.454  0.0978  0.0757 -0.2113
 2985W        W18454   1.060   7.155   2.266  0.1954  0.1555 -0.0850
 2986W        W18455  12.337   6.369  13.825  0.0663  0.0259 -0.0849
 2987W        W18456  13.138   6.624   1.466 -0.1879 -0.4269 -0.0990
 2988W        W18457  11.213   1.539  14.758 -0.0054 -0.1252 -0.0844
 2989W        W18458   6.712   0.390   4.264  0.0363  0.2450  0.1205
 2990W        W18459  17.718   1.904   0.469 -0.2100  0.0363  0.3016
 2991W        W18460   8.947  14.169   4.269 -0.0878  0.2311 -0.0729
 2992W        W18461  11.120  16.214  12.027 -0.0196 -0.1775 -0.0749
 2993W        W18462  10.587  14.500   1.739  0.1818 -0.2054  0.1093
 2994W        W18463   7.932  11.342  13.225  0.0168 -0.0199 -0.0723
 2995W        W18464   8.168   2.332  11.135  0.0617 -0.2864  0.1635
 2996W        W18465  15.599  11.131  11.965  0.0652  0.1020 -0.0651
 2997W        W18466   1.020  10.733  11.099  0.0346  0.0225 -0.1855
 2998W        W18467  14.775   6.329  12.152 -0.1296 -0.0643 -0.0820
 2999W        W18468  15.571   2.508  12.907  0.0203  0.1771 -0.0648
 3000W        W18469   9.927  18.064   4.495 -0.0791 -0.0207  0.0168
 3001W        W18470  16.902  12.762   3.086  0.1141  0.3415  0.1270
 3002W        W18471   0.099  10.986  14.570  0.0243  0.1811 -0.1902
 3003W        W18472   5.409   7.836  13.868  0.0375 -0.1621  0.0212
 3004W        W18473   0.759   9.841   3.716  0.0546  0.1105 -0.0204
 3005W        W18474  10.787  13.116   1.714 -0.2104  0.0555  0.0601
 3006W        W18475   5.820  15.943   5.457 -0.1982 -0.1669 -0.1542
 3007W        W18476   5.058   2.523  13.207 -0.2201  0.1151 -0.0937
 3008W        W18477  14.792  11.902  12.678  0.1773  0.0567 -0.2387
 3009W        W18478  13.093   9.709  15.143 -0.3889  0.4403  0.2708
 3010W        W18479   9.149   3.489  14.897  0.1351  0.0150  0.1225
 3011W        W18480   5.377   8.590  14.605 -0.0362 -0.0741 -0.0611
 3012W        W18481  12.935  11.817  12.356  0.3364  0.1694  0.0446
 3013W        W18482  15.057   8.562   2.984  0.0887 -0.1532  0.1517
 3014W        W18483   5.954  13.590  14.782  0.0753 -0.2498 -0.0525
 3015W        W18484  16.545   2.449   4.662 -0.1465  0.4574  0.3493
 3016W        W18485  16.246  15.945  11.948  0.1050  0.0376 -0.5983
 3017W        W18486   7.298  10.360  11.654 -0.0552 -0.0980 -0.1635
 3018W        W18487   9.069  13.595  11.125  0.2746  0.0040  0.4755
 3019W        W18488  15.769  16.519  15.496  0.1028 -0.2987 -0.1239
 3020W        W18489   4.087  17.719   3.165  0.1082  0.0233 -0.0006
 3021W        W18490   2.785   9.113   5.145  0.0897  0.0534  0.3432
 3022W        W18491   3.765   5.125  15.221  0.0954 -0.0482 -0.0786
 3023W        W18492   0.434  10.632   4.614 -0.3001  0.0146  0.1763
 3024W        W18493   0.812   9.066   0.195  0.0065 -0.0770 -0.0781
 3025W        W18494  16.401   2.994  11.774  0.0687 -0.1082  0.2650
 3026W        W18495   0.324   8.192  12.832  0.0249 -0.0747  0.0052
 3027W        W18496  10.770   0.824  15.164  0.0984 -0.1826 -0.2011
 3028W        W18497  18.142   3.382  14.671  0.0558 -0.2468  0.3293
 3029W        W18498   0.619   0.031  10.270  0.1427  0.0720  0.2212
 3030W        W18499   8.659  14.034  14.761 -0.1778  0.0296 -0.1049
 3031W        W18500   0.954   7.216  13.490  0.1009  0.0136 -0.3014
 3032W        W18501  13.234  13.667  15.579 -0.1345 -0.1014 -0.1161
 3033W        W18502   6.637  15.815   3.130 -0.0457  0.0770 -0.1488
 3034W        W18503   0.175  10.913   0.603  0.0030 -0.2391  0.0667
 3035W        W18504   8.280   0.022   4.117  0.2435  0.0740  0.0559
 3036W        W18505   2.652  12.104   4.882  0.0447 -0.1477 -0.0313
 3037W        W18506  18.123   7.932   0.029 -0.0698  0.0955 -0.1143
 3038W        W18507   8.340   9.859   1.968 -0.0630  0.0513  0.0601
 3039W        W18508   4.751  14.904  15.269  0.2251 -0.0257 -0.3009
 3040W        W18509   9.084  14.837   0.010 -0.3301  0.0385  0.3887
 3041W        W18510   6.877   0.164  10.927  0.1119 -0.1964 -0.2142
 3042W        W18511   3.972  13.444  15.994 -0.0126 -0.1854  0.1343
 3043W        W18512   4.758  13.850  15.986  0.0605  0.1207 -0.0777
 3044W        W18513   0.275   6.684   3.185 -0.0701  0.2880 -0.2372
 3045W        W18514  18.065   2.045  13.764  0.1401 -0.0042  0.3883
 3046W        W18515   5.059  10.197  12.787 -0.0804  0.0187 -0.4734
 3047W        W18516  17.728  10.698  12.320 -0.0245  0.1352 -0.0306
 3048W        W18517   9.494   3.381   4.323 -0.0031 -0.3761  0.1096
 3049W        W18518  12.654   7.272   5.003  0.0221 -0.0688 -0.0825
 3050W        W18519  14.015   3.159   2.218 -0.2906  0.1320 -0.2381
 3051W        W18520  17.157  15.503  11.466  0.0725  0.0541  0.0934
 3052W        W18521   4.111  14.163  10.714 -0.0894 -0.0306 -0.1959
 3053W        W18522  14.685   3.900   0.503 -0.0968  0.2220  0.2248
 3054W        W18523  14.598  11.348   1.819  0.0132 -0.1182 -0.0406
 3055W        W18524  10.884   2.008  15.626 -0.1261 -0.2979 -0.0073
 3056W        W18525   8.214  11.872   1.521 -0.1155 -0.1815 -0.3665
 3057W        W18526  13.503   6.571   3.002 -0.0630 -0.3314  0.0138
 3058W        W18527  16.131   5.858  13.786  0.2205  0.3177  0.0539
 3059W        W18528  15.208   4.333  13.161  0.1393 -0.0091  0.1505
 3060W        W18529  18.322   6.604   2.940  0.0100  0.0464  0.1777
 3061W        W18530  15.300  15.979   0.847 -0.1028  0.2199 -0.0559
 3062W        W18531  14.732   0.482   0.007 -0.2151 -0.0574  0.0971
 3063W        W18532   7.280  15.348  16.022 -0.2939  0.0855 -0.2486
 3064W        W18533  13.150   0.228  15.206  0.0565  0.1410  0.0914
 3065W        W18534  11.021  18.413  12.169 -0.0101 -0.0434 -0.1590
 3066W        W18535  15.707  13.228  12.212  0.2705  0.0844  0.0249
 3067W        W18536   6.487   4.984   3.202  0.0273  0.0573 -0.0359
 3068W        W18537  17.733   4.532  13.057  0.0617  0.0699  0.0428
 3069W        W18538  16.809   0.243   4.612  0.3954  0.3078 -0.0089
 3070W        W18539   2.254  15.016  14.195 -0.1677 -0.3145 -0.3876
 3071W        W18540  17.342   8.345  11.236  0.1131  0.0505  0.0911
 3072W        W18541   2.895  10.440  13.898  0.1360 -0.1694 -0.0084
 3073W        W18542   0.437  13.913   2.129  0.2096 -0.1224 -0.1405
 3074W        W18543   4.349  10.084   5.323 -0.0776  0.3312 -0.0955
 3075W        W18544   9.043   8.322  15.585 -0.1969 -0.0197  0.2792
 3076W        W18545  18.278  12.511  14.817  0.1762 -0.1387  0.0688
 3077W        W18546   4.254  17.942  12.442 -0.3005 -0.0408 -0.0345
 3078W        W18547  13.840   2.716   5.307  0.0519  0.2419  0.1075
 3079W        W18548  14.784   8.647  15.162 -0.2714  0.1506  0.0423
 3080W        W18549   7.438  12.694  11.259  0.0365 -0.0686 -0.3117
 3081W        W18550  14.018  12.329   1.548 -0.0821 -0.2560  0.1028
 3082W        W18551  16.120  12.467  12.560 -0.1687 -0.1336  0.0984
 3083W        W18552  12.838  10.140   4.892 -0.1165  0.0404  0.4079
 3084W        W18553  16.655   0.535  14.413 -0.0381 -0.1377  0.1323
 3085W        W18554   5.256   6.986   4.696 -0.0714  0.1594  0.0053
 3086W        W18555  11.549  12.281  12.409 -0.3860 -0.2817 -0.1386
 3087W        W18556  15.616  15.598   5.558 -0.5292  0.0618  0.2481
 3088W        W18557  12.271   3.018   2.651 -0.1269  0.0945 -0.0405
 3089W        W18558   6.294   5.120   1.094 -0.1093 -0.6377  0.0886
 3090W        W18559  17.571  12.639   9.786 -0.0108 -0.1775  0.0875
 3091W        W18560   0.432   7.871   2.792  0.1211  0.0104  0.2289
 3092W        W18561   4.861   9.483  13.224 -0.1986 -0.2665 -0.1051
 3093W        W18562  13.686  15.483   1.049  0.2748 -0.1111  0.2894
 3094W        W18563   8.277  11.503  15.912 -0.1701  0.2247  0.3860
 3095W        W18564   8.491   4.136   2.222 -0.0370 -0.1460 -0.2631
 3096W        W18565   4.275  13.543  10.764 -0.2146 -0.1083  0.1504
 3097W        W18566   3.997  18.230   5.056  0.1230  0.1163 -0.0938
 3098W        W18567  12.821  17.172  15.907 -0.3574 -0.3211  0.3405
 3099W        W18568   7.217   8.630   3.655 -0.0495 -0.0930 -0.1359
 3100W        W18569   7.139   2.474  13.434 -0.0849 -0.0947  0.4727
 3101W        W18570   7.941   4.185  12.930  0.0369  0.1932  0.0006
 3102W        W18571  14.909   0.688  11.135 -0.1533  0.0322 -0.0787
 3103W        W18572   7.818   1.615  14.381 -0.0980 -0.3279  0.1110
 3104W        W18573   1.048   8.795   5.105 -0.0902  0.1278 -0.0710
 3105W        W18574   6.950  17.002   4.978  0.1135  0.1093  0.2066
 3106W        W18575  14.152  14.691   2.555  0.0543 -0.0240 -0.1818
 3107W        W18576   0.110   0.206  12.591  0.0482 -0.3997  0.2598
 3108W        W18577   1.473  17.478   5.052 -0.2610 -0.1901 -0.0111
 3109W        W18578   9.622   3.461   0.016 -0.3332 -0.1183  0.2552
 3110W        W18579  17.932   8.307   2.805 -0.2886  0.1351 -0.1242
 3111W        W18580   0.916   9.393   5.075 -0.1742 -0.1537 -0.2106
 3112W        W18581  12.546  11.265  10.908 -0.3210  0.0494 -0.1831
 3113W        W18582   4.162   7.401   2.560  0.0931  0.0508 -0.0062
 3114W        W18583  10.088   6.014   2.987 -0.0299  0.2227 -0.2302
 3115W        W18584  10.083  10.337  15.274 -0.2348  0.1265  0.0527
 3116W        W18585  16.511  15.053   4.868 -0.2683  0.1277 -0.1473
 3117W        W18586   9.707   2.944  12.761 -0.1972 -0.0054 -0.1111
 3118W        W18587   4.657   3.544   5.344  0.0605 -0.1707  0.0684
 3119W        W18588  12.882   2.287   1.112 -0.2383  0.0182 -0.1586
 3120W        W18589   9.835   6.701  14.790  0.2245 -0.1880  0.0087
 3121W        W18590  18.194   9.779  11.272 -0.0794  0.1050  0.2046
 3122W        W18591  17.031  13.422  10.848 -0.1310  0.0145  0.3338
 3123W        W18592   5.611  18.341   2.269 -0.0424 -0.0657 -0.2381
 3124W        W18593   0.383   8.316  14.266  0.0099 -0.1263  0.1344
 3125W        W18594   7.542   8.985  15.147 -0.0179 -0.0112 -0.2907
 3126W        W18595   1.513  13.258  13.394  0.0958  0.1090 -0.1236
 3127W        W18596  14.064   0.258  14.810  0.1330  0.1539  0.1125
 3128W        W18597  13.631   3.224   1.041 -0.0954 -0.0942  0.0388
 3129W        W18598   8.301  12.650  10.899  0.3146  0.0596 -0.0021
 3130W        W18599   4.708   0.353   3.825 -0.3397  0.2242 -0.0206
 3131W        W18600   0.290  14.216   4.102  0.0743  0.3143 -0.1585
 3132W        W18601   5.218   9.428  11.140  0.1764 -0.2837 -0.0033
 3133W        W18602  18.168  13.523  10.950 -0.0278 -0.2489 -0.0437
 3134W        W18603   6.584   4.839  11.901 -0.0898 -0.2502  0.2027
 3135W        W18604   8.455  13.189  14.034  0.0621  0.2418  0.2447
 3136W        W18605   6.202   7.722   4.924  0.3527  0.0755 -0.3520
 3137W        W18606  13.388   4.314   1.795 -0.0473  0.1977  0.0112
 3138W        W18607  10.729  12.702  11.349  0.3192  0.1348  0.0117
 3139W        W18608  13.948   0.556  15.867 -0.1645 -0.1762  0.1468
 3140W        W18609   2.963   5.721  14.382  0.3628  0.0146  0.1672
 3141W        W18610   1.666  14.812  12.954  0.4738 -0.0425  0.2907
 3142W        W18611  17.279  13.653  11.221 -0.3691  0.1047 -0.2095
 3143W        W18612  11.938   2.529   5.332 -0.0232 -0.5365 -0.1692
 3144W        W18613   0.992   2.500  10.778 -0.0457  0.2401 -0.2872
 3145W        W18614  11.269   4.870  15.563 -0.2296  0.0164  0.0386
 3146W        W18615   3.632  15.144   2.110  0.2744 -0.1456  0.0857
 3147W        W18616  11.392  12.388   0.479 -0.0563 -0.0621 -0.2404
 3148W        W18617  17.080   1.509   4.953  0.0598 -0.0072  0.0626
 3149W        W18618  13.875   3.822   5.142 -0.0606 -0.3924 -0.0424
 3150W        W18619   1.179  11.499   1.515  0.1501  0.1864 -0.1126
 3151W        W18620  16.326   8.720   6.249 -0.0179 -0.0883  0.1032
 3152W        W18621  13.875  18.139  12.534 -0.0534 -0.1384 -0.0869
 3153W        W18622  18.138  13.385  15.650 -0.0357 -0.2602 -0.1990
 3154W        W18623   3.379  11.137  15.394  0.0954  0.0017  0.0233
 3155W        W18624  13.571  10.436   1.834  0.0327 -0.0397  0.0754
 3156W        W18625  17.491   0.824   0.847  0.0151  0.1136 -0.3218
 3157W        W18626   4.353   2.372  15.048  0.2921 -0.2807 -0.2240
 3158W        W18627  17.009   9.675  12.787  0.0535  0.2218 -0.1971
 3159W        W18628  11.770   6.223  12.996  0.0045 -0.0175 -0.2486
 3160W        W18629   2.508   3.197   3.243  0.1534  0.0146  0.2401
 3161W        W18630   5.250   5.070  13.343 -0.0287 -0.3256  0.1846
 3162W        W18631   5.902   1.914  13.288  0.0265  0.3976  0.3900
 3163W        W18632   2.306   6.853   0.815 -0.1740 -0.0793  0.1500
 3164W        W18633   1.965  13.066   0.669  0.1884 -0.0784 -0.0788
 3165W        W18634   4.361  16.016  11.486 -0.0711 -0.1144  0.1528
 3166W        W18635  16.420   6.793  11.797  0.1462 -0.0854  0.1017
 3167W        W18636   6.890   9.354   1.030 -0.4540 -0.0936 -0.0901
 3168W        W18637   2.471   6.489  14.306  0.2212  0.4241  0.1426
 3169W        W18638   1.183   3.777  10.323 -0.3024  0.0716  0.0899
 3170W        W18639  11.739  11.012  12.715 -0.0631  0.0497 -0.3605
 3171W        W18640   7.279  17.232   1.271 -0.2406  0.2874 -0.2717
 3172W        W18641  12.273  14.115  12.967 -0.0432  0.4181  0.0259
 3173W        W18642  13.838   2.938   6.438 -0.3256  0.0256 -0.1434
 3174W        W18643  14.779  15.115  12.736 -0.0891  0.3114 -0.3161
 3175W        W18644  14.701  16.143  14.739 -0.1333  0.1667 -0.1328
 3176W        W18645  13.679   0.246  12.618  0.1124  0.2476  0.2277
 3177W        W18646  16.096  17.087   0.391 -0.0875  0.1741 -0.2870
 3178W        W18647  10.788   7.699   5.247 -0.2854  0.1914  0.1908
 3179W        W18648   3.110   7.480   2.491 -0.1845 -0.1335 -0.0017
 3180W        W18649  12.171   7.787  13.706 -0.0633  0.3205 -0.1147
 3181W        W18650   6.323  13.265  14.688  0.1024  0.0351 -0.2521
 3182W        W18651   2.210   2.790   4.711 -0.1324 -0.1494 -0.2128
 3183W        W18652   0.154  16.843   1.431  0.1055  0.1478 -0.0744
 3184W        W18653   7.409   1.064  13.894 -0.1177  0.3977  0.1038
 3185W        W18654  13.343  15.934   0.838  0.2145  0.2456 -0.0344
 3186W        W18655  13.552   5.287  10.863  0.0948  0.4756 -0.2296
 3187W        W18656  12.099  14.167  11.385  0.0130 -0.1401 -0.0700
 3188W        W18657   4.532   7.593  10.408  0.0736 -0.0225  0.0238
 3189W        W18658  15.373  11.775  12.728 -0.0082  0.2420  0.1240
 3190W        W18659  10.752   0.835  12.244  0.1291 -0.1660 -0.2592
 3191W        W18660  11.127   0.052   0.573  0.0071 -0.0724  0.0693
 3192W        W18661   8.603   0.299  11.265  0.1355 -0.0025  0.2483
 3193W        W18662   5.224   7.833  12.276  0.0414 -0.2382  0.1163
 3194W        W18663   9.855   0.848   1.503 -0.0777  0.2744 -0.1471
 3195W        W18664  17.592   5.434  12.111 -0.1687  0.0555 -0.2721
 3196W        W18665   9.303   5.688   1.457 -0.0003 -0.0598  0.0587
 3197W        W18666   3.589   1.848  13.543 -0.1841  0.0848  0.4694
 3198W        W18667  13.433  18.064   1.924  0.2015 -0.3570 -0.0954
 3199W        W18668   0.400   2.712   0.943  0.0383  0.0475 -0.1278
 3200W        W18669   7.053  11.836  15.523 -0.0303  0.1551 -0.3171
 3201W        W18670   6.417   6.921  14.986  0.1246  0.0404 -0.3041
 3202W        W18671  15.631   7.294   3.668  0.2450 -0.1269  0.1954
 3203W        W18672  15.883   1.359   5.105  0.3109  0.1298  0.2716
 3204W        W18673   7.371  15.305   2.893  0.1515  0.0377  0.0364
 3205W        W18674   9.457   2.488   4.828  0.1584 -0.1019 -0.2424
 3206W        W18675   1.778  10.705   2.039 -0.2199 -0.2427  0.2972
 3207W        W18676   6.374  18.445   4.363 -0.0143 -0.1178  0.2078
 3208W        W18677   4.489  18.429  11.620 -0.1967 -0.1749  0.2264
 3209W        W18678  13.555   8.462  14.993 -0.1769  0.1671  0.1098
 3210W        W18679   1.837   6.095  14.902 -0.0507  0.1052 -0.1876
 3211W        W18680  12.292   2.965   1.438 -0.1945  0.1102 -0.3118
 3212W        W18681   1.354   1.023   1.834 -0.2557 -0.4890 -0.0486
 3213W        W18682   9.574  12.251  13.314  0.2671  0.0946  0.1199
 3214W        W18683  15.033  17.297   3.040  0.0930  0.1539 -0.0383
 3215W        W18684   0.535  10.392  16.014  0.0579  0.0910  0.2303
 3216W        W18685   1.779   4.470  15.583  0.0341 -0.0207  0.1972
 3217W        W18686   9.928  11.741  15.072 -0.0718  0.1996  0.2351
 3218W        W18687  12.793  11.539   4.203 -0.0304  0.0621  0.0101
 3219W        W18688   6.305  12.099  14.618  0.3905 -0.0483 -0.0821
 3220W        W18689  13.983   5.608   0.749  0.2638  0.2048 -0.3101
 3221W        W18690   5.664   1.810   5.184  0.4157 -0.1908 -0.1149
 3222W        W18691  11.930   2.427  10.699  0.0898 -0.4308 -0.1200
 3223W        W18692  13.005   2.138   5.129  0.0620  0.2855 -0.1629
 3224W        W18693   8.102  16.545  12.927 -0.0894  0.2476  0.2645
 3225W        W18694   1.040   9.195  11.063 -0.0408 -0.4010 -0.3052
 3226W        W18695   2.438   3.311   5.697  0.0553  0.0558 -0.1226
 3227W        W18696   2.899   6.771  13.957  0.0491 -0.0615 -0.2377
 3228W        W18697  18.314  11.120  11.666 -0.2229 -0.2217 -0.1007
 3229W        W18698  14.521  15.979  15.211  0.4522 -0.1287  0.1063
 3230W        W18699  13.021  18.426  11.555  0.2310  0.0156 -0.1132
 3231W        W18700   7.774  12.932  11.593 -0.1921  0.1261 -0.0675
 3232W        W18701  17.700   3.207   2.641 -0.5957 -0.0970 -0.0728
 3233W        W18702  12.622   6.791  12.233 -0.0733  0.1225 -0.0977
 3234W        W18703  15.273   3.693   2.258 -0.1393 -0.1454 -0.2253
 3235W        W18704  17.067   7.710  12.053  0.0065  0.0342  0.1278
 3236W        W18705   9.113  17.751   2.076 -0.0544 -0.0724 -0.1261
 3237W        W18706  15.383  17.417  13.720 -0.5179 -0.3175 -0.4222
 3238W        W18707  14.112   8.263   4.098  0.1703 -0.1299  0.0485
 3239W        W18708  12.047   9.814   2.370 -0.0481 -0.3177  0.0212
 3240W        W18709  15.820   2.087   3.159  0.0473  0.0542 -0.0961
 3241W        W18710  16.572  15.720  14.198 -0.1782 -0.1951  0.1308
 3242W        W18711   0.341  18.016  13.009 -0.1449 -0.0012 -0.0592
 3243W        W18712   9.001   1.260  11.472 -0.3271 -0.2290 -0.2478
 3244W        W18713  17.760  16.518  15.160  0.4288 -0.1374 -0.0174
 3245W        W18714   9.712  16.585   1.874  0.0723 -0.0794 -0.0634
 3246W        W18715   0.805  16.876   2.097 -0.1858 -0.5709 -0.0368
 3247W        W18716   3.188   5.471  11.661  0.0663 -0.1243  0.3355
 3248W        W18717   5.201   2.266  12.109  0.1651 -0.0195 -0.2237
 3249W        W18718   3.028   6.027   3.698 -0.2033 -0.0039 -0.0580
 3250W        W18719   3.565  13.130  13.089 -0.0553  0.1363  0.1063
 3251W        W18720   6.885  13.340  13.602 -0.2644 -0.0253 -0.1748
 3252W        W18721   1.458   4.199   3.801  0.2122  0.1559  0.0089
 3253W        W18722  17.210   9.929   3.691 -0.0240 -0.1621 -0.2604
 3254W        W18723   2.171   3.353  15.636 -0.1728  0.1257 -0.1816
 3255W        W18724  16.144   6.257   2.934 -0.2301  0.2693 -0.0191
 3256W        W18725  16.687   8.058  10.541  0.3077 -0.4146 -0.1003
 3257W        W18726  14.749   4.494  11.823 -0.2036 -0.0801 -0.1043
 3258W        W18727   7.333  13.233  12.122 -0.2272 -0.1710 -0.1175
 3259W        W18728   9.957  17.024  14.818 -0.2496  0.0440  0.2348
 3260W        W18729   5.837  15.242   4.459 -0.0524 -0.1159 -0.4135
 3261W        W18730   5.652  16.557   1.056  0.2233  0.2256  0.3575
 3262W        W18731  14.704   4.162   2.970  0.2836 -0.1436  0.1470
 3263W        W18732   4.616   7.046  11.424 -0.0006  0.0020  0.2251
 3264W        W18733  12.666  10.654   1.139 -0.0766  0.1193 -0.0334
 3265W        W18734   2.061   1.473  12.749  0.0625  0.1152 -0.1725
 3266W        W18735   3.120  18.151   5.210  0.2455 -0.4153 -0.2538
 3267W        W18736   0.417  16.088   1.364 -0.1193  0.0310  0.1406
 3268W        W18737  14.365   8.858   5.554 -0.2910  0.0655  0.0617
 3269W        W18738  14.441   1.644   1.327 -0.0122  0.0677 -0.0865
 3270W        W18739  10.407  15.803   0.254 -0.3918  0.2279 -0.2012
 3271W        W18740  16.579   1.994   5.029 -0.1732  0.0170  0.0816
 3272W        W18741  17.065   5.038  14.672 -0.4852 -0.1197 -0.0705
 3273W        W18742   5.778   9.551  11.382  0.0020 -0.3349 -0.2367
 3274W        W18743  16.251  11.659  14.850 -0.0277  0.2763 -0.3353
 3275W        W18744   7.208  18.107   4.779  0.1047  0.1925 -0.1455
 3276W        W18745   5.668   5.002  14.191 -0.2701  0.2725 -0.0759
 3277W        W18746   3.329  14.359   4.542 -0.0133 -0.6756 -0.4748
 3278W        W18747   5.777  15.434   2.787 -0.0851  0.1143 -0.0727
 3279W        W18748   0.718  17.228   3.984 -0.2320 -0.0771  0.1519
 3280W        W18749  17.506  17.419  11.830  0.0554  0.1388  0.0033
 3281W        W18750   1.208  12.244  11.168  0.1598 -0.1361  0.0241
 3282W        W18751   7.269  15.121   3.793  0.0216 -0.1153  0.2834
 3283W        W18752   1.234   1.339   2.774  0.0089 -0.0505 -0.3442
 3284W        W18753   4.322  13.645   4.589  0.1175  0.1563 -0.1356
 3285W        W18754   2.230   6.699  11.184 -0.1507  0.0028  0.2411
 3286W        W18755  14.642  15.026   3.198  0.0466 -0.0309  0.2079
 3287W        W18756  11.451  17.352  15.914 -0.0745 -0.1838 -0.0639
 3288W        W18757  10.962   3.519   1.818 -0.3870 -0.1057 -0.3143
 3289W        W18758  13.952   1.004   3.508 -0.0770  0.5929  0.0698
 3290W        W18759  16.721   1.837  12.666 -0.0910  0.0843  0.3646
 3291W        W18760   3.841   3.687   2.212  0.2024 -0.0589  0.0125
 3292W        W18761  13.848   1.460  11.298  0.2640  0.0764 -0.3060
 3293W        W18762  11.067   2.354   1.646 -0.0989 -0.0280  0.1913
 3294W        W18763  16.597   3.659  11.139 -0.0444  0.0089 -0.1527
 3295W        W18764   7.791  12.356   1.519 -0.0069 -0.1140  0.2947
 3296W        W18765   2.090  15.926  14.069  0.0900 -0.0271 -0.2123
 3297W        W18766  16.780  15.854  12.251 -0.1931 -0.1753  0.1193
 3298W        W18767  16.309   8.349  10.846  0.1188 -0.0870  0.2967
 3299W        W18768  10.808  12.823   0.996 -0.1166  0.3183 -0.1096
 3300W        W18769   2.289  10.280  12.212  0.1708 -0.1003  0.0107
 3301W        W18770  11.506  15.386  12.560  0.1508 -0.0341 -0.0213
 3302W        W18771  10.159  10.258   2.293 -0.1044 -0.0615  0.1210
 3303W        W18772   2.984  13.606   4.044  0.2654  0.0224 -0.3253
 3304W        W18773  11.720  12.618  10.353  0.0496  0.2503  0.1245
 3305W        W18774  17.532   9.465  13.954 -0.1033  0.0909  0.0720
 3306W        W18775   9.460  12.324   4.720  0.2562  0.0172  0.2258
 3307W        W18776  13.867  17.176  10.899 -0.0596 -0.2228  0.2568
 3308W        W18777   5.718  13.161   2.176  0.6234 -0.2051  0.3280
 3309W        W18778   5.884  12.598   4.305  0.0404 -0.1106 -0.0133
 3310W        W18779  17.557   7.535   1.631  0.1103  0.1133 -0.1275
 3311W        W18780   7.275   7.690   3.398  0.0707  0.4255 -0.0614
 3312W        W18781  16.268   1.835  15.946 -0.1667  0.1592 -0.3476
 3313W        W18782   1.893   3.036  15.359 -0.0622  0.3773  0.0322
 3314W        W18783  17.456   5.038   5.579  0.4163 -0.0739 -0.4077
 3315W        W18784  16.901   3.392   3.270  0.2048 -0.2804  0.0726
 3316W        W18785  10.782   9.564   2.273 -0.1157  0.1081  0.2218
 3317W        W18786   4.819   8.362  14.181 -0.2117  0.1348 -0.0927
 3318W        W18787  13.677   1.006   4.340 -0.1377 -0.1495 -0.0719
 3319W        W18788   9.737  12.209  15.093 -0.0066  0.2228  0.0844
 3320W        W18789  12.334   4.933   5.548 -0.0435  0.1267  0.4344
 3321W        W18790   3.275  13.453  13.923 -0.0071 -0.0699 -0.1645
 3322W        W18791   8.503   2.048   4.609  0.3085  0.0781 -0.0027
 3323W        W18792  15.003   2.162  15.602 -0.2013 -0.2320  0.1764
 3324W        W18793  16.363  13.975   2.231  0.1807 -0.1152  0.1869
 3325W        W18794  15.394  10.940  10.895 -0.0130  0.0868  0.1564
 3326W        W18795  18.155  14.924   3.790 -0.0488 -0.0612 -0.0274
 3327W        W18796  13.089  12.010  13.316 -0.0990 -0.1923  0.1347
 3328W        W18797   1.628  11.885   2.759 -0.2136 -0.0843 -0.0522
 3329W        W18798  16.884   0.996  12.321  0.1444 -0.0771  0.1359
 3330W        W18799   7.969  10.539  15.488 -0.1964 -0.1721 -0.1527
 3331W        W18800   4.236  11.849   2.953  0.0512  0.0067  0.1169
 3332W        W18801   1.775   0.339  12.042  0.1984 -0.2154  0.1831
 3333W        W18802  13.096   6.521  13.086 -0.0074  0.0291  0.0520
 3334W        W18803   0.160  12.323   0.318 -0.1304 -0.2444  0.0013
 3335W        W18804   0.063   6.651   2.237  0.0725 -0.1097  0.0312
 3336W        W18805   4.500  13.802   5.158 -0.2712  0.3993  0.1009
 3337W        W18806  10.779  10.044   4.056  0.1640 -0.0063 -0.1082
 3338W        W18807   0.636   2.957   0.174  0.2851 -0.2040  0.2063
 3339W        W18808  15.059  13.821  13.874 -0.0638 -0.3272  0.3599
 3340W        W18809  11.841  12.456   0.209  0.1008  0.1594  0.0902
 3341W        W18810   3.790  13.867   1.657  0.1897  0.3577 -0.0166
 3342W        W18811  16.474   4.447   5.282 -0.1821  0.1457 -0.1301
 3343W        W18812  14.700  14.324   3.316  0.0924  0.1665  0.0569
 3344W        W18813   6.205  17.848   3.478  0.1892  0.2566 -0.3276
 3345W        W18814  17.634   7.125   5.675  0.1516 -0.1570  0.0040
 3346W        W18815   2.057  11.637  13.520  0.3434  0.0447  0.0875
 3347W        W18816   5.369  12.701   3.126 -0.2539  0.1960  0.3327
 3348W        W18817  16.395  15.142  14.825 -0.0219  0.0240  0.1713
 3349W        W18818   6.941   4.966   2.428 -0.1031  0.0882 -0.1244
 3350W        W18819  16.582   7.562   3.027  0.0400  0.5854  0.0821
 3351W        W18820   5.408   8.653   1.854 -0.2261  0.0025  0.4572
 3352W        W18821   9.236   5.288  13.394 -0.0614  0.1154 -0.0340
 3353W        W18822  15.026   1.439  11.961 -0.0897 -0.0405 -0.0615
 3354W        W18823   9.664   0.672  13.843 -0.0458  0.5249 -0.0896
 3355W        W18824   5.049   3.854   3.408 -0.1262  0.3012  0.0972
 3356W        W18825  17.947  13.210   4.012  0.1954  0.0415 -0.0314
 3357W        W18826  17.268   2.103   2.952  0.0459 -0.1782 -0.2582
 3358W        W18827   6.716   2.623  12.358  0.0929  0.0517 -0.1673
 3359W        W18828   7.830   3.154   2.915 -0.1734  0.1970 -0.1892
 3360W        W18829  12.210   3.947   3.947 -0.1285  0.1038 -0.0976
 3361W        W18830   9.795   6.511  10.718  0.0830  0.1401  0.3684
 3362W        W18831  11.835  10.452  15.102  0.2471 -0.0412  0.1469
 3363W        W18832  18.200  14.557  15.067  0.0875  0.0431 -0.2295
 3364W        W18833  13.039  17.548  11.143 -0.2473 -0.0113  0.2709
 3365W        W18834  17.836  13.049  12.915 -0.0346 -0.0954  0.1015
 3366W        W18835  10.304   1.516   4.907 -0.0077  0.1250 -0.0725
 3367W        W18836  15.215  15.495  11.613  0.2148  0.0388 -0.2232
 3368W        W18837  14.935   1.794   1.851  0.1832  0.2087  0.1788
 3369W        W18838  11.850   7.086   2.253  0.0474  0.2847 -0.1603
 3370W        W18839   9.316   0.347  15.724  0.0199  0.1835 -0.2400
 3371W        W18840  11.402  18.430   5.393 -0.0641  0.0219 -0.1057
 3372W        W18841  12.555  17.788  15.756 -0.1766  0.0709 -0.1207
 3373W        W18842  17.501   0.016  14.298 -0.0764 -0.0774  0.1838
 3374W        W18843  10.801   7.566  14.431 -0.1949  0.3407 -0.1035
 3375W        W18844  17.041   3.134  11.679  0.2061  0.2042 -0.0353
 3376W        W18845  13.874  14.959  11.814 -0.2448  0.0177 -0.0508
 3377W        W18846   5.747   4.330  11.735 -0.2573 -0.1986  0.0837
 3378W        W18847  17.193  12.860  11.704 -0.1938  0.3055  0.0265
 3379W        W18848   8.477   3.826   0.665  0.1484  0.0231  0.4129
 3380W        W18849   5.803   0.068   2.808  0.1302 -0.0570 -0.2317
 3381W        W18850  12.196   1.022   2.348 -0.2152 -0.0036  0.0884
 3382W        W18851  16.690   3.191   2.291 -0.4365 -0.0180  0.1835
 3383W        W18852  12.879   5.548   0.885  0.2264 -0.1931  0.2527
 3384W        W18853   8.818   7.288  14.249  0.1243 -0.2334 -0.2039
 3385W        W18854   6.965  14.511  11.128  0.1310  0.1505 -0.1294
 3386W        W18855  16.452   4.495  13.687  0.2688  0.2935  0.1545
 3387W        W18856   5.470   8.903  11.643  0.0703  0.2430  0.0772
 3388W        W18857   6.565  15.183   0.569 -0.1681 -0.0119  0.1118
 3389W        W18858  15.630   6.493   1.136  0.1946  0.2819  0.0122
 3390W        W18859  13.834   2.063   2.184  0.2507 -0.1679  0.0629
 3391W        W18860   9.659   2.802  14.532  0.1633 -0.0984  0.2218
 3392W        W18861   3.033  12.858  11.268 -0.2920  0.1962  0.2034
 3393W        W18862   4.894   0.624  15.444  0.3741 -0.0183  0.1636
 3394W        W18863   0.323  10.535   2.177 -0.0843  0.1119  0.1167
 3395W        W18864  16.182   8.003   3.403  0.1945  0.2308 -0.0307
 3396W        W18865   3.518  14.018   0.664  0.3144  0.1972 -0.0816
 3397W        W18866   7.868   5.210  12.203  0.0765 -0.0431 -0.0163
 3398W        W18867  18.311   5.918  11.682 -0.0013  0.1418  0.1914
 3399W        W18868   5.603  14.275   3.694  0.1583 -0.1492 -0.1001
 3400W        W18869  18.118  12.025  12.075  0.0902  0.1685 -0.2205
 3401W        W18870   7.616   5.093   0.354 -0.1165  0.1085 -0.0856
 3402W        W18871   7.752   4.035  11.822 -0.3596 -0.1033 -0.0857
 3403W        W18872  11.350  18.131  11.881 -0.0947  0.1172  0.1028
 3404W        W18873   4.323   9.194   3.115 -0.2691 -0.0978 -0.0518
 3405W        W18874  17.218   5.829  12.356 -0.2098 -0.1789 -0.1034
 3406W        W18875  10.164  18.109   1.522  0.0674 -0.0114 -0.2156
 3407W        W18876  16.840   9.239  14.288  0.3544 -0.1471  0.2811
 3408W        W18877  12.837   4.769  14.694 -0.2029  0.0318 -0.1956
 3409W        W18878  17.066  13.719  11.841 -0.0793  0.1777  0.0245
 3410W        W18879   6.579  14.391  15.143 -0.1054 -0.0293 -0.2497
 3411W        W18880   8.709   6.482  12.015 -0.0511  0.1639 -0.0462
 3412W        W18881   7.898  13.816   4.585 -0.0986 -0.0807 -0.1271
 3413W        W18882  18.310  12.013  13.304 -0.1314 -0.1403  0.2260
 3414W        W18883   1.622   2.297   6.282 -0.1351 -0.0143  0.0441
 3415W        W18884  11.260   3.772  13.879  0.0936  0.2764 -0.1413
 3416W        W18885  16.583  13.155   1.453  0.3081  0.2697 -0.1299
 3417W        W18886   1.505   8.333   1.811  0.1071 -0.3493  0.3367
 3418W        W18887   6.438  13.830  13.629  0.3174 -0.0093 -0.0119
 3419W        W18888   5.173  16.209  14.966 -0.1205  0.1228  0.0205
 3420W        W18889  16.808   6.443   0.950  0.2718  0.2028  0.0929
 3421W        W18890   8.864   2.588  13.021  0.1253 -0.4513  0.3779
 3422W        W18891  12.839   8.225   1.488  0.2247 -0.0165 -0.2226
 3423W        W18892  16.706  12.814  13.548 -0.2570  0.2322 -0.1977
 3424W        W18893   3.852  13.627   0.581  0.1208 -0.2823 -0.1021
 3425W        W18894   8.139   3.351  10.023 -0.3307  0.0043  0.1177
 3426W        W18895  12.757   1.283  13.267  0.3580  0.2876  0.0540
 3427W        W18896  10.747   8.604  12.940  0.0679  0.0324  0.1438
 3428W        W18897   0.200   7.335   5.840  0.1589 -0.2217  0.0626
 3429W        W18898  12.570   4.975   2.776 -0.1211  0.4108  0.3334
 3430W        W18899   6.664   4.859   4.209  0.3563  0.0582  0.2136
 3431W        W18900  12.559   8.133   0.132 -0.2361  0.0204  0.0390
 3432W        W18901   7.459  10.448   5.356 -0.2576 -0.1048  0.5035
 3433W        W18902  16.839  13.786   0.412  0.1587  0.0701 -0.0759
 3434W        W18903   8.663  14.008   1.060 -0.0216  0.1412  0.0548
 3435W        W18904   7.190  17.070  15.278  0.1737 -0.1265 -0.2582
 3436W        W18905  14.189   1.771  15.907  0.0550  0.1340 -0.1007
 3437W        W18906   1.492  10.536  13.675  0.1169  0.0742 -0.1570
 3438W        W18907  10.583   3.064   3.990  0.1264  0.0135 -0.2334
 3439W        W18908   2.694   9.794  11.620  0.2382  0.2051 -0.1107
 3440W        W18909  17.075  12.641  12.556 -0.3368  0.2246  0.1088
 3441W        W18910   4.968   8.441   0.998  0.3039 -0.0793 -0.0620
 3442W        W18911   6.952  16.261   2.347 -0.0304 -0.2467 -0.1086
 3443W        W18912   9.732  17.351   1.281  0.2641  0.0309 -0.0375
 3444W        W18913  18.079   4.317  15.660  0.0259 -0.3456 -0.0803
 3445W        W18914   7.976  13.793  11.752 -0.1611 -0.0378  0.2346
 3446W        W18915   4.827  11.613  11.991 -0.0132  0.2072  0.0399
 3447W        W18916   1.799   6.614   5.424  0.1936  0.3441 -0.1322
 3448W        W18917  17.777   4.738   4.150 -0.3771 -0.2333  0.0157
 3449W        W18918  17.199  16.143   0.188  0.0484  0.2076  0.0947
 3450W        W18919   4.340   3.814  14.615 -0.2206  0.1319  0.2571
 3451W        W18920   8.043   8.641   4.209  0.2784 -0.1290 -0.0695
 3452W        W18921  15.527  13.312  13.085  0.0476 -0.4765 -0.1434
 3453W        W18922   7.673  17.798  14.302  0.1636  0.2882  0.1211
 3454W        W18923   7.064   0.848  15.160 -0.0668 -0.1066  0.0017
 3455W        W18924  15.608  14.686  12.574  0.1531  0.4069  0.0608
 3456W        W18925   7.244  11.284  14.820 -0.2175  0.1318  0.2599
 3457W        W18926   8.911   0.331   4.599  0.4219 -0.1307 -0.3073
 3458W        W18927  14.115   6.558   5.364 -0.0505  0.2273 -0.2744
 3459W        W18928  11.922  16.959   1.200 -0.0731 -0.1286 -0.1997
 3460W        W18929   8.896  15.413  12.220  0.1915  0.1512 -0.2816
 3461W        W18930   0.832   8.928  15.636 -0.0505 -0.2151  0.0670
 3462W        W18931  14.746   6.800  14.395 -0.0691  0.0141  0.0567
 3463W        W18932  10.512   6.329  14.940 -0.0453  0.0299  0.2033
 3464W        W18933  17.053  14.205  13.532  0.2234 -0.1479  0.0631
 3465W        W18934   5.196   2.120  11.072 -0.2672 -0.1371  0.3401
 3466W        W18935   0.838   2.575   1.097  0.1670 -0.0810 -0.1385
 3467W        W18936   1.835   9.364   3.887  0.0586  0.2175  0.0204
 3468W        W18937   8.786  11.381   2.179  0.0844 -0.1338 -0.2312
 3469W        W18938   1.394   2.409   2.260  0.0904  0.2589 -0.0186
 3470W        W18939   6.562   9.733   0.062 -0.0029 -0.2521 -0.2283
 3471W        W18940  14.711  17.578   4.921 -0.0215  0.0273 -0.1662
 3472W        W18941   5.345  10.904  12.417 -0.0028  0.1032  0.0181
 3473W        W18942   0.678   6.207  14.870 -0.0650  0.1597  0.3258
 3474W        W18943  14.795   6.825   5.549  0.2146  0.0964  0.0017
 3475W        W18944   7.558  10.033  14.607 -0.0114  0.0043 -0.0350
 3476W        W18945  10.182   8.059  10.135 -0.1815  0.3526  0.1895
 3477W        W18946  11.975  11.395  13.011  0.0834 -0.2976 -0.3065
 3478W        W18947   1.140  17.760  10.161 -0.0489  0.3073  0.0591
 3479W        W18948  14.275  10.995  13.459 -0.0014 -0.0868 -0.1106
 3480W        W18949   7.017   9.644   4.109  0.2706  0.1586 -0.1325
 3481W        W18950   0.213   0.867   5.551 -0.1491 -0.0243 -0.1965
 3482W        W18951   3.953   2.888   2.198 -0.0668  0.0744 -0.2474
 3483W        W18952  12.995  12.713   1.857 -0.1564  0.0259 -0.0575
 3484W        W18953   2.486  15.260   0.378 -0.0360  0.0764  0.2080
 3485W        W18954   0.436  11.476   5.705 -0.0161  0.3378 -0.4819
 3486W        W18955  17.556   1.269   2.919  0.2886 -0.3289 -0.3589
 3487W        W18956   8.604  13.065  14.567  0.0325  0.2822 -0.0900
 3488W        W18957   1.895   1.176   0.918 -0.1835 -0.0658  0.1444
 3489W        W18958   1.227   5.635   2.696 -0.0872 -0.0713 -0.2428
 3490W        W18959   1.778  13.047   3.260  0.2892 -0.3440  0.2194
 3491W        W18960   3.592  15.292   3.166  0.3605  0.0030  0.1197
 3492W        W18961   0.730   7.454   5.066  0.1837  0.0805  0.2130
 3493W        W18962  15.841   2.832   4.507 -0.1443  0.2489 -0.1709
 3494W        W18963  14.781   8.618   2.531  0.4121 -0.1593  0.0954
 3495W        W18964   7.900   4.784   0.006  0.3581 -0.0924 -0.0325
 3496W        W18965   9.718   9.699  11.748 -0.2919  0.0534  0.0967
 3497W        W18966  16.831   8.666   1.689 -0.0896  0.2675  0.2541
 3498W        W18967   7.512   8.809  11.408 -0.1058  0.3453  0.0076
 3499W        W18968   7.184  11.157   1.120  0.1288 -0.2230 -0.0914
 3500W        W18969  13.895   9.836  14.573  0.0341 -0.3055  0.0500
 3501W        W18970   3.974  12.281  13.331  0.0723 -0.2615 -0.0499
 3502W        W18971  13.326   8.174  12.486 -0.0006  0.0548  0.1706
 3503W        W18972   3.077  14.149   4.033  0.3543  0.3893  0.0071
 3504W        W18973  15.916  10.246  14.639 -0.3386  0.1324 -0.0724
 3505W        W18974  18.337   4.522  14.316  0.0096  0.0319 -0.0014
 3506W        W18975  17.861   2.902  13.641  0.0658  0.2272 -0.1415
 3507W        W18976   4.994   6.770  15.081  0.3416  0.2315 -0.2475
 3508W        W18977   5.238   5.556   0.412 -0.0421  0.1675 -0.1184
 3509W        W18978   8.431  12.220  15.193 -0.0401  0.0870  0.2081
 3510W        W18979  13.789   2.231   6.196  0.1332 -0.1207 -0.0393
 3511W        W18980   6.991  12.742   1.423  0.2116 -0.0113  0.1398
 3512W        W18981   5.497  10.743   0.439 -0.0559  0.1335 -0.2773
 3513W        W18982  14.857  15.654   0.127  0.0731 -0.0125  0.0115
 3514W        W18983   6.163   5.014   4.230 -0.0082 -0.1283 -0.0639
 3515W        W18984  16.300   9.986   3.407  0.0364  0.1255 -0.1577
 3516W        W18985  14.428  11.141   1.056 -0.1253 -0.1591  0.2050
 3517W        W18986  17.631  11.739  12.189  0.1461  0.1501 -0.3033
 3518W        W18987   7.897   0.974   0.143 -0.1986  0.0249 -0.2166
 3519W        W18988   9.600  14.715   0.884 -0.0036  0.2780  0.1445
 3520W        W18989  13.920  15.978   0.812  0.2599 -0.1065  0.0500
 3521W        W18990  17.478  17.950  13.901 -0.1628  0.1820  0.1495
 3522W        W18991  17.798  12.162   3.003  0.1412  0.0921  0.0956
 3523W        W18992  16.098   3.261   4.124 -0.0359  0.0481 -0.1865
 3524W        W18993   9.664  11.651  12.598  0.1156  0.3344 -0.2114
 3525W        W18994  15.782   1.442  12.850 -0.1209  0.1994 -0.1778
 3526W        W18995  18.391   2.978   4.568  0.6281 -0.0279 -0.0789
 3527W        W18996   0.076   4.658   2.371  0.0392  0.2110  0.1750
 3528W        W18997  15.658   1.080   1.349  0.3312  0.2250  0.1796
 3529W        W18998  10.779   5.558   5.314  0.0840  0.1454  0.1214
 3530W        W18999   9.174  13.737   5.893 -0.4526 -0.1167 -0.1298
 3531W        W19000   4.527   5.971  12.773 -0.2216 -0.1156 -0.0824
 3532W        W19001   9.396   3.026   1.189  0.3501 -0.3453  0.2254
 3533W        W19002   2.559   2.005   3.790  0.2937  0.1925 -0.1318
 3534W        W19003  17.937   2.477   0.174  0.1163  0.2096 -0.2586
 3535W        W19004  16.308   9.057   2.975 -0.0195  0.1262 -0.3580
 3536W        W19005   0.472  16.259   5.080 -0.0108  0.1598 -0.4329
 3537W        W19006   4.716  11.113   2.916 -0.3966  0.1636  0.1115
 3538W        W19007   3.176  13.263   2.701  0.0229 -0.0427 -0.3463
 3539W        W19008   9.634   9.547   2.837  0.2211  0.1810  0.0324
 3540W        W19009  16.783  13.239   4.858  0.0349  0.1822  0.1761
 3541W        W19010   8.382   2.695   3.666 -0.0590 -0.1248  0.0389
 3542W        W19011   6.099  12.903   5.595 -0.1512  0.0419 -0.1178
 3543W        W19012  15.407   0.463  13.818  0.0722  0.4903 -0.4573
 3544W        W19013  14.929  10.920   4.031  0.1222  0.1150  0.0438
 3545W        W19014  17.452   1.410  12.558  0.2533 -0.1105 -0.0209
 3546W        W19015  11.201   4.305  12.197  0.2221  0.0161 -0.0141
 3547W        W19016   7.937   1.426  13.866  0.0437  0.0866  0.0474
 3548W        W19017   7.774  13.151   1.420 -0.1436  0.0267 -0.3312
 3549W        W19018   1.168   0.794   2.738  0.0232 -0.0270  0.4168
 3550W        W19019  17.095   3.346  12.511  0.0730  0.0460 -0.2071
 3551W        W19020  12.399   5.008   1.516  0.1417  0.1226  0.1556
 3552W        W19021  16.529   1.414  12.609  0.0522  0.1525  0.0028
 3553W        W19022   0.240  10.003  11.448 -0.1141 -0.0689  0.0391
 3554W        W19023   6.921   0.896   1.604  0.0351  0.1599  0.2164
 3555W        W19024   2.575  11.095  15.821 -0.4286 -0.1081  0.0687
 3556W        W19025   8.350   6.534   0.419 -0.0876 -0.1488  0.3818
 3557W        W19026   6.310  17.626   4.501 -0.2022 -0.1361  0.3902
 3558W        W19027  11.813   1.975   2.858 -0.0917  0.1509  0.2116
 3559W        W19028   0.669   2.940   2.618  0.0536 -0.0194 -0.0041
 3560W        W19029   8.127   7.010  14.797  0.1672 -0.1344 -0.0615
 3561W        W19030   1.094   7.398   0.164  0.2718 -0.3929 -0.1121
 3562W        W19031   6.319  11.462  13.336 -0.0270 -0.0030 -0.0118
 3563W        W19032   2.620   9.016   1.697  0.1476  0.1243 -0.2740
 3564W        W19033   6.497  16.370   2.498  0.0658 -0.0778 -0.2848
 3565W        W19034   8.540   5.809   4.010 -0.0645  0.0872  0.0047
 3566W        W19035  17.321   0.949   1.971  0.2037  0.1713 -0.1036
 3567W        W19036   6.613  10.641   0.094  0.0204  0.2710  0.1254
 3568W        W19037   2.658   0.024   1.139 -0.1070 -0.0610  0.0014
 3569W        W19038  18.041  12.406  11.769 -0.1699  0.1433  0.1744
 3570W        W19039  12.930  17.823  14.113  0.0360  0.0205  0.0145
 3571W        W19040   0.347   4.812   4.330  0.2498 -0.1239 -0.0382
 3572W        W19041  16.951  17.172   5.386  0.1358  0.2518 -0.0673
 3573W        W19042   1.195  12.191  14.683 -0.0936 -0.0923 -0.2357
 3574W        W19043   8.709   8.137  14.652 -0.1261 -0.1149 -0.0634
 3575W        W19044   7.609   7.912   1.949  0.0051 -0.1323  0.0004
 3576W        W19045  10.181   8.856   4.854  0.0381  0.0363  0.1092
 3577W        W19046  16.756  11.362   5.160 -0.1381 -0.0992  0.0702
 3578W        W19047  11.997  11.201   1.820  0.1618 -0.2023  0.0002
 3579W        W19048  17.205  17.849   0.308  0.2567  0.3049 -0.0861
 3580W        W19049   5.922  16.254  13.767 -0.0021  0.2245 -0.2290
 3581W        W19050   3.709   9.636  12.696 -0.0045  0.2111 -0.2297
 3582W        W19051  15.040  13.800   0.491 -0.3927  0.1877 -0.4892
 3583W        W19052   3.388   1.658   3.846 -0.0993 -0.3002  0.1470
 3584W        W19053   8.214   9.726   3.750 -0.0599 -0.1774  0.0141
 3585W        W19054   5.161   7.610  11.408  0.0383 -0.1962  0.0253
 3586W        W19055   1.143   9.539   2.487  0.0323  0.4511 -0.2976
 3587W        W19056  14.645  14.371  15.863  0.0997 -0.4080  0.0888
 3588W        W19057   7.893   0.961   2.644 -0.1726 -0.0052  0.1921
 3589W        W19058  10.012  12.484   0.833 -0.1178  0.0817  0.2108
 3590W        W19059   7.264  14.457   0.910  0.1020 -0.1558  0.0607
 3591W        W19060   7.206   1.871  15.509  0.1806  0.0440  0.0287
 3592W        W19061  11.172  16.767  13.017 -0.1151 -0.2053  0.2179
 3593W        W19062   6.262   7.765  13.982 -0.0734  0.1851  0.1720
 3594W        W19063  13.067  11.563   2.790 -0.0622  0.3949 -0.0429
 3595W        W19064  16.723   6.814   2.307 -0.1098 -0.1522  0.0251
 3596W        W19065   8.309  11.593   2.324 -0.1620  0.2832 -0.0357
 3597W        W19066  15.632   4.040   3.804  0.0726  0.2074 -0.0368
 3598W        W19067   7.596   2.254  13.205  0.3670 -0.4283 -0.0342
 3599W        W19068  16.286  13.084   1.056  0.1855 -0.0035 -0.0853
 3600W        W19069  18.320   1.487   1.930 -0.1346 -0.3303  0.1312
 3601W        W19070   2.006   9.863  12.745 -0.1471  0.1230 -0.1789
 3602W        W19071   5.427   1.119  11.270  0.1607 -0.1076 -0.0409
 3603W        W19072  12.960   1.201   2.094  0.2347 -0.2364  0.0628
 3604W        W19073  11.445   0.918   2.896 -0.2496  0.1356  0.2439
 3605W        W19074   1.992  13.717  15.613 -0.2776  0.1581  0.3279
 3606W        W19075   7.663  11.718  13.330  0.0395 -0.1982  0.2394
 3607W        W19076  13.318  12.780   5.877 -0.1220 -0.0062  0.3558
 3608W        W19077  18.126  16.605  14.325 -0.3958  0.4804  0.0620
 3609W        W19078   6.828  14.045  14.480  0.2677 -0.0386  0.1720
 3610W        W19079  10.024   1.986   2.390 -0.1059 -0.0498  0.0223
 3611W        W19080  13.678   5.785   0.257 -0.1301 -0.0584 -0.1294
 3612W        W19081   2.980   1.061   2.358  0.3055 -0.3301  0.2612
 3613W        W19082   0.252  11.659   6.115  0.6229 -0.1504  0.0122
 3614W        W19083  15.210  18.328  15.388  0.1392 -0.4871  0.0547
 3615W        W19084  12.279  14.606  15.499 -0.0640  0.0013  0.0859
 3616W        W19085   6.526   6.802   4.377 -0.0740 -0.1265 -0.0734
 3617W        W19086   4.938   1.728   4.560 -0.0588  0.0560 -0.0248
 3618W        W19087   9.583   3.426  15.108 -0.2699  0.1117  0.2738
 3619W        W19088  13.972   1.221  14.609 -0.1049 -0.0922 -0.0933
 3620W        W19089   0.759   6.325   2.820  0.0555  0.0242  0.0223
 3621W        W19090  14.101  13.826  11.401 -0.0696 -0.0123 -0.0005
 3622W        W19091   6.682  12.395  11.818 -0.0859 -0.0951  0.0416
 3623W        W19092  13.512  16.131  11.275 -0.0325 -0.2338 -0.1569
 3624W        W19093  18.173   0.823  15.342 -0.3554  0.0886 -0.3205
 3625W        W19094   4.079  13.309  11.206 -0.0709  0.1062 -0.3381
 3626W        W19095  14.089   8.426   3.653 -0.0807  0.0671 -0.0976
 3627W        W19096  11.834  15.604  12.209  0.0975 -0.1334  0.0943
 3628W        W19097   3.233  18.117  12.502 -0.3394 -0.0708  0.0289
 3629W        W19098  14.191   8.548  15.961  0.1383 -0.0376 -0.1285
 3630W        W19099  18.196   1.719   4.141 -0.4164 -0.0889 -0.2076
 3631W        W19100   9.432  11.895  11.721 -0.1710 -0.0997 -0.0292
 3632W        W19101  12.883  15.661   1.619  0.1670  0.1942 -0.3682
 3633W        W19102   5.930   3.815   5.458  0.0136  0.4738  0.0821
 3634W        W19103   3.870   4.128   1.790  0.2530 -0.0732  0.0540
 3635W        W19104  15.891   0.708   3.960 -0.0601  0.3143  0.0696
 3636W        W19105  11.813   6.755  14.484 -0.1225 -0.2308 -0.1896
 3637W        W19106  15.125  14.427   5.548 -0.2896 -0.2165 -0.0344
 3638W        W19107  14.310   0.607   4.898 -0.3302  0.1606 -0.2194
 3639W        W19108   3.191   9.750  15.459  0.2594  0.1919  0.1314
 3640W        W19109   4.895   4.096   2.487 -0.0837 -0.0129  0.0291
 3641W        W19110  13.246   1.117  13.119  0.2332 -0.0459 -0.1872
 3642W        W19111   1.602   8.789   4.043  0.1566  0.1459  0.2071
 3643W        W19112   3.716   0.779  14.678 -0.2974  0.0115  0.0134
 3644W        W19113  12.064   7.671  12.319  0.0360 -0.0833 -0.0628
 3645W        W19114   3.151   5.175   3.115 -0.1620 -0.1111 -0.0727
 3646W        W19115   1.033  18.132   3.488 -0.0022 -0.0801  0.1224
 3647W        W19116   4.332  14.367   5.625  0.0505 -0.0617 -0.0279
 3648W        W19117  13.647   9.107   3.751  0.0698  0.2897 -0.0216
 3649W        W19118   0.635  17.673  13.424 -0.4170 -0.2056  0.0542
 3650W        W19119  14.088  15.622  10.217  0.2421  0.1608 -0.1179
 3651W        W19120   6.958   1.870  14.294 -0.0318 -0.2179 -0.0220
 3652W        W19121  11.837   0.404  15.021  0.0047  0.2266  0.1373
 3653W        W19122   5.696  18.198   5.618  0.0896 -0.0821  0.1788
 3654W        W19123  17.609   1.894  11.890  0.0025 -0.1458  0.0774
 3655W        W19124  10.239   3.440   3.767  0.2711 -0.0925 -0.3024
 3656W        W19125  13.390  14.839   4.722  0.0885 -0.1805  0.1456
 3657W        W19126   8.462  12.922  13.080  0.0837 -0.0790 -0.3511
 3658W        W19127  16.855   1.941   3.185  0.1164 -0.0674  0.1544
 3659W        W19128  10.128   0.892  14.212  0.0408  0.1582  0.2299
 3660W        W19129   5.402  14.915   2.203 -0.2229 -0.0372  0.2796
 3661W        W19130   6.209   1.256  12.534  0.0571 -0.1009  0.0734
 3662W        W19131  15.686  13.913  14.900  0.0324  0.0759 -0.1973
 3663W        W19132  15.298  15.775   2.121 -0.0818 -0.1059 -0.1037
 3664W        W19133   0.069   8.415  15.970  0.2543 -0.3136  0.1144
 3665W        W19134   5.566  11.370  12.724  0.0158 -0.2637 -0.3145
 3666W        W19135   9.486   4.461  12.221 -0.1368 -0.0489  0.1823
 3667W        W19136  10.624  17.555  14.951  0.5256 -0.0999 -0.4402
 3668W        W19137   6.576   4.452   0.118  0.3781  0.1627  0.2774
 3669W        W19138   9.355   0.977   0.624  0.1115  0.3871  0.0405
 3670W        W19139   4.080   8.181  13.491  0.2589 -0.0675 -0.2902
 3671W        W19140  15.339   9.311   4.535  0.2985  0.3459  0.2202
 3672W        W19141   0.706  18.340  12.849 -0.2099  0.2153  0.1319
 3673W        W19142   8.394   1.180   2.563  0.1369  0.1184 -0.0467
 3674W        W19143   2.687   2.489  11.694  0.2518 -0.2243 -0.0349
 3675W        W19144  14.547  12.289   4.877  0.1510 -0.0369  0.0652
 3676W        W19145   6.458  15.294  14.896 -0.2298  0.4308 -0.3614
 3677W        W19146  17.268  18.298  11.714  0.1738  0.3518 -0.0507
 3678W        W19147   2.360  10.142   3.021  0.0810  0.0034  0.2194
 3679W        W19148  14.381  10.134   1.113 -0.0444 -0.0521 -0.2912
 3680W        W19149  14.873  12.487  14.908  0.1317 -0.0343  0.1860
 3681W        W19150   9.498   8.660  12.173  0.0985  0.0068 -0.0403
 3682W        W19151  16.103   9.091  11.843  0.1667 -0.1620  0.0677
 3683W        W19152  13.758  16.106   3.446 -0.1508 -0.1838  0.1124
 3684W        W19153  11.268  13.936  15.775 -0.1125 -0.2494 -0.3429
 3685W        W19154   7.120  12.051  11.808  0.0696  0.4550 -0.1695
 3686W        W19155   6.905  17.224   2.731 -0.0512 -0.1086  0.2468
 3687W        W19156  11.813  12.428  12.817  0.2160 -0.0663  0.1073
 3688W        W19157   1.717   3.475  11.095 -0.0750  0.1922  0.0184
 3689W        W19158  10.405   3.511  11.710 -0.0312  0.1888  0.2193
 3690W        W19159   2.663  10.579  10.099 -0.1087  0.1251  0.3806
 3691W        W19160  17.548   9.287  12.131  0.3022  0.0136  0.0684
 3692W        W19161   4.284  16.542  11.207  0.1148  0.0218 -0.2745
 3693W        W19162   3.582  14.374   5.486 -0.0501 -0.5574 -0.4583
 3694W        W19163   5.463   3.936  11.493 -0.0653  0.1536  0.0280
 3695W        W19164   0.637  10.097  14.768  0.0797 -0.1903  0.1186
 3696W        W19165  15.317   6.879   3.822  0.2161  0.1828 -0.3182
 3697W        W19166  15.297   4.061   5.664 -0.2904 -0.0649 -0.3327
 3698W        W19167  17.908  17.402  13.631 -0.4290 -0.1282 -0.2043
 3699W        W19168   5.348  18.083   1.933  0.0938  0.1735 -0.2018
 3700W        W19169   6.236   9.828   4.543 -0.0259  0.0108  0.2634
 3701W        W19170   5.176  18.059   3.476 -0.1623  0.0125  0.3641
 3702W        W19171  12.451   0.015  13.574  0.3063  0.2393  0.0634
 3703W        W19172  12.896  14.193   1.821 -0.0508 -0.1280  0.1339
 3704W        W19173   3.652   5.313  11.940 -0.2561 -0.3185  0.1430
 3705W        W19174   9.496   5.453   0.281  0.0112 -0.1814  0.1056
 3706W        W19175   8.253  14.903  12.654  0.2703  0.4549 -0.0158
 3707W        W19176  17.095   2.946  14.183 -0.0476 -0.0409  0.1176
 3708W        W19177  17.205   8.369   5.466  0.2871 -0.4808 -0.0709
 3709W        W19178  12.346   9.956  15.054  0.1703  0.0749  0.1579
 3710W        W19179   8.827  13.098  12.414  0.0043  0.2753 -0.0931
 3711W        W19180   2.393   0.586  14.695  0.0242  0.0553  0.0575
 3712W        W19181   2.083  13.325  13.384 -0.0455  0.3933 -0.0801
 3713W        W19182  18.305   0.204   4.891  0.0703  0.0525 -0.0191
 3714W        W19183  16.941   6.651  13.278 -0.1670  0.1989  0.4185
 3715W        W19184   6.125   8.363  12.299 -0.0246  0.1246 -0.0733
 3716W        W19185  10.638  16.493   4.686 -0.1449  0.1365 -0.1147
 3717W        W19186  10.943   1.720  14.401  0.0845  0.1099 -0.2789
 3718W        W19187  16.034  18.094  10.886 -0.1829 -0.2421  0.2065
 3719W        W19188   5.787   0.355  12.678  0.2653 -0.0201  0.3858
 3720W        W19189   9.284  10.331   0.015  0.1765  0.0991 -0.0354
 3721W        W19190   6.905  12.005   0.538  0.2079  0.2642 -0.1616
 3722W        W19191  13.086   7.103  12.358  0.2022  0.1424  0.1945
 3723W        W19192  15.302  16.820  13.053  0.0440  0.3720 -0.0790
 3724W        W19193   3.829   6.793   4.398  0.0759  0.4291 -0.0174
 3725W        W19194  13.832   0.543  14.041 -0.1011  0.0561 -0.0129
 3726W        W19195  16.785  11.628  14.836  0.1216  0.1741  0.3180
 3727W        W19196   5.160  11.738  10.107  0.1147 -0.3803 -0.1841
 3728W        W19197  10.768   5.472   1.921  0.0019 -0.1063 -0.0583
 3729W        W19198  16.379  14.972  12.916 -0.1509  0.0191  0.0236
 3730W        W19199  15.098  14.834  14.133  0.0449 -0.1427  0.3943
 3731W        W19200  13.560  17.779  15.530 -0.2416 -0.1354 -0.0877
 3732W        W19201   7.532  12.627   1.067 -0.1945  0.1421  0.2952
 3733W        W19202  16.886  10.938   0.972 -0.2020 -0.0968 -0.1060
 3734W        W19203  17.313  17.388  15.814  0.1116  0.1869  0.1427
 3735W        W19204   4.085   4.604   1.796 -0.2286 -0.0036 -0.3136
 3736W        W19205   5.874  15.295   0.576  0.0049  0.1852  0.2571
 3737W        W19206  13.503  13.660  13.034 -0.1999 -0.2880 -0.1458
 3738W        W19207   7.742   6.762  15.674  0.1105 -0.1480  0.1494
 3739W        W19208  14.680  14.397   4.332 -0.1631  0.0146 -0.1749
 3740W        W19209  10.926   8.494   5.166 -0.1818 -0.4056  0.0865
 3741W        W19210   5.726  15.244  15.667 -0.3123  0.0632 -0.0196
 3742W        W19211   0.714   5.727  14.588 -0.4457  0.0612  0.0791
 3743W        W19212   9.531  16.203  13.824  0.0187 -0.3157  0.0040
 3744W        W19213   2.654   9.719   1.151  0.0279 -0.1759 -0.2948
 3745W        W19214  11.349  11.596   4.298  0.2002  0.2140 -0.4840
 3746W        W19215   6.673   3.517  14.760 -0.2287 -0.2726 -0.2403
 3747W        W19216   1.858  16.741   4.666  0.1869  0.3311 -0.0418
 3748W        W19217   9.520   5.487   1.875 -0.2070 -0.0736 -0.1664
 3749W        W19218   0.115   4.657  12.491 -0.1319  0.0628  0.0405
 3750W        W19219  17.675  17.672   0.132  0.1653  0.4400 -0.0772
 3751W        W19220   9.757   2.172   3.244 -0.1638  0.2747 -0.0236
 3752W        W19221  11.024   9.309   1.934 -0.1460  0.1858  0.0207
 3753W        W19222   9.359   4.614   3.271  0.1421 -0.1442 -0.1597
 3754W        W19223  11.972   6.398   0.458  0.2005 -0.1478 -0.2048
 3755W        W19224  13.226   9.191   4.109  0.0914  0.0997  0.0889
 3756W        W19225   8.230  11.631  11.124  0.2901 -0.0519  0.2727
 3757W        W19226  16.027   4.743   1.932  0.2462 -0.1667 -0.1917
 3758W        W19227  14.192   9.892  15.394  0.2278  0.0330 -0.0617
 3759W        W19228   2.014   4.628  15.997 -0.2255 -0.2366 -0.0331
 3760W        W19229  13.235   3.006   1.575  0.2162 -0.2739 -0.0241
 3761W        W19230   3.500   3.288  14.896 -0.1667  0.0992  0.1962
 3762W        W19231  15.070   4.687   1.680  0.0107 -0.0777  0.0486
 3763W        W19232   2.741  13.824   5.222  0.1922 -0.4612 -0.2077
 3764W        W19233   1.596  12.778  11.908  0.0670 -0.0542  0.2920
 3765W        W19234   5.708   4.702   0.497 -0.0562 -0.1993 -0.1263
 3766W        W19235   6.749  11.162  11.389  0.1322  0.0909 -0.1736
 3767W        W19236   7.287  15.548   3.513  0.3633 -0.0679  0.0868
 3768W        W19237  15.473  10.543  13.265  0.2362 -0.0495  0.1449
 3769W        W19238  11.064  13.893   2.434 -0.2567  0.0679 -0.0064
 3770W        W19239   4.028  12.757   2.582  0.2368 -0.1934  0.0878
 3771W        W19240  15.559  10.470  14.931 -0.0403 -0.0556 -0.0643
 3772W        W19241   3.794   4.314   0.857 -0.0493  0.2602 -0.1899
 3773W        W19242   6.637  14.724  14.305 -0.0627  0.1057  0.0049
 3774W        W19243   5.799   8.026   4.773  0.3340 -0.0200 -0.0024
 3775W        W19244  15.108  13.661   2.926  0.4165 -0.0402 -0.1734
 3776W        W19245  14.427  13.699  12.418  0.0313 -0.1750  0.2563
 3777W        W19246   6.513  16.004   0.253 -0.0402  0.0888  0.0440
 3778W        W19247  12.750   9.250   4.294 -0.0910  0.1168  0.0536
 3779W        W19248   3.730  16.361   0.177 -0.1144  0.0011 -0.4142
 3780W        W19249   0.868   3.933  15.159  0.1600  0.2261 -0.1277
 3781W        W19250  15.546   8.137   3.325  0.4210  0.0717  0.1666
 3782W        W19251   2.790  10.713   1.367 -0.1956  0.0438  0.0236
 3783W        W19252  12.914   8.014  13.253  0.1760  0.2238 -0.0940
 3784W        W19253  13.228   0.796   4.330 -0.2792  0.0489  0.0856
 3785W        W19254   7.315   2.715  12.457  0.0816  0.1555  0.0401
 3786W        W19255   3.885   0.091  15.169  0.2341 -0.0116 -0.0048
 3787W        W19256   7.729   6.987   3.221 -0.0606 -0.2507 -0.5546
 3788W        W19257  11.770  15.042   2.612 -0.0797  0.1576  0.0225
 3789W        W19258  15.595  16.436   2.879 -0.1527  0.1703 -0.3562
 3790W        W19259   4.050  18.379  12.351  0.1542  0.0818 -0.0075
 3791W        W19260  13.275   0.976   0.687  0.0865 -0.1922 -0.0896
 3792W        W19261  11.000   5.943   2.797  0.1524 -0.1582  0.2431
 3793W        W19262   1.281  12.323   3.792 -0.0813  0.0630  0.2197
 3794W        W19263   4.083   1.425  11.161 -0.1913  0.1511 -0.2381
 3795W        W19264   1.831   8.018   0.499 -0.0406  0.1191 -0.0072
 3796W        W19265   0.567  13.950  14.181  0.0678 -0.0217 -0.2359
 3797W        W19266   7.686   5.754  10.785 -0.0639 -0.1451 -0.0150
 3798W        W19267   0.307   7.811   0.517 -0.3121  0.1548 -0.3039
 3799W        W19268  15.677  17.516  15.172  0.1413 -0.0429 -0.3974
 3800W        W19269  12.789   8.797   4.054 -0.2960  0.0565 -0.2308
 3801W        W19270  13.454  16.781  12.689 -0.0637 -0.0897  0.0649
 3802W        W19271  13.269  14.977  10.885 -0.0984  0.0045 -0.2363
 3803W        W19272   3.210   0.682   0.022  0.1765  0.2446 -0.0880
 3804W        W19273   3.403   5.921  11.300  0.0198 -0.5150 -0.1059
 3805W        W19274  12.038   2.841   4.364  0.1581  0.0123  0.0982
 3806W        W19275   7.794   8.613   4.684 -0.0733  0.1430 -0.2614
 3807W        W19276  17.406   6.626   3.266  0.2176  0.0763 -0.0763
 3808W        W19277  10.017   7.079   2.401  0.2073  0.0292  0.0396
 3809W        W19278   3.304   6.846   0.475  0.0207 -0.0130  0.2742
 3810W        W19279  11.297   6.662  13.684 -0.0823 -0.2819  0.2860
 3811W        W19280   8.415   3.092   5.411 -0.0263  0.2223 -0.0928
 3812W        W19281   2.818   2.665   1.711 -0.1194 -0.1050  0.0268
 3813W        W19282  16.474   5.483   3.230 -0.0544 -0.2634  0.1514
 3814W        W19283   1.751  14.287  13.907 -0.0881 -0.2996  0.0473
 3815W        W19284   2.978  11.405  15.507 -0.1636 -0.1844 -0.0312
 3816W        W19285   0.396   1.216  15.876  0.0805  0.1245  0.3986
 3817W        W19286   9.316   1.931  15.867  0.0706  0.1569  0.3517
 3818W        W19287   4.995   8.638   2.047  0.0876 -0.1029 -0.3310
 3819W        W19288   9.907  14.781   4.430  0.2257 -0.0319 -0.0740
 3820W        W19289   5.895  17.155   0.780  0.0823 -0.1866  0.2868
 3821W        W19290  14.317   7.270  14.919 -0.1750 -0.2318  0.1517
 3822W        W19291  14.587  15.456   5.265 -0.1449  0.1025  0.0017
 3823W        W19292   3.853   7.453   4.456  0.1749 -0.1472 -0.1553
 3824W        W19293   3.548  17.978  11.105 -0.4359  0.1182 -0.2145
 3825W        W19294  17.407  10.692  11.986 -0.0371  0.0058 -0.0420
 3826W        W19295   6.416  11.570   2.062 -0.1637 -0.1293  0.3372
 3827W        W19296   4.675   2.470  10.313 -0.0042 -0.3209 -0.1702
 3828W        W19297   9.236  16.922   3.988 -0.0816  0.3095  0.1360
 3829W        W19298   6.087  12.859   2.017 -0.1836  0.2351 -0.0741
 3830W        W19299   1.083   8.746  11.888 -0.3569 -0.3875 -0.1752
 3831W        W19300  17.696  17.686   1.152  0.0874 -0.2097 -0.1664
 3832W        W19301  12.187  13.920  14.987 -0.2047  0.0748  0.1946
 3833W        W19302  11.382   9.508   3.139 -0.1097  0.0722 -0.2327
 3834W        W19303   7.025   2.113   0.234  0.3566 -0.0193 -0.0675
 3835W        W19304   5.239   7.595  14.360 -0.1111  0.1774  0.0167
 3836W        W19305   3.895   3.675  14.929 -0.0970  0.0159 -0.1146
 3837W        W19306   2.114   7.116   5.147  0.3183  0.0253  0.3513
 3838W        W19307   0.977   8.740   2.704  0.0987  0.0465 -0.2280
 3839W        W19308  15.336  15.965  13.906 -0.0944 -0.0013 -0.0411
 3840W        W19309  15.837   0.827   2.194  0.0399 -0.2597 -0.2506
 3841W        W19310  18.125  12.691  12.702  0.0956 -0.5233  0.2394
 3842W        W19311  17.015   0.812  13.605 -0.1160  0.0318 -0.0603
 3843W        W19312   1.077   0.914  15.045  0.0447 -0.4490  0.0072
 3844W        W19313  13.517   0.545   4.682  0.0951 -0.1219  0.0323
 3845W        W19314  17.809   7.685   0.810 -0.1918  0.1903  0.1629
 3846W        W19315  12.289   3.120   0.188  0.1190  0.0562 -0.0522
 3847W        W19316   6.496  13.683   9.914  0.1118  0.0163  0.0418
 3848W        W19317   9.722   9.744   4.576 -0.1109  0.2774 -0.1426
 3849W        W19318  13.418   9.255   5.000 -0.1550 -0.0617  0.2573
 3850W        W19319   6.758  13.705  13.179  0.3139 -0.1262 -0.1275
 3851W        W19320  11.748   2.996   5.198 -0.1782 -0.1737 -0.0966
 3852W        W19321   0.788   2.655   0.520 -0.0661 -0.1135 -0.1526
 3853W        W19322  16.237  14.425   3.479  0.0806 -0.0687  0.1341
 3854W        W19323   2.354   0.525  10.584 -0.0699  0.1293 -0.1002
 3855W        W19324  11.077   9.963  15.790 -0.3316  0.1251 -0.1165
 3856W        W19325   4.132   1.697  11.623 -0.0970  0.3203 -0.0545
 3857W        W19326   5.537   8.742   3.019 -0.0303  0.1594  0.2025
 3858W        W19327  17.442  16.960  11.617 -0.0129  0.0777 -0.3498
 3859W        W19328  10.242   0.946   4.665  0.2914 -0.0833 -0.2047
 3860W        W19329  12.195  14.262  14.210 -0.4005  0.3059  0.1896
 3861W        W19330   9.857  10.880  11.015 -0.2655 -0.0339 -0.1057
 3862W        W19331   8.068  17.612  15.165 -0.0816 -0.3135  0.3474
 3863W        W19332   3.387  15.937   4.051 -0.1773 -0.0097  0.1104
 3864W        W19333  12.510  16.288   1.142  0.2753 -0.0639 -0.3159
 3865W        W19334  14.085   8.166   1.866  0.1358  0.0422  0.2236
 3866W        W19335  18.254  12.597   1.034 -0.0536  0.1628  0.1920
 3867W        W19336  13.048   0.548  10.222  0.2080 -0.0610 -0.0854
 3868W        W19337  17.408  13.501   4.851  0.1886  0.2392  0.1934
 3869W        W19338  17.430   0.789  13.930 -0.0057  0.1553  0.1731
 3870W        W19339   9.309  11.204  15.915  0.1348 -0.0009  0.0041
 3871W        W19340  12.874   3.069   5.290  0.1574 -0.0561  0.0233
 3872W        W19341   4.515   0.643  12.188 -0.1114  0.4644  0.0327
 3873W        W19342   7.991  12.458   0.283 -0.0861  0.0092  0.1691
 3874W        W19343  17.350   6.719   4.715  0.1587 -0.2296 -0.0891
 3875W        W19344   5.233  16.182  10.870  0.1313  0.0911  0.0694
 3876W        W19345   7.354  15.391  12.206 -0.0607  0.0337  0.0267
 3877W        W19346  13.064  18.148   4.287  0.1167  0.0994  0.0688
 3878W        W19347   5.958  12.368  15.689  0.1424 -0.3739  0.2284
 3879W        W19348  15.765  17.578   0.457 -0.1392 -0.2210 -0.0910
 3880W        W19349   8.875  14.991  15.433 -0.0743 -0.1605 -0.1125
 3881W        W19350   4.438   6.245   2.411 -0.1119 -0.0524  0.0079
 3882W        W19351   1.684  16.470   1.784  0.0448 -0.1147  0.1463
 3883W        W19352  11.563  15.910  11.403  0.2225  0.0785 -0.2223
 3884W        W19353  17.423   9.160  14.997  0.1026  0.0321 -0.2097
 3885W        W19354   0.764  16.113  10.812  0.1961 -0.1225  0.1468
 3886W        W19355   5.762  10.282   0.583 -0.1082 -0.4234  0.0945
 3887W        W19356  14.944   9.360  14.373 -0.0581  0.1519 -0.2082
 3888W        W19357  13.104  11.831  14.935 -0.2298  0.1283  0.3290
 3889W        W19358   3.240  15.403  13.603 -0.0669  0.1125  0.2087
 3890W        W19359  12.179   4.402   4.243 -0.1245  0.1105  0.1230
 3891W        W19360  11.974  14.370  12.194  0.1540  0.0728 -0.1922
 3892W        W19361  12.540   0.198   3.282 -0.1732 -0.1141 -0.0704
 3893W        W19362  15.983   2.280   4.668  0.4550 -0.0037  0.2775
 3894W        W19363   1.786   9.070   2.442  0.1913 -0.1180 -0.0436
 3895W        W19364   7.153  17.142  12.546  0.0921  0.2243 -0.0270
 3896W        W19365   5.540  17.127  15.872 -0.3110  0.1863  0.0097
 3897W        W19366   1.880  17.235   0.702  0.1158  0.1411 -0.3121
 3898W        W19367   0.656   5.402   3.914 -0.0342 -0.0970 -0.1608
 3899W        W19368   1.590   1.443  12.417  0.0327 -0.2376  0.1744
 3900W        W19369   1.726  13.013   5.346 -0.2249  0.0653 -0.0838
 3901W        W19370  12.532  13.909   1.568  0.1560  0.1532 -0.1898
 3902W        W19371  10.999  15.063  14.348 -0.0150 -0.2703  0.0259
 3903W        W19372   7.643   6.657   3.577 -0.2017 -0.0552  0.1042
 3904W        W19373  16.759  11.222  15.822  0.1392 -0.2013 -0.1592
 3905W        W19374   6.808   7.669  15.030  0.1495 -0.0406 -0.0338
 3906W        W19375  16.554   3.184  15.850  0.2154 -0.1237 -0.0738
 3907W        W19376  13.910  17.231   1.979  0.0049 -0.0824 -0.2088
 3908W        W19377  14.860   1.167   3.232 -0.0601 -0.2263  0.1032
 3909W        W19378  18.137   6.737   4.932 -0.2019 -0.0829 -0.0245
 3910W        W19379   8.366  18.069   4.421 -0.2967 -0.1447 -0.1396
 3911W        W19380   5.218   3.692   6.400  0.1719 -0.0848  0.5022
 3912W        W19381   6.583  10.758  11.672 -0.0359 -0.0300  0.0196
 3913W        W19382  10.308  13.118   1.732 -0.4447  0.1486  0.1628
 3914W        W19383   3.234  14.089   0.167 -0.1379 -0.1195 -0.1386
 3915W        W19384   3.947  15.764  13.529  0.1246 -0.3105 -0.1354
 3916W        W19385   1.792  12.449   3.766  0.2867 -0.1131 -0.0366
 3917W        W19386  12.523   5.384  15.625  0.0285  0.0651 -0.1996
 3918W        W19387  17.481   5.727   0.670  0.0242  0.1725 -0.1575
 3919W        W19388   3.463   9.934   0.997  0.0159  0.0231 -0.1512
 3920W        W19389   1.143   7.223   5.733  0.1575  0.0663  0.0471
 3921W        W19390   9.248  16.875   9.650 -0.1658 -0.0415 -0.0352
 3922W        W19391  13.820   4.345   0.179  0.0425 -0.7162  0.2037
 3923W        W19392   2.725   4.287   2.700  0.0824 -0.0266  0.0729
 3924W        W19393   2.498  10.071  12.786  0.0967  0.1232 -0.0893
 3925W        W19394  16.478   9.722  11.200 -0.0268 -0.0250 -0.4439
 3926W        W19395  14.684  10.861  11.859  0.1676  0.0379  0.0735
 3927W        W19396  11.705   6.612   5.078  0.1418  0.0441  0.0924
 3928W        W19397  17.580  11.704   3.880  0.2979  0.2826 -0.0573
 3929W        W19398  17.305  13.017   4.707 -0.0849 -0.0957 -0.1190
 3930W        W19399  11.793   9.386  12.065  0.1072  0.2809  0.3527
 3931W        W19400  13.723   8.718   2.420 -0.1687 -0.0314 -0.0061
 3932W        W19401   4.324  17.511   4.473 -0.0726  0.0931 -0.0835
 3933W        W19402  13.495  16.517   3.711 -0.2476 -0.0839 -0.1119
 3934W        W19403  10.098  14.737   0.564 -0.0497  0.0913 -0.2772
 3935W        W19404   1.274  17.646  11.044 -0.2077  0.3063  0.4444
 3936W        W19405   6.587  11.626  11.145 -0.0300  0.0161 -0.4537
 3937W        W19406  12.962   1.102  15.789 -0.0271 -0.0442 -0.0250
 3938W        W19407   5.510   1.172   1.219  0.0359  0.2052 -0.0962
 3939W        W19408   5.950   4.250  12.260 -0.0432 -0.1748 -0.0327
 3940W        W19409  18.209   7.558   2.287  0.0924 -0.2846 -0.2251
 3941W        W19410   8.669   0.128  12.020  0.1390 -0.1573 -0.1715
 3942W        W19411   6.375  18.270  14.756  0.0478 -0.2550 -0.1878
 3943W        W19412   4.028  11.228   5.507 -0.1671 -0.1645 -0.0018
 3944W        W19413   0.138  14.293  15.156  0.3366  0.1517 -0.3899
 3945W        W19414  12.035   3.839  13.637  0.0272 -0.2301  0.0698
 3946W        W19415  18.057   3.814  13.987 -0.2073 -0.0755 -0.2036
 3947W        W19416  18.254  11.278  15.710 -0.0563  0.1807  0.3488
 3948W        W19417   7.713   3.718  15.644  0.0373  0.0931  0.1162
 3949W        W19418   0.977  17.257  14.118 -0.0392 -0.0478  0.3142
 3950W        W19419   5.914   6.697   2.179 -0.0256  0.1906  0.4691
 3951W        W19420  10.196  17.441  15.558 -0.2414 -0.1653 -0.2222
 3952W        W19421  11.690  12.772   2.834 -0.0713  0.2386  0.1830
 3953W        W19422   2.400  12.994   4.865  0.1689 -0.1034 -0.5281
 3954W        W19423  17.415   9.531   2.354 -0.1568 -0.2483  0.0801
 3955W        W19424   2.255   9.753   5.324 -0.0350  0.4850 -0.0996
 3956W        W19425   4.585   1.328  11.100 -0.1215  0.1513 -0.4238
 3957W        W19426  16.158   1.353  15.263 -0.1238  0.1060  0.3015
 3958W        W19427  14.377   1.144  12.515 -0.0244  0.1807  0.0548
 3959W        W19428  12.477   5.354   2.341  0.1209 -0.1364  0.1185
 3960W        W19429  15.475  13.580  15.156 -0.2357  0.3788  0.0746
 3961W        W19430  16.712   7.050   2.792 -0.1846  0.2624 -0.3147
 3962W        W19431  11.109   1.108  12.089  0.1049 -0.0708  0.0103
 3963W        W19432  15.191  14.301  11.671  0.0554  0.0205  0.0705
 3964W        W19433  10.560  15.010   2.045 -0.3716  0.6076 -0.0485
 3965W        W19434   5.092  13.648  14.582  0.3733 -0.2066 -0.2149
 3966W        W19435  15.469  17.127   2.582  0.0922  0.2027 -0.1861
 3967W        W19436   8.606  12.392  11.801  0.1040  0.0961  0.0875
 3968W        W19437   2.802   8.752   4.790 -0.0653 -0.2934 -0.1683
 3969W        W19438   6.827   7.487   2.351  0.2105 -0.0990  0.5390
 3970W        W19439  10.549   4.067  10.409 -0.0248  0.0168 -0.1411
 3971W        W19440   6.926   5.120   5.262  0.3569  0.0388  0.1060
 3972W        W19441   3.944   5.900   2.118 -0.2010 -0.2631  0.1703
 3973W        W19442  17.795  17.225  15.870 -0.3163  0.0584  0.3147
 3974W        W19443   4.102  11.496   1.396 -0.2475  0.3027 -0.3596
 3975W        W19444   7.182   3.615  13.764  0.2416  0.1416 -0.0543
 3976W        W19445  13.237   7.084   1.643 -0.1216 -0.0139 -0.3294
 3977W        W19446   3.003   8.909   1.188 -0.2529  0.1203  0.0414
 3978W        W19447   6.438  18.334   0.181  0.1471 -0.0944 -0.0369
 3979W        W19448   3.749  17.782   0.949 -0.1114  0.0112  0.2686
 3980W        W19449   1.256  12.982  10.945 -0.2368  0.3175  0.2687
 3981W        W19450   6.034   5.476   4.449  0.0121  0.1317 -0.0492
 3982W        W19451   5.271   8.726  15.364 -0.1540 -0.0159  0.0218
 3983W        W19452  10.348  15.215  15.883  0.1116 -0.2395 -0.2209
 3984W        W19453   8.282  12.501   2.444 -0.2155 -0.1257 -0.0878
 3985W        W19454  12.646  17.720   0.439  0.1127 -0.0723 -0.0676
 3986W        W19455  15.070   2.865   0.785  0.0084  0.1211  0.2151
 3987W        W19456  18.153   6.557   4.417 -0.0980  0.0508  0.2120
 3988W        W19457  15.718  12.420   4.027 -0.0397  0.1767 -0.3176
 3989W        W19458   0.194   6.382   4.455 -0.1541  0.1515  0.3190
 3990W        W19459   0.694  13.263   4.553  0.0057  0.0451  0.1758
 3991W        W19460   7.889   3.103  14.644 -0.0580  0.2932 -0.0737
 3992W        W19461  13.130   5.059  12.949 -0.1460 -0.1166 -0.5947
 3993W        W19462   1.937   6.701  13.407  0.1395 -0.4683  0.0135
 3994W        W19463   1.039  14.569   1.968  0.0033 -0.1758  0.1861
 3995W        W19464  12.164  11.958   5.197  0.3246 -0.0359 -0.2498
 3996W        W19465   9.368  17.346  12.664 -0.0195 -0.1180  0.4073
 3997W        W19466  13.898   6.367   0.917  0.1343 -0.2401 -0.1687
 3998W        W19467   9.491   4.692  16.029 -0.0466  0.1335 -0.1186
 3999W        W19468  11.358   5.580   0.187  0.3879 -0.4763  0.0819
 4000W        W19469  17.667  17.013  12.080  0.2282 -0.2413 -0.1153
 4001W        W19470  11.704   4.717  12.819 -0.3661 -0.1052  0.2390
 4002W        W19471   6.058   4.783   2.854  0.2914  0.0814 -0.3877
 4003W        W19472   2.004  15.257   0.578  0.0492  0.0603 -0.2295
 4004W        W19473  13.017   5.783   4.841 -0.2286 -0.2064  0.0692
 4005W        W19474   2.221  16.381   1.502 -0.0715  0.1243 -0.1421
 4006W        W19475   2.764  10.256   4.303 -0.1076 -0.2343  0.0391
 4007W        W19476   9.995   4.075   5.725 -0.3452 -0.2720  0.2993
 4008W        W19477  18.273   2.787  12.625 -0.2678  0.0350  0.3320
 4009W        W19478   3.357  14.016   3.643 -0.2088 -0.1203 -0.1538
 4010W        W19479  11.889  12.228  15.687 -0.5854  0.2854 -0.0707
 4011W        W19480  11.414  13.588   0.527  0.0249 -0.1356  0.1043
 4012W        W19481  10.550   3.542  14.734  0.0954  0.0135  0.1405
 4013W        W19482   7.312   5.420  13.291 -0.0912  0.0251 -0.0933
 4014W        W19483   5.500   6.835   0.102 -0.1567 -0.0198  0.1625
 4015W        W19484   4.773   9.077   2.026  0.1990 -0.1811 -0.0579
 4016W        W19485   3.795   7.482  15.942 -0.2483  0.3369 -0.0535
 4017W        W19486   7.355  17.564   4.744 -0.0127  0.0681 -0.0405
 4018W        W19487   4.392   6.780   4.438  0.0586 -0.0001  0.0907
 4019W        W19488  12.627  11.420   4.747  0.0515 -0.2311 -0.2814
 4020W        W19489  10.325  13.787  13.723 -0.1719 -0.0324  0.0629
 4021W        W19490  15.976   3.418  14.945  0.2232  0.3896 -0.2018
 4022W        W19491   2.067   9.858  13.713  0.0863 -0.1802 -0.0808
 4023W        W19492   0.232   0.597  12.353 -0.1756 -0.5431  0.1141
 4024W        W19493   1.731  11.935   0.919  0.0584 -0.2581  0.2759
 4025W        W19494  16.490  12.018  12.103  0.1389 -0.0557  0.1218
 4026W        W19495  13.483  12.646   2.080 -0.3815 -0.0360  0.3659
 4027W        W19496  14.742  18.318   3.027  0.0997  0.2936 -0.0417
 4028W        W19497   5.086  14.985  13.723 -0.0680  0.0839 -0.0388
 4029W        W19498   1.159   8.435  11.051  0.2205  0.1162  0.2118
 4030W        W19499  13.079   7.694   2.657  0.0317 -0.1868 -0.1464
 4031W        W19500   2.592  11.849   3.961 -0.1800  0.2626  0.0087
 4032W        W19501  10.667   4.915  13.576 -0.0711 -0.0702 -0.3911
 4033W        W19502   9.575  14.145  13.658  0.1719 -0.0539  0.1193
 4034W        W19503  17.667   0.156   4.714 -0.1252  0.1996 -0.1877
 4035W        W19504   9.475   2.971   4.029  0.1751 -0.5757 -0.1266
 4036W        W19505   5.995   8.818  11.245 -0.0609 -0.1225 -0.1177
 4037W        W19506  11.400   6.669   4.116 -0.1621 -0.0596  0.2552
 4038W        W19507  12.293  16.703  12.188 -0.1336 -0.1842  0.1001
 4039W        W19508   3.315  15.103  10.967  0.0495  0.1550 -0.1975
 4040W        W19509   9.347  11.498   3.914  0.2900 -0.0438 -0.1563
 4041W        W19510   9.888  14.037  15.513 -0.4949 -0.0344  0.1979
 4042W        W19511   6.260   7.405  10.022 -0.2611 -0.1241 -0.0518
 4043W        W19512   3.321   0.545  13.470  0.1724 -0.1721 -0.0309
 4044W        W19513   3.717  14.435   0.949  0.1955 -0.1350 -0.1328
 4045W        W19514   7.729   8.753   3.827 -0.0040 -0.2486 -0.2900
 4046W        W19515  14.753  16.874   4.728  0.1818  0.0837 -0.2192
 4047W        W19516   0.322  14.016   2.779  0.0966 -0.0207  0.1255
 4048W        W19517  15.380   7.200   4.693  0.0860  0.2263 -0.1544
 4049W        W19518   4.272  12.465  12.915 -0.2167 -0.0249 -0.1808
 4050W        W19519   5.156  11.148   1.165  0.1389  0.1656  0.1981
 4051W        W19520   4.170  13.508   1.082  0.0724  0.3355 -0.0602
 4052W        W19521  10.650   5.110  11.927  0.1053  0.1505  0.0661
 4053W        W19522   0.028   1.164   4.902  0.1354 -0.0229  0.0538
 4054W        W19523   5.195  17.432   0.073 -0.0251 -0.3518 -0.0076
 4055W        W19524  16.707   8.215   3.915 -0.1911  0.2407  0.1919
 4056W        W19525   2.753  18.197  11.482 -0.1197  0.2856 -0.0142
 4057W        W19526  15.274  11.322  15.132 -0.5897  0.1689  0.0008
 4058W        W19527  12.771  13.244  12.124 -0.1071 -0.0243  0.3116
 4059W        W19528  11.584  12.432  11.924 -0.3113 -0.0990  0.3690
 4060W        W19529   7.850   7.196  15.442  0.1778  0.2737  0.2249
 4061W        W19530   0.631   2.514   3.437 -0.3099  0.3300  0.0323
 4062W        W19531   3.549  10.983  13.015 -0.1174 -0.0457 -0.0690
 4063W        W19532  18.386   9.036  13.019 -0.2939  0.0768  0.1690
 4064W        W19533   6.039  13.300   3.067  0.0566 -0.1720 -0.3673
 4065W        W19534   5.715  14.256  14.137 -0.1757  0.1183  0.1002
 4066W        W19535   4.343  12.623  10.914 -0.2800 -0.1429 -0.0212
 4067W        W19536  15.660  14.515   4.883 -0.0539 -0.2252  0.0284
 4068W        W19537  17.845  15.894  15.501  0.2337  0.0524 -0.1188
 4069W        W19538   5.502   3.458  11.354  0.1799 -0.0962  0.2349
 4070W        W19539   9.578   7.970   0.293  0.1997  0.1017  0.2361
 4071W        W19540  18.449   2.165  11.540 -0.1185 -0.2930  0.2305
 4072W        W19541   2.841   3.414  14.469 -0.0859  0.0847 -0.0535
 4073W        W19542  10.462   1.883   0.411 -0.1526  0.4341 -0.0305
 4074W        W19543   3.029   8.719  14.560 -0.0277 -0.0144 -0.0992
 4075W        W19544  17.046  14.608  14.385  0.0203 -0.0055 -0.0658
 4076W        W19545  17.282   3.153   2.380  0.2365 -0.0582  0.0811
 4077W        W19546   2.028  13.404   3.662 -0.0555 -0.2319 -0.1858
 4078W        W19547  15.701   2.541   5.781 -0.0256  0.3633 -0.0113
 4079W        W19548  15.352  10.229  12.270  0.1679  0.0018  0.0140
 4080W        W19549  17.656   9.999  15.595  0.3623 -0.0309  0.0188
 4081W        W19550   4.300  11.690   0.517  0.0536  0.4185 -0.1348
 4082W        W19551   9.374   9.469   1.271 -0.2333 -0.1146  0.0903
 4083W        W19552   2.869   8.130   5.124 -0.1629  0.1177 -0.1063
 4084W        W19553   9.568  13.811   2.270 -0.0270  0.3330 -0.1139
 4085W        W19554  18.068  14.760  13.179  0.0922 -0.0186 -0.0665
 4086W        W19555   6.585  15.216   1.856 -0.0726  0.2914 -0.2071
 4087W        W19556  17.959   3.125   2.083  0.1016  0.2895 -0.1971
 4088W        W19557  18.370  10.935   5.481  0.2487  0.1842 -0.4175
 4089W        W19558   3.156   3.468   3.711  0.0779 -0.1431  0.2667
 4090W        W19559  15.140   0.197  11.123  0.1655  0.0310  0.0873
 4091W        W19560  16.621   1.496  15.372 -0.2794 -0.0835 -0.2034
 4092W        W19561   7.718   3.830   0.396 -0.0742 -0.1633  0.0732
 4093W        W19562   0.170  13.726   4.000 -0.0993 -0.0574 -0.1597
 4094W        W19563   1.404   6.901   3.186 -0.0163  0.1153  0.2198
 4095W        W19564  16.219   2.599   4.257  0.2167  0.1232  0.1112
 4096W        W19565  15.738   5.874  14.627  0.2149  0.0525  0.4194
 4097W        W19566  11.482  12.211  15.478 -0.3764 -0.1019 -0.0062
 4098W        W19567  11.757   5.776  13.228 -0.0202  0.0920 -0.0382
 4099W        W19568  15.285  11.308   2.240 -0.2512 -0.0463  0.0554
 4100W        W19569   1.497   9.145   0.734 -0.2039  0.0372 -0.0971
 4101W        W19570   7.194   7.176   4.090 -0.0045 -0.1785 -0.3175
 4102W        W19571   5.892   2.690   0.699 -0.3608  0.4326 -0.1067
 4103W        W19572  15.765   4.729   2.459  0.2597  0.2182  0.0486
 4104W        W19573   2.680  17.730  11.596 -0.2344 -0.0244  0.1659
 4105W        W19574  13.739   2.723   1.126 -0.1047  0.1157 -0.1793
 4106W        W19575   1.894  12.597  12.624  0.0372 -0.2562  0.1150
 4107W        W19576   4.688   1.324   2.245 -0.0040  0.0546  0.2361
 4108W        W19577   5.181   8.928   5.320 -0.2614 -0.0399  0.1658
 4109W        W19578   5.750  17.504   4.028  0.1612  0.0014  0.3221
 4110W        W19579   7.861  13.029   2.875 -0.0186 -0.1356  0.2303
 4111W        W19580  17.815  11.169  12.327  0.1159 -0.1541  0.1406
 4112W        W19581  10.057   7.273  11.783 -0.2841  0.3989 -0.2878
 4113W        W19582   8.944   4.902   1.415  0.0283  0.2020  0.0007
 4114W        W19583   5.283   6.724   1.441  0.0001 -0.1845 -0.1157
 4115W        W19584   6.975   6.990   1.320 -0.4000 -0.2054 -0.1256
 4116W        W19585   6.848   8.456  13.823 -0.2832 -0.3070  0.1532
 4117W        W19586   4.611  10.582   4.449  0.0423 -0.0310 -0.0001
 4118W        W19587   1.088   7.035   5.238 -0.0232 -0.0787  0.3033
 4119W        W19588  11.926   1.438  14.325  0.0971  0.0473 -0.2211
 4120W        W19589  17.424  14.628  12.119 -0.0326 -0.1240  0.0385
 4121W        W19590  14.493  11.936  15.998 -0.1536  0.0788  0.2212
 4122W        W19591   3.649  11.386   4.648  0.0249 -0.0982  0.3560
 4123W        W19592  14.703  11.321   2.293  0.1416 -0.0163 -0.0710
 4124W        W19593  14.464  11.875  11.559 -0.1627 -0.1262  0.3423
 4125W        W19594  14.401  12.780  15.021 -0.0582 -0.1232 -0.1649
 4126W        W19595  14.730   9.429  10.441 -0.0847  0.0558  0.0104
 4127W        W19596  17.406  17.127  15.400 -0.1545  0.1049 -0.0588
 4128W        W19597   6.827  10.147   4.187  0.2378  0.0654  0.0141
 4129W        W19598   9.315   2.051  13.131  0.1021 -0.4161 -0.3165
 4130W        W19599   7.025  13.217   5.234  0.2316  0.1303 -0.0534
 4131W        W19600   4.940   3.168   4.063  0.0395 -0.0225  0.0178
 4132W        W19601   7.606  11.051   5.267 -0.0564 -0.0226  0.2917
 4133W        W19602  16.636  12.368   1.544  0.0342 -0.2566 -0.1081
 4134W        W19603  12.164  14.347  10.933 -0.3417 -0.0597  0.0126
 4135W        W19604   8.416   7.986  11.053 -0.0119  0.0403  0.2196
 4136W        W19605  15.996  10.741  15.767 -0.2289 -0.0879 -0.1036
 4137W        W19606  16.695  15.833   0.434  0.3749 -0.0938  0.1670
 4138W        W19607  11.238  13.183  14.459 -0.2386  0.2872  0.1046
 4139W        W19608  10.183   4.286   0.946 -0.0713  0.1594 -0.0773
 4140W        W19609  10.319   0.146  13.443  0.2504  0.1942  0.1464
 4141W        W19610   8.025  11.200  12.726  0.1607 -0.2530  0.3867
 4142W        W19611   3.565   4.398   2.903  0.4623 -0.2043  0.0677
 4143W        W19612  11.086   5.062  10.673  0.2770  0.2236  0.0641
 4144W        W19613   3.100   0.476  11.716 -0.2295 -0.1078  0.0588
 4145W        W19614   0.306  16.921   4.129 -0.1234  0.1025 -0.1852
 4146W        W19615  15.793   9.073   3.164 -0.0449  0.1749 -0.2680
 4147W        W19616   2.524  12.053  12.148  0.2184  0.0612 -0.1140
 4148W        W19617  18.362   7.027   2.568 -0.1235 -0.1400  0.1852
 4149W        W19618  15.444   5.380  15.943 -0.0615  0.1152  0.0352
 4150W        W19619  10.340   5.314   5.193 -0.3126 -0.2226  0.1150
 4151W        W19620   5.974   7.205   5.070 -0.0602  0.3546 -0.1467
 4152W        W19621   9.810   4.426  14.216 -0.2480 -0.0123  0.0079
 4153W        W19622  17.163  11.402  16.013  0.2245  0.2939 -0.0728
 4154W        W19623   2.566   5.244  13.554  0.5635 -0.0103 -0.2021
 4155W        W19624   3.240   0.561  12.609  0.0923  0.3170  0.0089
 4156W        W19625  16.238   3.295   0.992  0.1425  0.0811  0.0396
 4157W        W19626   7.278   8.452  13.004 -0.1590  0.0747 -0.0363
 4158W        W19627   4.969  14.609  13.979 -0.4912 -0.1533 -0.0115
 4159W        W19628  13.131  15.481   0.908 -0.0116  0.0388 -0.1095
 4160W        W19629  14.085  12.715  12.709  0.3942  0.1043 -0.2750
 4161W        W19630  12.121   4.793   1.918 -0.0838  0.0348 -0.1615
 4162W        W19631   2.651  12.402  13.461  0.1407  0.2024 -0.0520
 4163W        W19632  14.376  10.096  11.534  0.3702  0.1975 -0.0836
 4164W        W19633  10.895  17.095  14.982  0.0087 -0.2188 -0.1807
 4165W        W19634  11.380  12.432  15.991  0.0121 -0.0807  0.0332
 4166W        W19635  10.289  10.213   3.458  0.0362 -0.4053  0.1721
 4167W        W19636  14.951   4.307   1.375 -0.1002  0.0041  0.0584
 4168W        W19637   1.923   2.782  13.394  0.1861  0.0270 -0.2688
 4169W        W19638  15.581   5.945  11.428 -0.3602  0.1322  0.0862
 4170W        W19639  12.235   8.288  13.933  0.0740  0.0419  0.2224
 4171W        W19640   5.963   1.196  11.347 -0.0968  0.0350 -0.0575
 4172W        W19641  10.097   9.763   3.170  0.0306  0.3246 -0.1386
 4173W        W19642  16.017   6.231   0.887  0.1219  0.1273  0.0212
 4174W        W19643  18.271   6.961   0.216 -0.3534 -0.1241 -0.0033
 4175W        W19644  17.114   9.627  15.732 -0.3298  0.1795 -0.1376
 4176W        W19645   8.339   5.447   5.005 -0.1010  0.1965  0.1404
 4177W        W19646  15.096   7.669   5.269  0.1151 -0.1262  0.0052
 4178W        W19647  12.899   8.350   2.061 -0.0024 -0.2936 -0.3066
 4179W        W19648   6.955  13.477  15.783  0.0775 -0.0240  0.1632
 4180W        W19649   9.401   9.527  12.667  0.2810 -0.2070 -0.0665
 4181W        W19650   0.246   9.685   4.514 -0.2592  0.1842 -0.0503
 4182W        W19651  13.437  16.558   2.980 -0.2407  0.0258  0.0297
 4183W        W19652   9.667   6.754   0.615  0.1657  0.1790 -0.2232
 4184W        W19653  12.398  18.398   5.075 -0.0768  0.0678 -0.2451
 4185W        W19654  11.666   4.520   4.748  0.1556  0.0163  0.1417
 4186W        W19655  11.583   8.600  13.819  0.1089  0.0573 -0.1391
 4187W        W19656  10.275   2.862  15.679  0.2230  0.0199  0.1255
 4188W        W19657  14.154   0.048  13.530 -0.0479  0.0069  0.3199
 4189W        W19658   6.798  18.379   3.963  0.3022 -0.2364 -0.3044
 4190W        W19659   2.232  11.686  14.095  0.0063  0.1654  0.1025
 4191W        W19660  10.764  17.788   2.977  0.1496  0.0888 -0.1579
 4192W        W19661   4.546  15.492   1.430 -0.0254  0.2385  0.0195
 4193W        W19662   0.874   6.162  13.323 -0.2190 -0.2818 -0.1928
 4194W        W19663   3.935   9.954   2.590  0.1046 -0.2694  0.1918
 4195W        W19664  15.371  15.306  14.054  0.0199  0.1380  0.2401
 4196W        W19665   3.165  11.435  14.270 -0.1444 -0.0350 -0.1137
 4197W        W19666  15.949  15.031  14.595 -0.2705 -0.1614  0.1562
 4198W        W19667   1.375  14.140  12.874  0.1120 -0.0346 -0.0922
 4199W        W19668  14.406   9.267  11.982 -0.0455 -0.3562  0.1204
 4200W        W19669   3.087   7.600  10.686 -0.2471 -0.0265  0.2670
 4201W        W19670  11.236  16.984  15.701  0.4147 -0.1633 -0.0815
 4202W        W19671  15.318   4.935  11.608 -0.0263 -0.0020 -0.2758
 4203W        W19672  16.761   0.413  12.369  0.2751 -0.0608  0.1949
 4204W        W19673  17.982  16.038  11.025  0.1575 -0.2064  0.2623
 4205W        W19674   3.219   5.118  11.281 -0.1456  0.1931 -0.4409
 4206W        W19675   7.515  11.532  15.719 -0.2150 -0.1110 -0.1282
 4207W        W19676   4.741   1.870   3.771 -0.3999 -0.0128 -0.0694
 4208W        W19677  15.753  10.002  15.178 -0.0909 -0.2154  0.0072
 4209W        W19678   3.392   5.313   5.678  0.1010  0.3107 -0.2500
 4210W        W19679  15.528  14.324  13.168  0.1373 -0.1662  0.0395
 4211W        W19680   0.355   4.540  14.684  0.0765 -0.2423 -0.0657
 4212W        W19681   4.992   4.884  11.412 -0.2030 -0.0423 -0.2080
 4213W        W19682  11.660  16.664  13.027 -0.0878 -0.1921 -0.2382
 4214W        W19683   8.537   1.543  13.902  0.0023 -0.3752  0.1542
 4215W        W19684  15.208  18.040   5.420  0.3661 -0.1274 -0.1414
 4216W        W19685  17.127   8.354   0.296  0.2291 -0.1920  0.1117
 4217W        W19686   8.510   5.924  14.928  0.3950  0.0257 -0.0966
 4218W        W19687  10.614  10.539   0.278 -0.2407 -0.2607  0.0603
 4219W        W19688  10.241  16.173  14.621  0.0929 -0.1288  0.1323
 4220W        W19689  16.812  16.667  12.362  0.1763 -0.2160 -0.0858
 4221W        W19690   2.238   4.597   3.377 -0.1415  0.3036  0.2143
 4222W        W19691   9.888   4.677   3.273  0.1622  0.1065 -0.2807
 4223W        W19692  16.873   3.650  14.119  0.0304 -0.1848  0.0173
 4224W        W19693  11.671   8.602  11.876  0.0243 -0.1326 -0.0133
 4225W        W19694   8.853  17.800  13.822  0.0324  0.2033  0.0579
 4226W        W19695   9.240  10.500  14.694  0.1870  0.0773  0.0391
 4227W        W19696  16.421  15.242  10.529  0.1918  0.1005 -0.2508
 4228W        W19697   4.064   0.263   5.074 -0.0626 -0.1522 -0.1637
 4229W        W19698   9.835  14.502  14.336  0.4158  0.3016 -0.3083
 4230W        W19699  15.212   6.691  12.904  0.1980 -0.0976  0.2108
 4231W        W19700  14.716  10.665   5.419  0.1536  0.0944  0.3418
 4232W        W19701  18.118  10.568   0.186  0.2738 -0.4064  0.2688
 4233W        W19702   5.818   5.842   4.958  0.2512  0.1102 -0.3448
 4234W        W19703  10.771  15.994   2.337 -0.1186  0.1312  0.0163
 4235W        W19704  14.057   1.044  14.132 -0.0628  0.2217 -0.3165
 4236W        W19705   3.571   5.209  13.786  0.2439  0.0267 -0.0268
 4237W        W19706   6.573   5.687   4.681 -0.3290  0.3145  0.2801
 4238W        W19707   7.519  12.693   0.064 -0.0613  0.2894 -0.1072
 4239W        W19708  16.227  17.855  11.311 -0.4172 -0.0638 -0.1234
 4240W        W19709   1.168   7.868   0.135  0.2014  0.1169  0.3146
 4241W        W19710   1.995  17.491   9.941  0.2468 -0.2543  0.0328
 4242W        W19711   5.627  12.295   4.039 -0.0486 -0.0565  0.0742
 4243W        W19712  16.026   7.918  13.793  0.3007  0.0520  0.2160
 4244W        W19713   0.150   5.736  11.304 -0.2004 -0.2327  0.1604
 4245W        W19714  13.160   8.912  15.606 -0.1486 -0.1386  0.1326
 4246W        W19715  18.434   7.294   1.483  0.0887 -0.0522 -0.0921
 4247W        W19716  17.917  14.368  11.269 -0.1765 -0.1273  0.0037
 4248W        W19717   9.528   7.587   4.192 -0.3276 -0.0826  0.0251
 4249W        W19718  15.506  14.356  13.766  0.0081 -0.1392  0.2953
 4250W        W19719   8.595   7.550  12.166 -0.1315 -0.1898  0.3795
 4251W        W19720   8.252  12.556   0.664  0.1859 -0.2315  0.1851
 4252W        W19721  12.194   5.459  14.748 -0.0238 -0.6202  0.2866
 4253W        W19722  10.872   7.412   2.171 -0.2488  0.1102  0.3090
 4254W        W19723  13.378   0.600   2.762 -0.1157  0.4114  0.0720
 4255W        W19724   6.735  11.146   3.258  0.2399 -0.1933 -0.1681
 4256W        W19725   2.895   1.062  15.690 -0.0356 -0.0419 -0.0782
 4257W        W19726  18.449   9.496  15.255 -0.0067  0.3004  0.0196
 4258W        W19727   9.042   5.941   1.086 -0.0115  0.0679 -0.2799
 4259W        W19728  11.833  14.292   3.648 -0.0580 -0.3231  0.3116
 4260W        W19729   6.804  16.207   2.852 -0.1095  0.4173 -0.0658
 4261W        W19730  11.422  10.567  11.666 -0.0868  0.1373 -0.1607
 4262W        W19731   1.226  12.846  13.188  0.1778  0.0669  0.0400
 4263W        W19732  15.868   5.153  13.375  0.1768  0.3310  0.0634
 4264W        W19733   3.931   2.943  11.892  0.2241  0.1061 -0.0141
 4265W        W19734   6.306  11.014  12.153 -0.1704 -0.1182 -0.0837
 4266W        W19735   5.425   3.436   5.902  0.1829  0.2069  0.0635
 4267W        W19736  13.881  16.715   2.193  0.4387  0.0109  0.4333
 4268W        W19737  10.582   6.260  14.424 -0.0941 -0.2993  0.0129
 4269W        W19738  14.504  11.118  12.339 -0.0647  0.1261  0.0186
 4270W        W19739   6.875  12.745  14.357  0.0541 -0.1153 -0.2660
 4271W        W19740  17.668   8.289  15.642  0.0659 -0.1435 -0.0130
 4272W        W19741  13.486  11.661  10.701  0.0746 -0.1258 -0.0901
 4273W        W19742  11.425  10.276  15.346 -0.1776  0.0711  0.0997
 4274W        W19743  16.274   8.608   3.187 -0.3516  0.3002 -0.2459
 4275W        W19744  16.878   9.615   4.427  0.3794  0.0433  0.2417
 4276W        W19745  12.712   8.284  15.304 -0.1020  0.1468 -0.3126
 4277W        W19746  13.956  11.726   5.513  0.1328  0.1069 -0.0481
 4278W        W19747   8.060   1.737  11.726 -0.0145  0.2404 -0.3151
 4279W        W19748   0.089   1.587   0.958  0.0919 -0.1731 -0.0935
 4280W        W19749   9.208  16.089   2.271  0.0774  0.1686 -0.1050
 4281W        W19750   8.509   2.448   2.894 -0.0318  0.0195 -0.2014
 4282W        W19751  12.196   2.874   1.903  0.0967  0.3486  0.2932
 4283W        W19752   8.656  10.925  14.279  0.2192 -0.2071 -0.2695
 4284W        W19753   1.643   3.914   4.192  0.1201 -0.1269 -0.0600
 4285W        W19754   4.466   0.183  15.061  0.2512  0.0672 -0.0170
 4286W        W19755  16.911  15.299  15.087 -0.1076 -0.1536  0.2142
 4287W        W19756  15.989  10.428   3.805  0.2245 -0.3781  0.0930
 4288W        W19757   1.929   0.580   4.537 -0.0344  0.2241  0.1260
 4289W        W19758   1.397  16.099  10.122  0.1044  0.0356  0.0062
 4290W        W19759   8.255  13.617   3.421 -0.0287 -0.0105 -0.1175
 4291W        W19760   0.216  13.680   6.017 -0.1290 -0.0543 -0.2050
 4292W        W19761  16.935  12.674  15.045 -0.0501 -0.2134  0.0128
 4293W        W19762  10.326   6.852  12.735  0.2293  0.0249  0.0199
 4294W        W19763   6.691  14.758   4.518  0.1531  0.0194  0.0872
 4295W        W19764  18.353  12.149   4.800  0.0502 -0.2658 -0.2716
 4296W        W19765   2.375   4.844   4.369 -0.0688  0.1243  0.1668
 4297W        W19766  18.141  10.115   0.353 -0.0721  0.1615 -0.2603
 4298W        W19767   5.505  14.422   1.874  0.1268  0.1839 -0.2172
 4299W        W19768   4.975  10.858   5.619 -0.0963  0.0753  0.2813
 4300W        W19769  17.303   2.072  13.666  0.1394 -0.0904  0.0032
 4301W        W19770   9.366   8.394   0.494  0.1370  0.1012 -0.0540
 4302W        W19771  16.064  10.945   3.645 -0.3687  0.1040  0.0394
 4303W        W19772   7.748   7.980  11.718  0.1440  0.4233  0.0251
 4304W        W19773   9.218  15.599  13.092 -0.1136  0.2917 -0.0665
 4305W        W19774  17.419  11.222  11.820  0.3463 -0.1468 -0.1494
 4306W        W19775  14.599   7.794  15.416 -0.1420 -0.0714  0.0920
 4307W        W19776  11.859   0.117   5.150 -0.1399 -0.0567 -0.0101
 4308W        W19777  15.090   7.468   2.958  0.0728  0.2417  0.1201
 4309W        W19778   2.529  11.028   0.748  0.4476  0.0876 -0.1888
 4310W        W19779  12.642  15.584   0.639  0.1295 -0.0042  0.1049
 4311W        W19780  12.326  15.630  12.337 -0.1539 -0.1049  0.0393
 4312W        W19781   9.125  18.062   1.709  0.0331  0.1500  0.1671
 4313W        W19782  15.679  13.838   4.208  0.1041 -0.1859 -0.1816
 4314W        W19783   2.657  14.726   5.316 -0.2461  0.3675  0.1039
 4315W        W19784   2.023   2.771  12.251 -0.1473  0.3392  0.0245
 4316W        W19785  13.952  11.018  15.682 -0.0241 -0.0932 -0.0916
 4317W        W19786   7.957  18.218  14.137  0.0478 -0.5079 -0.5161
 4318W        W19787  17.427  15.206  15.115 -0.2863 -0.4876  0.0671
 4319W        W19788  16.656  17.794   3.732 -0.2718  0.0280  0.3369
 4320W        W19789   7.917   4.794  14.008 -0.3010 -0.1346 -0.1587
 4321W        W19790  10.066  14.190  13.534 -0.0689  0.0981 -0.1125
 4322W        W19791  17.772   7.966   3.761 -0.1677  0.0459  0.0816
 4323W        W19792   7.259  10.261  14.932  0.2745  0.0065  0.2598
 4324W        W19793   1.639   2.575  10.199 -0.0937  0.0886  0.0434
 4325W        W19794  14.407   0.406  13.287  0.0456 -0.4221  0.0641
 4326W        W19795   3.651   4.694  11.915 -0.3119  0.1878 -0.0500
 4327W        W19796  13.094   7.063  12.934 -0.1762 -0.2990 -0.2800
 4328W        W19797  10.761   9.657   3.720  0.1632  0.0275 -0.0770
 4329W        W19798   8.932   1.602  14.328 -0.1265  0.0932 -0.1969
 4330W        W19799   6.559   0.023  12.550  0.4537 -0.1578 -0.0434
 4331W        W19800   7.274   7.008   6.247 -0.1692  0.2766 -0.1002
 4332W        W19801  15.656   1.644  14.455 -0.2256  0.1001 -0.0676
 4333W        W19802   5.103   4.167  11.772 -0.1634  0.0839 -0.3547
 4334W        W19803  17.297  16.592  11.197  0.2438 -0.1018  0.1669
 4335W        W19804  16.929  16.650  13.241  0.0589  0.0559 -0.3514
 4336W        W19805  16.292   9.634   5.633 -0.1262  0.1426  0.1308
 4337W        W19806  13.944   0.058  11.613 -0.2948 -0.3314  0.1270
 4338W        W19807  16.214   7.352   5.180 -0.0985  0.1306 -0.0684
 4339W        W19808  11.779   5.663  12.040 -0.0478  0.0113  0.2040
 4340W        W19809   7.386  11.286   2.292  0.0175  0.2778  0.2560
 4341W        W19810  12.816  17.621  13.287 -0.0652  0.2541 -0.0560
 4342W        W19811  10.971  17.443  15.882  0.2565 -0.0789  0.1112
 4343W        W19812  13.510   7.137   2.050 -0.0557  0.0238 -0.0355
 4344W        W19813  15.558  12.753   5.214  0.3492  0.0636 -0.1628
 4345W        W19814   7.607  17.404  13.889  0.2006  0.3328 -0.1171
 4346W        W19815   4.150   7.447  14.208 -0.1389  0.1723 -0.0853
 4347W        W19816  10.881   3.238   5.592  0.0324  0.0518  0.0582
 4348W        W19817   8.378  13.050  10.548  0.1222  0.0566  0.1652
 4349W        W19818   5.340  14.684   3.618 -0.0189  0.0017  0.0080
 4350W        W19819   4.723   4.212   3.087 -0.2874  0.2467 -0.0575
 4351W        W19820  14.830   1.255  14.798 -0.0671 -0.1104 -0.2245
 4352W        W19821   4.724   4.188  15.213 -0.0513  0.1293 -0.3161
 4353W        W19822  11.175   4.566  14.289 -0.0545  0.3181  0.2018
 4354W        W19823  14.785   8.004  15.977  0.0219 -0.3396 -0.3969
 4355W        W19824   8.238  13.926   1.933  0.2467 -0.2174  0.0038
 4356W        W19825   0.713  16.659   4.021  0.0579  0.1798  0.2980
 4357W        W19826   4.320  12.802   4.405 -0.1990  0.1899 -0.0967
 4358W        W19827   0.864   3.973  14.217 -0.0383  0.2036  0.0967
 4359W        W19828  10.557  10.489  15.232 -0.1382  0.1095 -0.2425
 4360W        W19829  17.361  12.084  14.813  0.1694 -0.2725  0.1445
 4361W        W19830  14.265   7.611   3.108 -0.0668  0.1348  0.0335
 4362W        W19831   7.375  10.832  12.599  0.0884  0.0139  0.2038
 4363W        W19832  10.108   0.854  13.085  0.2763  0.1831  0.1795
 4364W        W19833  13.099  12.883  10.366  0.0767 -0.1947  0.3778
 4365W        W19834  15.354   5.262  14.919  0.1313 -0.0378 -0.1626
 4366W        W19835  12.788  14.651   2.844  0.1724  0.1014 -0.1281
 4367W        W19836   5.077  10.884  13.307 -0.2307 -0.2193 -0.2586
 4368W        W19837   1.219   1.256  15.355 -0.1395 -0.0949 -0.0321
 4369W        W19838  15.868   4.111  12.433  0.2256 -0.1362 -0.1508
 4370W        W19839  16.355  18.393   4.895  0.3899 -0.0428 -0.1703
 4371W        W19840   0.056  14.947  13.423 -0.3776 -0.0719  0.1460
 4372W        W19841  15.806  16.634   0.518  0.5184 -0.0294  0.1944
 4373W        W19842   4.695   8.916   4.096 -0.0741  0.1439  0.2198
 4374W        W19843  15.840  18.262  11.351  0.1989 -0.2296  0.2883
 4375W        W19844  11.120  16.294  14.719 -0.0575 -0.0889  0.2881
 4376W        W19845  12.534  10.096  13.428  0.2315  0.1385 -0.0509
 4377W        W19846  14.392  13.521   4.012  0.1128 -0.0655  0.1152
 4378W        W19847  10.803  10.995   0.181  0.1409 -0.2927 -0.3255
 4379W        W19848   9.153   9.858  12.368 -0.0736 -0.0314 -0.0770
 4380W        W19849  11.235   3.817  11.998  0.2571 -0.1004 -0.3590
 4381W        W19850  11.361  14.131  15.271 -0.2231 -0.1052  0.0219
 4382W        W19851  11.111   8.101   1.167  0.0157  0.1241 -0.0524
 4383W        W19852  11.798  12.395   1.988  0.3560 -0.0560 -0.1404
 4384W        W19853  10.338   9.833   2.044 -0.2318 -0.0774  0.0994
 4385W        W19854   6.815   1.650   2.089  0.4446  0.0093 -0.0041
 4386W        W19855   2.583   0.371   1.623  0.2816 -0.0238  0.1671
 4387W        W19856   1.734  11.695   2.294 -0.0233  0.1199  0.1231
 4388W        W19857   7.620   8.118   4.800 -0.1857 -0.2834 -0.0495
 4389W        W19858   0.167   8.551  13.181  0.0525  0.0132  0.1260
 4390W        W19859   6.451   6.543   2.554 -0.2208 -0.2589 -0.1930
 4391W        W19860   3.432   6.292  11.833 -0.0288 -0.1908  0.0522
 4392W        W19861   3.586   4.429  15.423  0.1237  0.0487 -0.0351
 4393W        W19862   9.144  16.332  11.084  0.1825  0.1407  0.2844
 4394W        W19863   7.947  11.706   1.968 -0.1409 -0.0925  0.0542
 4395W        W19864   6.502  14.170   3.209 -0.1247  0.1240  0.3009
 4396W        W19865   5.914  12.432   9.879 -0.2354 -0.2595 -0.2128
 4397W        W19866  12.192   0.558  15.373 -0.3533 -0.3244  0.0310
 4398W        W19867  15.494   2.682   3.321 -0.0463  0.1100  0.0126
 4399W        W19868  18.080   0.835   6.196 -0.0736 -0.0975 -0.0005
 4400W        W19869   2.846   1.282  13.178  0.1389  0.0923 -0.2022
 4401W        W19870   8.641  13.568  14.697 -0.0390 -0.1147 -0.1750
 4402W        W19871  10.885  13.183   3.457  0.1753  0.2822  0.1073
 4403W        W19872   4.625  12.184   2.944  0.1181 -0.1682 -0.0763
 4404W        W19873   8.930  12.632  12.107 -0.3043  0.0547 -0.2805
 4405W        W19874   6.611   7.022   3.365  0.1566  0.0591 -0.4655
 4406W        W19875  14.448   5.168   4.537 -0.3945 -0.1043  0.1969
 4407W        W19876   1.953   4.422  12.361 -0.1957 -0.1808  0.3547
 4408W        W19877   2.546  12.333   0.900  0.3353 -0.0687  0.1519
 4409W        W19878  13.265   3.726   4.516 -0.1059 -0.0487  0.2186
 4410W        W19879   8.847   7.875   3.698 -0.1398 -0.1947 -0.2309
 4411W        W19880   6.576   6.092  12.190 -0.4411 -0.3077  0.0398
 4412W        W19881   4.867  14.619  12.881  0.1618 -0.0473 -0.4324
 4413W        W19882   4.927  17.826  12.588 -0.0719 -0.2017 -0.0425
 4414W        W19883   3.484   0.550  14.038 -0.2783  0.1250 -0.2161
 4415W        W19884  15.000  17.340   1.529  0.2746 -0.2832 -0.2710
 4416W        W19885  10.288  15.732  13.259 -0.3539 -0.0182 -0.0829
 4417W        W19886  11.658   8.974   4.855  0.1315  0.0351  0.0240
 4418W        W19887   7.453  17.981  11.633 -0.4802 -0.2132  0.1173
 4419W        W19888  15.552  13.148  14.591  0.0631  0.1765 -0.0205
 4420W        W19889  11.624  13.775   1.821 -0.1649  0.2520 -0.2020
 4421W        W19890   5.189  16.767  13.713 -0.0996 -0.0170  0.0643
 4422W        W19891  12.185   4.355   4.777 -0.1886 -0.2318 -0.1553
 4423W        W19892  18.168  11.589  12.302 -0.0003  0.0230 -0.2870
 4424W        W19893  13.964  10.471  11.680 -0.2739 -0.3358 -0.0755
 4425W        W19894   1.249  11.839  13.241  0.2865 -0.2327  0.1791
 4426W        W19895   4.913   4.800   4.763 -0.1927  0.0953 -0.2286
 4427W        W19896   4.647   3.806   3.736 -0.0459  0.1034 -0.1750
 4428W        W19897   2.887  15.060  13.587 -0.0016  0.0949 -0.3327
 4429W        W19898   9.756  10.647   0.199  0.3843  0.2097  0.2123
 4430W        W19899   7.873  16.159   2.425  0.1620  0.3197 -0.1460
 4431W        W19900  14.923  15.122  11.362 -0.0899  0.2450 -0.0492
 4432W        W19901  14.354   8.187   0.281 -0.0255 -0.3017  0.1289
 4433W        W19902  13.483   3.123  11.501 -0.1335  0.0177  0.0234
 4434W        W19903   4.162  14.344  13.873  0.1468  0.2479  0.0631
 4435W        W19904  16.634  11.046  14.856 -0.1573  0.1512  0.3435
 4436W        W19905   5.688   2.150  14.643  0.1202  0.0211 -0.1628
 4437W        W19906  17.908  11.540  11.814  0.0664 -0.0375  0.1478
 4438W        W19907  17.459   0.246   3.455  0.0718  0.0628  0.0080
 4439W        W19908   0.525   5.917   0.504  0.0400 -0.4157 -0.2620
 4440W        W19909  16.041   1.369  12.423 -0.1029  0.1240 -0.0779
 4441W        W19910  10.009  11.813   3.765 -0.1456 -0.0841  0.3896
 4442W        W19911   2.801  12.439  14.363 -0.0662 -0.0212 -0.1042
 4443W        W19912  17.026  16.524  14.331  0.1326  0.0704  0.0369
 4444W        W19913   3.390   9.162   3.528  0.2820  0.3366 -0.1803
 4445W        W19914  15.742   8.494  10.086  0.2546  0.1079  0.4221
 4446W        W19915   7.212  11.474   3.713 -0.3402 -0.0393  0.0201
 4447W        W19916  12.660  14.060  14.926  0.0260 -0.3796  0.1991
 4448W        W19917   3.198  12.505   0.890 -0.1115 -0.0024  0.2062
 4449W        W19918   3.386  12.871   6.005  0.1534  0.2723  0.0661
 4450W        W19919  15.924   4.695  12.455 -0.0937 -0.4255 -0.0201
 4451W        W19920   0.743   7.962  11.138  0.0765 -0.1883 -0.0401
 4452W        W19921   9.201   0.760   2.933 -0.0521 -0.1115 -0.2089
 4453W        W19922   6.549   8.584  10.580 -0.2468  0.1020 -0.1548
 4454W        W19923   6.660   6.184  14.911  0.0018  0.0779 -0.0576
 4455W        W19924   0.452   3.181  13.146  0.0309  0.0192 -0.1800
 4456W        W19925   8.707   9.375  14.512 -0.5997  0.1021 -0.1965
 4457W        W19926   5.184  15.243   0.023  0.2612 -0.2625  0.0887
 4458W        W19927   9.558   7.432  12.098  0.3581 -0.2583 -0.1648
 4459W        W19928   5.076   5.678  15.088 -0.1364  0.2551  0.0646
 4460W        W19929  10.891   3.647  12.932 -0.4352 -0.1244 -0.1156
 4461W        W19930   0.122  11.766  11.020 -0.0370 -0.1446 -0.1776
 4462W        W19931   4.222   0.650   1.511 -0.2779 -0.0715 -0.3000
 4463W        W19932  12.272   0.484  12.298 -0.2253 -0.0254  0.3699
 4464W        W19933   4.276  16.604  13.144  0.1434 -0.1350 -0.1671
 4465W        W19934   2.553  18.261  15.253 -0.1890  0.2095 -0.0754
 4466W        W19935  16.009   0.348  11.446 -0.2139 -0.2717  0.2263
 4467W        W19936  15.575   7.721   3.044  0.3920  0.0512 -0.1442
 4468W        W19937   1.166  16.554  11.703 -0.1214 -0.1329 -0.3336
 4469W        W19938  13.842  14.055   1.872  0.3928  0.2990  0.1210
 4470W        W19939  13.630  13.772  11.830  0.0553  0.0580 -0.1886
 4471W        W19940  16.441   6.227   1.174 -0.0522 -0.1517  0.1280
 4472W        W19941  16.233   3.619  13.234 -0.1092 -0.0075 -0.0477
 4473W        W19942   6.066  15.802   0.151  0.0357 -0.0306  0.1104
 4474W        W19943   2.547   0.438  14.170 -0.0784 -0.3342  0.2554
 4475W        W19944   0.828   5.522   2.005 -0.2995  0.1054 -0.1955
 4476W        W19945  11.562  17.251  12.843  0.0953  0.1554 -0.1407
 4477W        W19946   4.468   2.270   3.878 -0.4677  0.1717 -0.0492
 4478W        W19947  11.679  14.312  14.122  0.0411  0.1562 -0.0722
 4479W        W19948  10.716  11.346  13.076  0.2026 -0.2042  0.1353
 4480W        W19949  18.398   7.165  15.657 -0.0638  0.0747 -0.0465
 4481W        W19950   4.300  15.085   1.397  0.1825 -0.1494 -0.1460
 4482W        W19951  15.068  16.740  15.128 -0.0152  0.1295  0.1831
 4483W        W19952   0.903   2.482  12.535  0.0140 -0.2277 -0.0248
 4484W        W19953   4.914   2.918   1.565 -0.2294  0.0489  0.1428
 4485W        W19954   4.853   3.993  13.728  0.1023  0.0257  0.1018
 4486W        W19955  18.127   0.824  13.233 -0.0470  0.0274  0.0730
 4487W        W19956   6.876   8.027   0.245 -0.1028 -0.2430  0.0354
 4488W        W19957  10.319   9.063  12.992 -0.1155 -0.0225 -0.0370
 4489W        W19958   2.550   2.868   2.040  0.0819 -0.1939  0.3081
 4490W        W19959  13.055   2.912   4.822  0.2651 -0.1880  0.2023
 4491W        W19960  11.084  13.336   5.023  0.2047  0.0962  0.3675
 4492W        W19961   4.711   4.605  10.552 -0.1611  0.0662 -0.2283
 4493W        W19962   4.570  12.890   3.440 -0.1779  0.0818  0.3492
 4494W        W19963  17.207  12.161   5.216 -0.1547 -0.0503  0.0317
 4495W        W19964  15.683  11.730   1.495  0.3185  0.3084 -0.3542
 4496W        W19965  17.865  17.228   3.160 -0.1975  0.0430  0.3682
 4497W        W19966   0.435   6.773  13.566  0.0271  0.2811 -0.1874
 4498W        W19967   8.992  17.849  12.513  0.0021  0.3638  0.0035
 4499W        W19968  14.328  16.077   2.697  0.0281 -0.1290 -0.1104
 4500W        W19969  10.111  11.547   4.541 -0.0007 -0.0525 -0.0263
 4501W        W19970   5.345  14.713   5.489  0.3226  0.0854 -0.1932
 4502W        W19971   8.944  16.243  14.261 -0.0065 -0.2483 -0.1733
 4503W        W19972  13.609   3.587  13.668 -0.0198 -0.0764 -0.1764
 4504W        W19973  17.119   7.445  15.170 -0.3338  0.0890  0.0499
 4505W        W19974   2.635  16.187   4.539  0.2769  0.0706 -0.0535
 4506W        W19975  12.258   3.123   4.032  0.1450  0.0940 -0.4689
 4507W        W19976   1.145   6.046  12.966  0.0212  0.0539 -0.0865
 4508W        W19977   5.179  11.487  11.645 -0.3379 -0.0129 -0.0246
 4509W        W19978  15.146  11.326  15.626  0.1575  0.0824  0.3060
 4510W        W19979   9.035  13.262  14.754 -0.1289  0.5545  0.3991
 4511W        W19980  16.402   8.391  14.032  0.3222 -0.2658 -0.2403
 4512W        W19981   7.806  15.715   4.661 -0.0041  0.0687 -0.0068
 4513W        W19982   0.442   5.395   0.322 -0.0475 -0.3653 -0.0006
 4514W        W19983  13.251   1.734  12.877 -0.0973  0.1223 -0.1715
 4515W        W19984   7.454   0.090   1.721  0.3363 -0.0841  0.3540
 4516W        W19985   5.473  16.050  14.435  0.4430  0.0575 -0.1284
 4517W        W19986  14.651   0.979  15.738 -0.2579 -0.4193 -0.4342
 4518W        W19987  14.609   9.782   0.031 -0.0862  0.0957  0.0510
 4519W        W19988   9.165  17.768  10.734 -0.1621  0.1033 -0.0527
 4520W        W19989   4.546  12.175  15.515  0.2203  0.2642  0.1350
 4521W        W19990   5.158  13.635   3.399  0.2239 -0.1756 -0.1806
 4522W        W19991   2.719   6.311   0.735 -0.0131 -0.2729 -0.0678
 4523W        W19992   3.152   1.803  14.196 -0.0252 -0.0800  0.0750
 4524W        W19993  14.927   8.086   4.618  0.4255  0.0586 -0.2773
 4525W        W19994  15.586  16.019  13.492  0.2128 -0.0677  0.0157
 4526W        W19995  17.358   0.477  14.822  0.0012 -0.1317 -0.0189
 4527W        W19996  14.227   8.608  14.809 -0.3304  0.1369 -0.1295
 4528W        W19997  17.763  16.722   2.322 -0.0917 -0.2413 -0.2129
 4529W        W19998   9.127  16.592  12.067 -0.2564 -0.0176  0.2757
 4530W        W19999   7.945   1.365   5.068  0.0019 -0.1760  0.1477
 4531W        W20000   7.049   5.034   1.239 -0.0878  0.4038 -0.1148
 4532W        W20001   5.544   9.107  12.599 -0.0323  0.0507 -0.2478
 4533W        W20002  14.858  17.028  12.201  0.2348 -0.2072 -0.0007
 4534W        W20003  10.051   4.975   2.475 -0.0969 -0.0279 -0.1076
 4535W        W20004   4.028   4.719  13.052  0.0468 -0.0396 -0.0434
 4536W        W20005  13.157   0.573  14.640  0.2381  0.0219  0.1527
 4537W        W20006   1.020  10.027   3.185  0.3085 -0.1393 -0.0310
 4538W        W20007  10.559  13.247   3.818  0.1209  0.1445  0.2001
 4539W        W20008  17.593   3.450  15.305 -0.2525 -0.0990  0.1235
 4540W        W20009  10.184  14.095   3.906 -0.1321 -0.3816 -0.5954
 4541W        W20010  11.641   8.446  12.735 -0.1184 -0.0963 -0.2203
 4542W        W20011   9.482   5.120   1.472 -0.0723 -0.1095  0.1986
 4543W        W20012   1.131   1.359  10.625 -0.0118  0.1095  0.1062
 4544W        W20013   1.836   1.099   4.564  0.0004 -0.0957  0.0929
 4545W        W20014  12.487  18.408  15.508 -0.0078  0.2565  0.1848
 4546W        W20015   9.610   1.611  16.004 -0.2869 -0.2815 -0.1932
 4547W        W20016   9.348  16.567  15.883  0.0055 -0.2215 -0.5368
 4548W        W20017   4.323  12.310  16.019  0.1312  0.1414  0.2409
 4549W        W20018  12.643   1.212  11.913 -0.1177 -0.2690 -0.1111
 4550W        W20019  11.251  10.048   3.674  0.1974  0.0897 -0.0204
 4551W        W20020  12.574  16.034  15.673 -0.1231  0.4328 -0.1014
 4552W        W20021  11.475   8.534   3.825  0.0517  0.1318 -0.2599
 4553W        W20022  10.040  18.260   0.160  0.2434 -0.0646  0.1118
 4554W        W20023   9.218   9.820   0.053  0.1552 -0.1714 -0.0370
 4555W        W20024   6.655   6.171  15.500  0.0277  0.1586 -0.0089
 4556W        W20025  10.103   0.989  15.780 -0.0763 -0.1101  0.0665
 4557W        W20026   1.440   2.008   4.558  0.0650 -0.1621  0.1448
 4558W        W20027   7.922   5.615   2.067  0.0314 -0.2087  0.0223
 4559W        W20028   6.135   0.010   3.495  0.4247 -0.1903  0.0339
 4560W        W20029   4.026   1.416   5.506  0.1990 -0.3488  0.0958
 4561W        W20030  17.900  16.916  13.410  0.2268  0.2078 -0.1029
 4562W        W20031   4.481   4.783   5.384 -0.1456  0.1203 -0.2242
 4563W        W20032  10.767  15.493  15.631  0.0604  0.1253  0.1457
 4564W        W20033  13.700  15.298  12.717  0.0282 -0.2434 -0.1628
 4565W        W20034   6.304   4.972   0.072 -0.0408 -0.1121 -0.0560
 4566W        W20035   9.139   9.499   0.465  0.2631 -0.2355  0.0313
 4567W        W20036  10.929  16.105   4.520  0.0617  0.0459  0.4039
 4568W        W20037   6.953  17.373  13.970 -0.1138 -0.1202 -0.0181
 4569W        W20038   5.297   3.227   1.710 -0.0760 -0.0293 -0.2370
 4570W        W20039  17.852   5.532   5.107 -0.0637 -0.1875 -0.1726
 4571W        W20040   4.532  14.069  12.836  0.2262 -0.2434 -0.1016
 4572W        W20041  10.608   7.662  10.040  0.0959 -0.5170 -0.1918
 4573W        W20042   4.532   7.178   4.203 -0.0273 -0.0622 -0.0261
 4574W        W20043   0.281  10.093  13.309  0.1210  0.1176  0.0836
 4575W        W20044  15.564   1.261   2.001  0.0140 -0.2097  0.3006
 4576W        W20045   9.917  11.961   4.826 -0.2110  0.0728  0.1837
 4577W        W20046   6.985  11.617  11.606 -0.1025  0.0593  0.3228
 4578W        W20047   1.698   3.494   3.954 -0.1281 -0.1139 -0.1998
 4579W        W20048   1.390  12.396  11.585  0.0575 -0.0495 -0.1703
 4580W        W20049   1.683   8.719  11.837  0.1613  0.0988 -0.0433
 4581W        W20050  17.760  11.261   3.656 -0.0734  0.1089 -0.4123
 4582W        W20051   3.922   9.132   0.744 -0.1017 -0.0751 -0.1089
 4583W        W20052   7.324   2.503   4.422 -0.1857 -0.1665  0.0535
 4584W        W20053   7.142  12.275  14.561 -0.2659 -0.1794 -0.2303
 4585W        W20054  12.073  16.430   2.831 -0.1524 -0.0793  0.0618
 4586W        W20055  10.685  17.800  12.810 -0.1292  0.0402  0.3170
 4587W        W20056  12.496   7.643  13.323  0.4004  0.2339 -0.2942
 4588W        W20057  11.427   1.589   2.963  0.2748 -0.2910  0.2744
 4589W        W20058   7.660  16.698   5.605  0.1899 -0.2994  0.2399
 4590W        W20059  14.432  16.512   4.586  0.3560  0.0135 -0.1400
 4591W        W20060  10.735   2.124  14.128 -0.2397  0.1572 -0.1212
 4592W        W20061   0.213  13.692  12.761  0.3025  0.0622  0.1650
 4593W        W20062   8.463  17.913  12.616  0.0915 -0.0142  0.0969
 4594W        W20063  13.177  11.559   2.283 -0.1588 -0.1799  0.2157
 4595W        W20064  11.789   4.177   6.076 -0.0627 -0.1596  0.0357
 4596W        W20065  14.223   6.436  14.589 -0.4029  0.0582 -0.0268
 4597W        W20066  16.734  11.904   4.658 -0.1844 -0.1890 -0.0881
 4598W        W20067   6.819   1.775  11.893  0.1092  0.0419  0.2046
 4599W        W20068  10.363   7.987   3.981 -0.0688 -0.1401  0.4671
 4600W        W20069  16.837  18.225   4.087  0.1100  0.1019 -0.0660
 4601W        W20070   8.851   2.967   0.165  0.0618  0.1287 -0.0687
 4602W        W20071  16.720   2.639   0.407 -0.0222 -0.0233  0.0436
 4603W        W20072   0.852  15.615   2.094 -0.1241  0.1302  0.3670
 4604W        W20073  16.043  10.427   2.696  0.2779 -0.1095  0.3981
 4605W        W20074   3.396  14.421   2.308  0.1036  0.0362  0.2684
 4606W        W20075   2.993  13.755  14.240  0.0538  0.1467  0.2135
 4607W        W20076   8.060  10.512   3.162 -0.0628 -0.2954 -0.0681
 4608W        W20077  13.198  15.052  14.614  0.2442 -0.0776 -0.1476
 4609W        W20078   9.443   9.205  15.783  0.2710  0.1086 -0.2194
 4610W        W20079  15.663  13.890   3.140  0.2489 -0.0715 -0.1203
 4611W        W20080   0.137  15.652   3.401 -0.1574  0.2088 -0.3119
 4612W        W20081   7.743   1.225   1.775 -0.0305  0.0019 -0.2004
 4613W        W20082   0.801  14.804  12.661 -0.0532 -0.0554 -0.1588
 4614W        W20083   8.748   2.965  15.098  0.0555 -0.2265 -0.1560
 4615W        W20084   1.159  11.810   0.400 -0.0709 -0.1019  0.0900
 4616W        W20085   1.713   1.923  14.775  0.1690  0.0779  0.2336
 4617W        W20086  14.598  10.840   2.578 -0.3010 -0.2337  0.1095
 4618W        W20087  14.970   2.088  11.715  0.1547  0.3779 -0.0067
 4619W        W20088  13.217   9.190  12.154  0.1536 -0.1606  0.1254
 4620W        W20089   3.447  14.126   5.896 -0.0253 -0.5558  0.2650
 4621W        W20090   7.585  13.954  13.734  0.0739  0.2797  0.0280
 4622W        W20091   1.835  13.194  12.134  0.2259  0.1464 -0.3608
 4623W        W20092   0.881  18.228   0.612 -0.2151 -0.1357 -0.2225
 4624W        W20093   0.589  12.592   3.459  0.2798  0.1193 -0.1169
 4625W        W20094   4.963   9.138   4.456  0.0735 -0.5593  0.0238
 4626W        W20095   5.333  17.973  11.091  0.3082  0.3763  0.4620
 4627W        W20096   4.104  12.865   1.701  0.2548 -0.2896 -0.0122
 4628W        W20097   0.326   1.363   2.615  0.1000 -0.0425 -0.5590
 4629W        W20098  14.421   8.714   4.747 -0.0692 -0.0390 -0.0918
 4630W        W20099  14.837  17.080  14.190 -0.1998 -0.4675 -0.1438
 4631W        W20100  13.904  13.853   3.393  0.1072  0.2295 -0.3883
 4632W        W20101  15.577  13.526   2.552  0.0678  0.2387 -0.2049
 4633W        W20102   8.438  16.099  13.592 -0.2158 -0.0488  0.1260
 4634W        W20103  17.588   7.000   1.391 -0.0412  0.0433 -0.0782
 4635W        W20104  10.056  15.886   2.741 -0.0794 -0.1229  0.0552
 4636W        W20105  16.990  10.758  13.527 -0.1646 -0.0825 -0.1738
 4637W        W20106  16.842  14.248   2.852  0.0774  0.0731 -0.0262
 4638W        W20107  11.515  16.492  13.835  0.0137 -0.3529  0.0958
 4639W        W20108  12.500   0.527  13.491 -0.0318  0.3496 -0.0367
 4640W        W20109   4.202   3.134   0.134 -0.0120 -0.0652  0.0819
 4641W        W20110  17.055   4.705   5.591  0.1355 -0.1484  0.0112
 4642W        W20111  11.288  11.705   3.731 -0.0288  0.0628 -0.2289
 4643W        W20112  11.742  14.334  11.686  0.0800  0.1535  0.0088
 4644W        W20113   1.105  17.512   4.758  0.0537  0.2296  0.1917
 4645W        W20114  16.001  16.980  10.738  0.1753 -0.0493 -0.0263
 4646W        W20115   0.165   9.084   2.157  0.0017  0.3728  0.2718
 4647W        W20116  17.158   5.696   2.093  0.0160 -0.1887  0.1005
 4648W        W20117   2.015  18.043   1.893  0.0192 -0.0868  0.1493
 4649W        W20118  15.012   1.058   2.412  0.0654 -0.1837 -0.0593
 4650W        W20119  11.235  18.113   2.310 -0.1257 -0.1334 -0.1297
 4651W        W20120   1.946  15.967   3.030  0.0003 -0.1927 -0.0179
 4652W        W20121   8.886  13.701   3.682  0.1091 -0.3149  0.0604
 4653W        W20122  13.755   9.952   1.957 -0.1280  0.1062 -0.0883
 4654W        W20123   8.491   8.618   2.797  0.3074 -0.2559 -0.3114
 4655W        W20124  13.373   6.222  14.701  0.2264 -0.3179 -0.0635
 4656W        W20125   5.690  13.798  13.264 -0.0287 -0.3785  0.0171
 4657W        W20126  13.291   5.595  13.054 -0.2317  0.2297  0.1451
 4658W        W20127  14.731  14.039   1.992  0.0733  0.3444 -0.0822
 4659W        W20128   6.994  14.296   2.992 -0.1076 -0.2077  0.2471
 4660W        W20129   1.594   9.231   4.284  0.0757 -0.0219 -0.0002
 4661W        W20130   1.031   3.977  12.233 -0.0604 -0.1782 -0.2204
 4662W        W20131   4.142   1.160   1.440  0.0957  0.1545  0.2300
 4663W        W20132   8.430  14.138   0.050  0.0176 -0.3174  0.1467
 4664W        W20133  14.465   2.098   2.982 -0.3047 -0.2563  0.0036
 4665W        W20134   1.055   3.716   2.571 -0.0838 -0.2190  0.0760
 4666W        W20135   7.834   7.530   5.718 -0.2572  0.0339  0.0237
 4667W        W20136   1.092   0.155   0.392  0.2957 -0.3149 -0.3564
 4668W        W20137  12.596   6.778  14.528 -0.4462  0.2441 -0.4831
 4669W        W20138   0.192  14.404  13.249 -0.0947 -0.1147 -0.0237
 4670W        W20139   3.422  14.838   3.274 -0.1356 -0.2545 -0.0011
 4671W        W20140   7.843  16.501   1.193  0.2429 -0.2200  0.3446
 4672W        W20141   5.381  18.420   3.194 -0.1993 -0.0110 -0.0434
 4673W        W20142   6.526  13.429   0.092  0.0792 -0.1724 -0.3131
 4674W        W20143  16.032   2.532  14.367 -0.1406  0.3681 -0.1005
 4675W        W20144   5.350   5.949  15.446 -0.0209  0.0049  0.2346
 4676W        W20145   5.798   3.292   5.392 -0.1902 -0.1068 -0.3189
 4677W        W20146   0.089   3.340   3.214 -0.1384 -0.2134  0.0890
 4678W        W20147  13.270   3.445   2.844 -0.0485 -0.1148  0.1729
 4679W        W20148  10.142   0.431   1.468 -0.1158 -0.0889  0.1796
 4680W        W20149   5.294   8.753   4.250 -0.1634  0.2579 -0.2617
 4681W        W20150  11.804   2.392   4.831  0.5550  0.1930 -0.0215
 4682W        W20151   6.022  10.774  14.456  0.0648  0.0137  0.1416
 4683W        W20152   7.021  18.299   0.026 -0.3191 -0.1103  0.2248
 4684W        W20153   4.869  16.032  16.005  0.1659 -0.0860  0.1059
 4685W        W20154   1.838  16.481   5.207 -0.1968 -0.0015  0.1464
 4686W        W20155  17.358   0.779  10.693 -0.1316 -0.0632 -0.3251
 4687W        W20156   5.491  16.079   2.232 -0.2241 -0.1536  0.0408
 4688W        W20157  13.233   5.317  13.502  0.0790  0.0960 -0.2859
 4689W        W20158   3.303   7.273   2.897 -0.2249 -0.0020 -0.1667
 4690W        W20159   1.799   8.331  14.668 -0.2650  0.3328  0.3503
 4691W        W20160   9.976  16.962  12.502 -0.4474 -0.2283  0.0117
 4692W        W20161   2.688  12.437  14.854 -0.0222  0.0141  0.2623
 4693W        W20162   9.554  10.838  11.716  0.2150  0.2774  0.0910
 4694W        W20163  13.399   3.520   0.028  0.0973  0.1344 -0.2160
 4695W        W20164   6.235  18.201   1.323 -0.0623  0.1360 -0.2424
 4696W        W20165   2.351  16.230  10.885 -0.0282 -0.3582  0.1302
 4697W        W20166  13.107   0.365  11.877 -0.0045  0.1196  0.0669
 4698W        W20167  14.158   2.243  10.446  0.2556 -0.0538  0.0232
 4699W        W20168   4.933  17.119  14.010  0.2412  0.0495  0.1187
 4700W        W20169   1.926   7.653   2.223  0.0206  0.0504  0.2603
 4701W        W20170  17.209   3.999   1.040  0.0220  0.1545  0.1646
 4702W        W20171   8.247   1.331  15.717  0.0185  0.0102  0.3223
 4703W        W20172  15.175  16.502   3.473 -0.0632 -0.0360 -0.0799
 4704W        W20173  12.074   1.474   5.081 -0.0123 -0.0801  0.0752
 4705W        W20174   8.095   3.118   3.965  0.0924 -0.2720  0.0537
 4706W        W20175  10.868  17.866   3.495  0.1776 -0.1741  0.0141
 4707W        W20176   3.349   3.563   2.309 -0.1060  0.3116 -0.0260
 4708W        W20177  15.090   3.803  11.810 -0.1338 -0.1826  0.1246
 4709W        W20178   7.863   6.552   5.697  0.1448 -0.0094  0.0865
 4710W        W20179  13.163  13.016  10.910  0.0504  0.0262 -0.2531
 4711W        W20180  16.081  12.502   0.927 -0.2467  0.0245  0.2480
 4712W        W20181  14.547  18.184  13.269 -0.2940  0.3468 -0.1875
 4713W        W20182  15.232  12.859   0.743  0.2136 -0.0045 -0.1049
 4714W        W20183  11.255   8.058   4.108  0.1189  0.2034  0.0743
 4715W        W20184   4.335   8.679  13.149  0.1242 -0.1455 -0.0191
 4716W        W20185   0.516  12.748  14.025  0.1807  0.0508  0.0735
 4717W        W20186   5.381  14.005  15.313  0.3215 -0.2410  0.2002
 4718W        W20187   4.975  14.668   2.633 -0.2551  0.2830 -0.0355
 4719W        W20188  12.495  16.409  13.552  0.0040 -0.2655 -0.0611
 4720W        W20189   5.922  10.041   1.590 -0.1086 -0.3065 -0.1934
 4721W        W20190  17.211  13.188  10.380  0.0769 -0.0160  0.0832
 4722W        W20191  11.497  10.175  10.991  0.1848  0.0582 -0.3142
 4723W        W20192   7.039   6.063  11.847 -0.1139  0.2253  0.0290
 4724W        W20193   1.770   1.102   0.014 -0.2472  0.2049  0.1399
 4725W        W20194  17.672   9.710   3.279 -0.0559  0.0368 -0.2469
 4726W        W20195   3.928  18.063  13.411 -0.0057  0.1735  0.0108
 4727W        W20196   4.004   4.202   2.920  0.1966 -0.0804  0.2367
 4728W        W20197   0.382   8.478  13.795 -0.4062  0.1384 -0.1437
 4729W        W20198  13.339   8.645  12.815  0.0275  0.2489 -0.1587
 4730W        W20199   1.395   1.575  12.880  0.1460  0.0375 -0.0117
 4731W        W20200   3.723  18.212   4.601  0.1630  0.0297  0.3164
 4732W        W20201   9.725  17.546   4.266 -0.3083  0.2264 -0.0863
 4733W        W20202   5.248  13.443  12.506  0.1506  0.1816  0.1028
 4734W        W20203   4.847   7.935   2.913 -0.0129 -0.2536 -0.0874
 4735W        W20204   9.783   3.130  12.305  0.1145 -0.2436 -0.0269
 4736W        W20205  11.551  13.858  13.698  0.3516  0.3905 -0.0795
 4737W        W20206   8.451  11.897  10.660  0.1550  0.1041 -0.2614
 4738W        W20207  13.051   8.250  14.093  0.0856 -0.3133  0.4758
 4739W        W20208   0.746   5.886  10.429 -0.0458  0.0660  0.3798
 4740W        W20209   7.922  15.991  11.740  0.2434  0.0599  0.0426
 4741W        W20210  13.947  16.565  11.321  0.0382  0.3109  0.2248
 4742W        W20211  12.876  10.193   0.934 -0.0448  0.2645 -0.1155
 4743W        W20212   4.855  16.542  13.379  0.1289 -0.1390  0.1546
 4744W        W20213   2.950  11.604   2.444 -0.0506 -0.0575 -0.1282
 4745W        W20214  10.807   5.032  15.692  0.1769 -0.1024  0.1247
 4746W        W20215  16.885   1.974   2.693 -0.1257  0.1558 -0.0566
 4747W        W20216  16.492  10.102   2.499 -0.0278 -0.1535  0.0082
 4748W        W20217   1.310   0.399  10.763 -0.4426 -0.4113  0.0969
 4749W        W20218   2.701   9.738   2.365 -0.3519 -0.4883  0.1388
 4750W        W20219  17.322  16.323  13.099  0.0602 -0.1226  0.0116
 4751W        W20220   5.778   4.119   4.511 -0.2133 -0.4359  0.0375
 4752W        W20221  17.499   3.862  13.032  0.0599 -0.0132  0.1129
 4753W        W20222   7.446   0.237  10.841 -0.1209  0.2485  0.0527
 4754W        W20223   4.811   7.860  11.645 -0.0581 -0.0006  0.0312
 4755W        W20224  10.937   2.433  10.773 -0.1567  0.0736 -0.0552
 4756W        W20225  10.978   5.964   2.263  0.6820 -0.0265  0.0644
 4757W        W20226  16.683  15.933  11.727 -0.0488  0.1138  0.1086
 4758W        W20227  16.658  18.000   2.190 -0.2608  0.0718  0.0854
 4759W        W20228   8.093   6.748  10.577 -0.1988  0.3551 -0.1456
 4760W        W20229   8.381  14.737   2.312  0.2144  0.1057 -0.0586
 4761W        W20230   7.514   3.157  12.080 -0.0256 -0.0400 -0.0900
 4762W        W20231   8.574  15.418   1.028  0.2088  0.4926 -0.0349
 4763W        W20232   9.627   8.624   3.913  0.0890 -0.0485  0.0708
 4764W        W20233   3.826   5.083   4.309 -0.0498 -0.2923 -0.0756
 4765W        W20234  16.897  18.355   0.347  0.0681 -0.0400 -0.1641
 4766W        W20235  16.544   2.942  13.237 -0.2868 -0.1508 -0.3051
 4767W        W20236  12.718  13.865  15.768 -0.0396  0.0226  0.0397
 4768W        W20237  11.199  12.665   2.764  0.0394 -0.1457 -0.0764
 4769W        W20238   9.021   7.243   4.587 -0.1262  0.3802 -0.2462
 4770W        W20239  15.735   7.570  15.074  0.2608 -0.0007 -0.0318
 4771W        W20240   5.342  12.393   0.868  0.1955  0.1052  0.3609
 4772W        W20241  11.019  16.011   0.927 -0.5782 -0.2037 -0.1185
 4773W        W20242   2.259  18.358   4.286 -0.1867 -0.0261 -0.1007
 4774W        W20243   3.173  14.195   1.838  0.2171  0.4050 -0.1072
 4775W        W20244   8.447  14.406  11.118 -0.0719  0.0712  0.0565
 4776W        W20245   5.264   4.073   5.567 -0.3248  0.0128  0.0762
 4777W        W20246  11.802  11.903   3.992 -0.1924 -0.0379 -0.1911
 4778W        W20247   4.298   8.489  13.951 -0.0537  0.2968 -0.0773
 4779W        W20248  11.005   2.175   2.166  0.2079  0.1844 -0.0724
 4780W        W20249   8.663   0.523  13.772 -0.2549  0.1570  0.1091
 4781W        W20250  12.097  13.266   1.141  0.1732 -0.2110 -0.1387
 4782W        W20251   5.995  13.775  10.853  0.1032 -0.2650 -0.1151
 4783W        W20252  13.402  12.259  13.640 -0.0360  0.3023  0.1386
 4784W        W20253   5.303   6.822  12.409  0.1753  0.0375  0.3249
 4785W        W20254  15.413  10.248  11.765  0.1738  0.1393  0.1048
 4786W        W20255  12.308   0.159  15.100 -0.1567 -0.0481  0.2284
 4787W        W20256   3.701  14.905   0.721  0.0512 -0.1858  0.1144
 4788W        W20257   0.455  17.020   0.930 -0.1433  0.0819 -0.2016
 4789W        W20258  12.531  15.368   0.222  0.2870  0.3689 -0.1693
 4790W        W20259   1.472   1.220  11.976 -0.2414  0.2084 -0.2420
 4791W        W20260   0.625   3.182   6.132 -0.1728  0.2975  0.3782
 4792W        W20261   8.141   7.231   3.101 -0.0120  0.2863 -0.1306
 4793W        W20262  16.216  12.267  11.514  0.2671  0.3069  0.0958
 4794W        W20263   0.900   4.625   0.409 -0.0619  0.0852 -0.1657
 4795W        W20264  17.303   5.084  13.042 -0.1214 -0.0014  0.0605
 4796W        W20265  10.673  10.945  10.630  0.2323  0.1097 -0.0937
 4797W        W20266   8.092   6.614   4.065  0.2725  0.2578 -0.0051
 4798W        W20267  14.250   2.228   2.505  0.1228 -0.0619 -0.1425
 4799W        W20268  15.071  11.874  15.708 -0.2103 -0.1025 -0.1920
 4800W        W20269   8.520   7.696   4.061 -0.2325  0.1733  0.1929
 4801W        W20270   8.611   8.679  13.501 -0.2610  0.3004 -0.0922
 4802W        W20271   8.168  15.477   1.331 -0.1028  0.2048  0.1920
 4803W        W20272   8.559  13.725   0.607  0.1557 -0.0560 -0.2469
 4804W        W20273   2.591   1.935   2.411 -0.2129  0.1765 -0.0151
 4805W        W20274   2.143   1.985   0.457  0.1980 -0.1134  0.3002
 4806W        W20275   2.284   5.151   3.221  0.2886 -0.2552  0.0677
 4807W        W20276  11.650  13.519   4.694  0.2496  0.0138  0.0449
 4808W        W20277  11.689   6.234   4.051 -0.0139  0.2699  0.4091
 4809W        W20278  10.559   4.965   2.666  0.1099 -0.1128 -0.2341
 4810W        W20279   8.721   6.720   1.824  0.1287  0.3263  0.0011
 4811W        W20280  10.102   2.758  13.106 -0.1082 -0.2201  0.0514
 4812W        W20281  11.034  13.999   3.306 -0.1576  0.0926 -0.1499
 4813W        W20282   3.797   0.616  15.171  0.2800  0.0843  0.1930
 4814W        W20283  16.174  13.973   3.700 -0.1091 -0.1454  0.1773
 4815W        W20284   0.419   4.171  12.980 -0.1809  0.3527 -0.0688
 4816W        W20285   3.182   1.605  11.328 -0.0244 -0.0728 -0.0498
 4817W        W20286   9.843   0.460   3.344  0.0744  0.2734 -0.2157
 4818W        W20287  13.236   8.917  13.250  0.4644 -0.3241  0.0824
 4819W        W20288  15.443   2.063  13.966 -0.1467  0.1793 -0.1069
 4820W        W20289  17.893  12.052  12.570 -0.1728 -0.0413 -0.0452
 4821W        W20290   0.243   5.432  15.324 -0.1011 -0.3665 -0.0351
 4822W        W20291  13.941   3.770   2.959 -0.3990  0.3317 -0.0286
 4823W        W20292  18.285   2.271   2.222  0.2143  0.2939  0.3927
 4824W        W20293   1.155   3.985   5.875 -0.0080 -0.0824  0.0425
 4825W        W20294  15.459   8.359   4.946 -0.2212 -0.3587  0.2686
 4826W        W20295   4.456  17.963  11.059 -0.2914 -0.3297  0.0315
 4827W        W20296   6.808   5.304  15.900  0.1338 -0.2744 -0.1661
 4828W        W20297  11.683  11.429   3.588  0.0392  0.1972  0.0056
 4829W        W20298  12.691   2.603   5.039  0.0286  0.3803 -0.0372
 4830W        W20299   5.341  14.289   2.844  0.0556  0.0672 -0.4319
 4831W        W20300   0.243   8.106  15.504 -0.0383  0.0557  0.1454
 4832W        W20301  14.590   3.391  13.493 -0.1467  0.2480  0.0896
 4833W        W20302   7.056  15.450  14.003 -0.0325 -0.5960 -0.0201
 4834W        W20303  17.924  14.634  11.880  0.1535 -0.0305  0.1309
 4835W        W20304  10.268  10.903   0.116 -0.1014 -0.1265  0.1792
 4836W        W20305  16.580   7.249   0.787 -0.1512  0.0477 -0.0544
 4837W        W20306  18.222   9.760   4.486 -0.0756 -0.1013 -0.4151
 4838W        W20307  14.862   4.031   4.953 -0.3345 -0.4212  0.0019
 4839W        W20308   7.250  17.138  10.043 -0.1575 -0.0372  0.0401
 4840W        W20309  12.561   7.130  13.505 -0.0057 -0.1060  0.0130
 4841W        W20310  12.254  16.631   3.892 -0.0005  0.1968 -0.0559
 4842W        W20311  10.955  10.422  14.901  0.0750 -0.1758 -0.1081
 4843W        W20312   5.864  15.553   1.009  0.1805  0.4911 -0.0791
 4844W        W20313  11.134   9.996   2.327  0.1792 -0.4999  0.1089
 4845W        W20314   6.180  14.426   4.028  0.0436 -0.1370 -0.2553
 4846W        W20315   7.347  16.230  11.520  0.2834  0.0966 -0.0472
 4847W        W20316  17.985  16.396  15.637 -0.3834  0.1082  0.0656
 4848W        W20317   5.961   0.762   2.206 -0.1165 -0.1597 -0.2770
 4849W        W20318  13.322   1.429   1.098  0.0803  0.0556 -0.0792
 4850W        W20319   9.345   4.900  12.358  0.2135  0.1909  0.1059
 4851W        W20320   2.013   7.936  13.617 -0.2210 -0.1176  0.1859
 4852W        W20321   3.351  11.657   2.794  0.1262 -0.0098 -0.0354
 4853W        W20322   1.515   2.273   5.796  0.4866  0.0216 -0.0941
 4854W        W20323   2.492   6.268   2.123  0.0075  0.0046  0.1421
 4855W        W20324   9.789  12.492   3.190  0.0524  0.0523  0.0366
 4856W        W20325  13.094   4.800   2.033  0.0953 -0.2843  0.2340
 4857W        W20326  12.168  11.824   3.558  0.2607  0.0874 -0.0120
 4858W        W20327   9.733  16.224  13.236  0.0340  0.1846  0.1920
 4859W        W20328   3.970  17.698  11.139 -0.2790  0.0881  0.2307
 4860W        W20329  11.883  13.024  13.836  0.0200  0.2396 -0.0591
 4861W        W20330  13.893   9.211   4.210  0.2453  0.2289 -0.0997
 4862W        W20331   3.308   9.572   3.841 -0.1574 -0.2391 -0.0721
 4863W        W20332  11.409   7.053  15.505  0.1085  0.3710 -0.0966
 4864W        W20333  18.166   6.184   0.672  0.0889 -0.0325  0.0174
 4865W        W20334   0.076  12.279  15.180  0.0481  0.3047  0.0506
 4866W        W20335   0.647   0.364   4.283  0.0621  0.2475  0.0683
 4867W        W20336  12.788  16.838   3.481 -0.3343 -0.0820  0.0232
 4868W        W20337   8.108  12.253   5.838 -0.2182  0.0431  0.0038
 4869W        W20338   4.042   3.536   3.106  0.1555  0.0615  0.3481
 4870W        W20339  11.332   7.006  12.781  0.0007  0.1321 -0.0142
 4871W        W20340  17.198   4.113   5.718 -0.2189 -0.0167  0.1378
 4872W        W20341   7.045   4.603  14.549 -0.0613  0.1091  0.0888
 4873W        W20342   1.454  10.813   4.665 -0.2589 -0.4055  0.0198
 4874W        W20343  11.470   2.487   4.386  0.3353 -0.0584 -0.2845
 4875W        W20344   9.430  11.224  13.133 -0.0588 -0.0123 -0.0493
 4876W        W20345   8.169  11.422  14.878 -0.1812  0.2470 -0.1524
 4877W        W20346  15.457   8.393  11.988  0.1617  0.0404 -0.1577
 4878W        W20347   9.514  14.672  11.392  0.3274 -0.0739 -0.1961
 4879W        W20348  12.719   3.195   1.641 -0.0076  0.0152 -0.0091
 4880W        W20349   2.790   5.432  14.941  0.0818  0.2657 -0.2316
 4881W        W20350   2.966  13.896  15.115  0.1974  0.0827  0.0712
 4882W        W20351   7.556  15.799  12.425 -0.0154 -0.0036 -0.1177
 4883W        W20352  16.732   8.893   2.688 -0.0899  0.3357  0.1259
 4884W        W20353  14.473  11.006  12.957  0.1308  0.0055 -0.2847
 4885W        W20354   0.856   1.311   2.157 -0.0802 -0.1287  0.2800
 4886W        W20355   2.914   8.929   5.616 -0.3132  0.0397 -0.0514
 4887W        W20356  16.151   3.321  13.648 -0.0632 -0.4972  0.1110
 4888W        W20357  17.984   7.190   2.838  0.0904 -0.0182  0.2221
 4889W        W20358  14.917   0.727  14.756 -0.1693  0.0916  0.0393
 4890W        W20359   0.709  12.588   0.863 -0.0561 -0.1253  0.3156
 4891W        W20360   3.856  17.888   2.407  0.1489 -0.0616  0.1966
 4892W        W20361   6.437  14.440  14.644  0.0883  0.3649 -0.2763
 4893W        W20362   8.486  10.953   1.286  0.2636 -0.0849 -0.1209
 4894W        W20363  14.277  18.190   0.142 -0.2801 -0.0760  0.0273
 4895W        W20364  10.103  17.097  14.321  0.3522 -0.2943 -0.1497
 4896W        W20365   4.252   2.428  12.047 -0.2677 -0.0512 -0.1860
 4897W        W20366  17.711   9.535  14.765  0.0423  0.1573  0.0061
 4898W        W20367  14.601   9.100   2.678 -0.2111 -0.1887  0.3472
 4899W        W20368  14.820  15.254   1.354 -0.1716 -0.2527 -0.2160
 4900W        W20369   7.845  15.970   4.134  0.4076 -0.4235  0.0418
 4901W        W20370  17.499  16.680   3.939 -0.1349  0.1233  0.3979
 4902W        W20371   6.767   5.537  14.108  0.1160  0.1913 -0.2627
 4903W        W20372  14.188  10.559   2.605  0.3039 -0.0449 -0.1252
 4904W        W20373  18.371  16.647   4.858 -0.2576 -0.2237  0.0580
 4905W        W20374   5.888  11.932  11.939 -0.1808 -0.1241 -0.3558
 4906W        W20375  12.795   3.774   1.519  0.0215 -0.1513 -0.0974
 4907W        W20376   7.523  15.493  13.181  0.1695  0.0783 -0.0135
 4908W        W20377  13.538  13.207  12.773 -0.2744 -0.1088 -0.1417
 4909W        W20378   9.560  11.221  14.271  0.2568  0.1433  0.1151
 4910W        W20379  15.462   8.387  14.851 -0.2656 -0.0573  0.0515
 4911W        W20380   1.020  12.407  12.978  0.1516 -0.2957 -0.0188
 4912W        W20381   1.519   6.020   1.286 -0.1427 -0.2780  0.2361
 4913W        W20382   5.216  18.104  12.280 -0.2688  0.0906  0.2844
 4914W        W20383   7.047   7.443  12.901 -0.0095  0.1912  0.0570
 4915W        W20384  15.895   2.681  11.674 -0.0748 -0.1414 -0.1360
 4916W        W20385   0.239   1.944   6.299 -0.4662 -0.1346  0.0018
 4917W        W20386   5.395   8.511  11.942  0.2056 -0.0346 -0.1611
 4918W        W20387   9.256  10.468  12.592  0.1381 -0.1732  0.2554
 4919W        W20388   9.106   5.668   3.170  0.0031 -0.0345  0.2064
 4920W        W20389  13.373   4.804  13.368  0.0507  0.2628  0.3776
 4921W        W20390  16.017  13.873  10.995  0.3152  0.1440 -0.1484
 4922W        W20391   1.301   9.524   2.952  0.4152  0.0027  0.1791
 4923W        W20392  14.943  16.050   0.532 -0.3928  0.0995 -0.0521
 4924W        W20393  17.474   9.582  11.642 -0.1826  0.1350  0.1610
 4925W        W20394   6.975  12.404  10.440 -0.0679 -0.0691 -0.1063
 4926W        W20395   5.444  13.962   1.559 -0.1722 -0.0447  0.0396
 4927W        W20396   2.027  15.878  11.701 -0.3610  0.2734  0.2256
 4928W        W20397  12.737  14.140  11.973  0.0796 -0.0243 -0.0128
 4929W        W20398   9.832  14.359   2.391  0.0575  0.0814 -0.0277
 4930W        W20399  16.265   8.428   3.647 -0.2121  0.0741 -0.0777
 4931W        W20400  12.755  18.044  13.562  0.2460  0.0665  0.2573
 4932W        W20401  18.293   5.145   2.546  0.0088 -0.0987  0.0418
 4933W        W20402  12.344  11.261   2.203 -0.0985  0.1848  0.1501
 4934W        W20403   1.825  14.373  12.778  0.1267 -0.1424  0.1191
 4935W        W20404  14.858   5.094   0.523 -0.4334 -0.0099 -0.2721
 4936W        W20405  15.349   7.212   0.618 -0.3081 -0.2997 -0.2114
 4937W        W20406   1.540  15.624  12.846  0.0198  0.1461  0.0698
 4938W        W20407   4.284  14.759   3.647  0.0500  0.1949 -0.2240
 4939W        W20408   5.308   2.475   3.458  0.2819  0.1817  0.3763
 4940W        W20409  11.900   6.210   0.911 -0.1508 -0.0027 -0.1190
 4941W        W20410   6.600  18.195   3.499  0.0662 -0.1820 -0.1801
 4942W        W20411   3.318  12.768  12.337 -0.0913 -0.1352  0.3177
 4943W        W20412  12.739   1.853  15.732 -0.0761 -0.0580  0.0017
 4944W        W20413   3.895   8.241  11.766 -0.0385 -0.1248  0.0689
 4945W        W20414  13.891  14.053  15.255  0.0491 -0.0541  0.3304
 4946W        W20415  12.091  13.408  14.291 -0.1805 -0.2623 -0.1548
 4947W        W20416   4.086   5.935   1.633 -0.1864  0.0143  0.0258
 4948W        W20417  10.502  15.651   5.102  0.0801 -0.0714  0.0962
 4949W        W20418   4.752   2.241  11.150 -0.0143 -0.0402  0.0180
 4950W        W20419  12.263  15.824   1.078  0.0283 -0.1426 -0.1919
 4951W        W20420   4.051   7.796  13.061 -0.4017 -0.0044 -0.1239
 4952W        W20421   2.557   1.290   1.151  0.1106  0.0642 -0.2336
 4953W        W20422   8.502  14.026   4.505  0.3019  0.0087 -0.1528
 4954W        W20423  11.227  14.195  13.893  0.0550 -0.2134  0.1135
 4955W        W20424   8.957  16.489  14.705  0.0310  0.0519 -0.0866
 4956W        W20425  13.906  10.506  14.745 -0.1575 -0.0010 -0.1296
 4957W        W20426  15.425   1.862   1.248 -0.1472  0.0858 -0.0166
 4958W        W20427   4.851   0.241   3.032 -0.0277  0.2343  0.2271
 4959W        W20428  14.939   2.834   2.621  0.0952 -0.2458  0.3216
 4960W        W20429  13.188  14.111  12.822 -0.1441 -0.0124 -0.0407
 4961W        W20430  17.218   1.972  14.520 -0.1629  0.2522 -0.0202
 4962W        W20431  11.441   5.219   1.873 -0.3246  0.0348 -0.0364
 4963W        W20432   8.689   1.394   3.823  0.2341 -0.1248 -0.0981
 4964W        W20433   5.394  13.632  15.004 -0.1581  0.2994  0.1434
 4965W        W20434  14.456   3.114   3.727  0.3771  0.2058 -0.0242
 4966W        W20435  13.702  16.411   0.721  0.0958 -0.1232 -0.0769
 4967W        W20436   1.408  15.032  11.460 -0.1362 -0.0039 -0.2706
 4968W        W20437   1.294   8.736   1.489 -0.0431  0.2861 -0.2420
 4969W        W20438  10.102  13.780  12.625 -0.0230 -0.1565 -0.0053
 4970W        W20439  12.282   4.669  14.202  0.1112 -0.2033  0.0741
 4971W        W20440   8.613  15.223   9.695  0.0852  0.0443  0.1414
 4972W        W20441  18.247  12.119  11.077 -0.2222 -0.1381  0.2257
 4973W        W20442   1.996   3.236   2.332 -0.0876 -0.0380  0.3621
 4974W        W20443   0.142   7.128  12.242 -0.0098 -0.1762 -0.0094
 4975W        W20444  16.305  17.459  12.270 -0.1841 -0.0020  0.3378
 4976W        W20445  15.523   1.370   4.706 -0.3715 -0.2724 -0.0644
 4977W        W20446   0.047   0.438   5.327 -0.0261  0.0491  0.2141
 4978W        W20447   9.181   7.274  11.823  0.1302 -0.1105 -0.0148
 4979W        W20448   5.190   1.085  14.123 -0.2792  0.1628  0.1963
 4980W        W20449   8.222  12.421   3.443 -0.0423 -0.1223  0.1777
 4981W        W20450   4.429   5.124   4.012 -0.0433  0.2178  0.1703
 4982W        W20451  12.804  12.231   0.992 -0.0534  0.1855  0.1667
 4983W        W20452   9.822  16.037   4.908  0.0398  0.0221 -0.0289
 4984W        W20453  13.325  16.649  10.476 -0.0031  0.3216 -0.2671
 4985W        W20454   9.453   6.929   5.445  0.1760  0.1003 -0.2770
 4986W        W20455  17.210  14.034   1.735 -0.2771 -0.2402 -0.0706
 4987W        W20456   5.082   2.435  14.870 -0.4498 -0.1568 -0.1006
 4988W        W20457  13.225  16.235   3.310 -0.3259 -0.1485  0.1149
 4989W        W20458  17.816   1.784   4.446  0.0388 -0.0485 -0.2033
 4990W        W20459   5.688  12.183   5.328 -0.0499  0.1235  0.1701
 4991W        W20460   0.001  13.727  15.360  0.2424  0.0550 -0.1288
 4992W        W20461   5.825   6.691  14.574 -0.1722  0.0884 -0.0057
 4993W        W20462  13.242  17.485   2.575  0.2227 -0.1360  0.1677
 4994W        W20463   4.638  11.860   5.438 -0.2255 -0.0761  0.0382
 4995W        W20464  13.449  14.743  11.679  0.0928 -0.3659 -0.0039
 4996W        W20465  16.669   6.434   5.820 -0.0486  0.0627 -0.4421
 4997W        W20466  15.685  12.157  12.361 -0.0601 -0.0457  0.3689
 4998W        W20467   9.062   5.310   1.744 -0.0243  0.0893  0.0206
 4999W        W20468   6.130   9.265   0.921 -0.0875 -0.0725 -0.1683
 5000W        W20469  14.594  17.343   2.005 -0.1704  0.1749 -0.1528
 5001W        W20470   6.662  10.098   5.701  0.2487 -0.1666  0.2480
 5002W        W20471  17.553   1.022  15.045 -0.2425 -0.2894  0.3359
 5003W        W20472  14.264   6.522   4.834  0.3268 -0.0683  0.0903
 5004W        W20473   2.055  16.367  14.902  0.2990  0.1872  0.0094
 5005W        W20474  13.301   6.714  15.533  0.1358  0.1110 -0.0712
 5006W        W20475  15.123  10.101   4.515  0.3727  0.2454 -0.3909
 5007W        W20476   6.059   7.450   0.666  0.0203  0.1100 -0.1612
 5008W        W20477   7.501   5.892   0.968  0.1265  0.1770  0.0064
 5009W        W20478   4.378   8.415  15.812 -0.0875  0.5592  0.0911
 5010W        W20479   3.422  10.787  15.760 -0.4222  0.4569 -0.0730
 5011W        W20480   9.240   3.572   0.979  0.0164 -0.1204 -0.0165
 5012W        W20481  17.139  17.663  10.091 -0.0731  0.0745  0.1929
 5013W        W20482  15.194  16.979   0.559  0.2748  0.1093  0.0239
 5014W        W20483   0.360  12.755   0.508  0.1695  0.0463 -0.1909
 5015W        W20484  16.636   5.669  13.146 -0.3086  0.1092 -0.0614
 5016W        W20485   1.924   9.070  11.570  0.1878 -0.0667  0.2457
 5017W        W20486  10.198   1.765   3.363  0.1888  0.1075 -0.0358
 5018W        W20487  18.122   2.808   1.628 -0.0519 -0.2033 -0.1978
 5019W        W20488  13.470  12.819  15.251 -0.1104 -0.0294  0.1974
 5020W        W20489   4.496   4.021  15.684  0.1638 -0.0662  0.2234
 5021W        W20490   2.601  10.165   6.014  0.1498  0.1405  0.0996
 5022W        W20491   8.683   9.608  15.062  0.2729 -0.0636 -0.0214
 5023W        W20492   4.362   6.610  10.452 -0.1413  0.0361 -0.2878
 5024W        W20493   4.277   2.759   4.018 -0.0699  0.2149  0.1964
 5025W        W20494   5.773  13.700  15.712  0.0249 -0.1364 -0.1712
 5026W        W20495   3.240   0.950   0.455 -0.0651  0.3063  0.0628
 5027W        W20496   6.793  11.055  15.055 -0.0777  0.0239 -0.0998
 5028W        W20497   4.411   6.758   1.056 -0.1395  0.2466 -0.1422
 5029W        W20498   2.251  14.408   0.873 -0.0492  0.3436  0.1842
 5030W        W20499  15.619  13.350  14.151  0.2748 -0.3079 -0.0092
 5031W        W20500  17.792   7.403  11.808  0.4051 -0.0463 -0.2760
 5032W        W20501   0.897   0.957   1.648  0.1155  0.1058  0.1893
 5033W        W20502  13.798   9.543   1.662 -0.0161 -0.1140 -0.0521
 5034W        W20503  10.970  17.900  14.821 -0.0114  0.0102  0.0077
 5035W        W20504   2.602  13.632   0.352 -0.1040 -0.1468  0.0835
 5036W        W20505   5.485  15.948  13.661  0.0769  0.1391  0.1842
 5037W        W20506  16.284   0.037   3.950 -0.1128 -0.1379 -0.0941
 5038W        W20507   5.792  15.635  12.966 -0.1980  0.1378  0.1109
 5039W        W20508  12.452  12.880  13.618 -0.1390 -0.0542 -0.0275
 5040W        W20509  16.734  14.491  15.562 -0.2861  0.0578  0.2086
 5041W        W20510   6.709   9.790   1.683  0.1440 -0.0264 -0.2482
 5042W        W20511  14.687  16.332   3.551 -0.0758  0.1966 -0.2262
 5043W        W20512  16.444   9.379   9.831  0.1961 -0.1338 -0.1924
 5044W        W20513   9.013  12.530   1.217  0.2367 -0.0475 -0.3367
 5045W        W20514   1.355   7.462  11.710 -0.2465  0.1554  0.2248
 5046W        W20515  14.204  13.329  14.224  0.2895  0.1128  0.4360
 5047W        W20516  17.513   8.660   0.218  0.0778 -0.1002 -0.2333
 5048W        W20517   4.423  17.885   3.578 -0.1109 -0.0675 -0.0101
 5049W        W20518  15.376  10.913   1.422  0.0132 -0.0058 -0.2124
 5050W        W20519  16.644  14.167   5.161 -0.2577  0.1924 -0.0907
 5051W        W20520  12.717   1.668  14.269 -0.3500  0.3542  0.0508
 5052W        W20521   1.433  14.573   2.389  0.4756  0.4318  0.0205
 5053W        W20522   9.915   8.394  12.021 -0.2079  0.0252 -0.1779
 5054W        W20523   6.014   1.485   5.056  0.0458  0.3906  0.2124
 5055W        W20524   2.876   6.501  15.034  0.1920  0.2659 -0.1563
 5056W        W20525   9.600  17.969  10.895 -0.0345  0.0676  0.3210
 5057W        W20526   6.028   5.139  13.819 -0.0692 -0.0494  0.1470
 5058W        W20527   1.016  16.110  11.528 -0.2511  0.1132  0.0797
 5059W        W20528  16.071   3.783  10.304 -0.0369 -0.0471  0.1260
 5060W        W20529  14.324   1.804   2.098 -0.0939 -0.7081 -0.0732
 5061W        W20530   0.791  16.223   0.344 -0.2694 -0.3166 -0.0935
 5062W        W20531   9.920  12.474  12.395  0.0449  0.0956 -0.0710
 5063W        W20532  17.221  11.651   4.312 -0.0162  0.0629 -0.0026
 5064W        W20533  13.373   3.209   5.300  0.0980 -0.0322  0.3791
 5065W        W20534   8.264   8.278  15.944  0.3630  0.3545  0.0216
 5066W        W20535   5.981  12.741  12.344 -0.1695  0.2755  0.1136
 5067W        W20536  13.052  15.487  13.300 -0.2394  0.2580  0.3662
 5068W        W20537  13.336  18.236  15.149  0.0887 -0.0023 -0.0448
 5069W        W20538   7.920  10.892   1.512  0.2267  0.0299  0.0717
 5070W        W20539   7.624   3.855  13.350  0.1700 -0.1715  0.0036
 5071W        W20540   7.201  14.649   5.590  0.1031 -0.1152  0.0097
 5072W        W20541  14.724   4.048   3.998 -0.0953 -0.0358  0.1684
 5073W        W20542   6.241  13.445   4.109  0.0440  0.2152  0.1469
 5074W        W20543   4.668   2.027   4.249  0.0215  0.1209  0.2987
 5075W        W20544   1.204  10.185   5.238  0.0502 -0.0076  0.2051
 5076W        W20545  17.692   1.805  12.395 -0.0287 -0.1145  0.1029
 5077W        W20546  10.899   9.873   1.157 -0.1519 -0.2066  0.2419
 5078W        W20547   1.448   1.030   4.160 -0.0845  0.1538 -0.2633
 5079W        W20548   9.739   8.154  10.580  0.0222  0.0275 -0.1101
 5080W        W20549   7.393   6.589   4.874  0.0436  0.2923 -0.1791
 5081W        W20550   3.569  17.950  14.194  0.0329 -0.1749 -0.0060
 5082W        W20551  14.884   4.184   1.899 -0.1008  0.3332  0.2568
 5083W        W20552  14.495   6.777  14.846 -0.4104  0.0833 -0.1797
 5084W        W20553   9.058  15.404   3.146  0.0961 -0.0379 -0.1076
 5085W        W20554  14.380  14.973   5.080 -0.0246  0.2507  0.1551
 5086W        W20555  13.648   6.451  12.171 -0.0768 -0.0467  0.0024
 5087W        W20556   2.775   9.491  13.955  0.2370  0.2638 -0.1128
 5088W        W20557   2.613   3.125   6.108  0.0338 -0.2765  0.1636
 5089W        W20558   9.930  10.477   3.724 -0.1004 -0.1745  0.1827
 5090W        W20559  17.565   0.327  11.673  0.1457  0.0042 -0.0083
 5091W        W20560   7.185  11.946  12.302 -0.4749 -0.0462 -0.0862
 5092W        W20561  13.187   2.816   5.679  0.0392  0.2606 -0.0069
 5093W        W20562  11.155  12.443  12.090  0.4224 -0.1217 -0.2571
 5094W        W20563   1.359  13.069   4.097  0.5837  0.1296 -0.0448
 5095W        W20564   1.806   6.728   2.553  0.1201  0.0983 -0.2307
 5096W        W20565  14.866  16.205   4.811 -0.1021 -0.0389 -0.0872
 5097W        W20566   0.194   8.704   1.844 -0.1866  0.0763  0.0638
 5098W        W20567   8.420   4.470   0.682 -0.1793 -0.1715 -0.0773
 5099W        W20568   7.733  15.629   0.982  0.1844  0.0315 -0.2484
 5100W        W20569   5.751   5.092   4.666 -0.3022 -0.1333 -0.1058
 5101W        W20570   5.597   9.042   1.593  0.1994 -0.0609  0.2040
 5102W        W20571   0.416   0.089   1.313 -0.3608 -0.2054  0.1390
 5103W        W20572   2.150  18.017  10.918  0.1817 -0.2059 -0.0062
 5104W        W20573  17.918  10.832  12.753 -0.2334  0.4256 -0.1082
 5105W        W20574   5.902   0.029   4.511  0.1663  0.1035 -0.2287
 5106W        W20575  14.859   6.334   4.241  0.1198 -0.1885  0.0188
 5107W        W20576   2.610  14.206  15.299 -0.2759  0.2774  0.0783
 5108W        W20577   6.724  17.545   4.105  0.0465  0.0717 -0.1646
 5109W        W20578   6.108   2.644   2.588  0.1320  0.0299  0.4238
 5110W        W20579   0.544   0.596  11.717 -0.0302 -0.3341  0.4665
 5111W        W20580   2.323   7.515   0.178 -0.0202 -0.2551 -0.1303
 5112W        W20581   3.915  13.260  11.768 -0.0913  0.1685  0.2717
 5113W        W20582   7.928  13.982   3.284 -0.0907  0.1608  0.0323
 5114W        W20583  15.709   4.650   1.480  0.1488 -0.0643  0.0609
 5115W        W20584   1.048   9.474  11.471 -0.3303 -0.1549  0.0112
 5116W        W20585  13.197  16.463   4.949  0.0115  0.2863  0.1551
 5117W        W20586  12.582   0.870  15.646 -0.0982  0.0602  0.5645
 5118W        W20587  18.174   9.206  12.596 -0.0899 -0.0767 -0.3132
 5119W        W20588  13.163   3.662   2.361 -0.0346 -0.0987 -0.0204
 5120W        W20589  13.348  14.921   1.836  0.0300 -0.2587  0.1404
 5121W        W20590  13.206  13.288   3.664  0.4226 -0.2205  0.1920
 5122W        W20591  12.231  12.342  10.734  0.1022 -0.1114  0.3063
 5123W        W20592   9.245   6.064  14.563  0.2033 -0.2833 -0.0591
 5124W        W20593  10.972  15.588  12.123 -0.2280 -0.1182  0.3035
 5125W        W20594   1.774   4.696   3.155 -0.1274 -0.2615 -0.0287
 5126W        W20595   1.401  17.885  13.345  0.0544  0.2086 -0.5003
 5127W        W20596   5.784   7.631   5.209 -0.1490 -0.1407 -0.2215
 5128W        W20597  12.023   4.834   3.528 -0.1031 -0.1682  0.2825
 5129W        W20598   2.744   1.533   5.548 -0.1369  0.0463  0.0688
 5130W        W20599  14.827  10.928   3.024 -0.0020 -0.2895 -0.2076
 5131W        W20600   7.941   6.125   2.148  0.1328 -0.3434 -0.3291
 5132W        W20601  17.173  13.289   2.520 -0.1159  0.1734  0.1394
 5133W        W20602  10.975  10.357   0.661 -0.1056 -0.1157 -0.2329
 5134W        W20603  13.964  10.047   0.204  0.0072  0.0568 -0.2160
 5135W        W20604  10.971   8.316   4.677  0.0115  0.0430  0.1123
 5136W        W20605  10.725   8.154  11.469 -0.1671  0.1338  0.0290
 5137W        W20606   7.595  16.532  14.054 -0.1373  0.3823  0.0437
 5138W        W20607  10.985  13.164   2.795  0.2242 -0.2971 -0.1732
 5139W        W20608  10.947   7.653   3.217  0.2451  0.0052  0.3367
 5140W        W20609   1.285   4.531   5.289  0.0369  0.1472  0.1808
 5141W        W20610   1.639   8.237   4.789  0.1111  0.1804  0.0833
 5142W        W20611  16.668  11.824   0.786  0.0549 -0.0542  0.2462
 5143W        W20612   3.842  11.433  12.262 -0.0555 -0.3200 -0.1600
 5144W        W20613  14.282   0.257   0.025  0.0686 -0.0260  0.4352
 5145W        W20614  17.179   3.704  15.112  0.2036  0.2001  0.2747
 5146W        W20615   5.917  13.394  11.411 -0.2786 -0.0913  0.0168
 5147W        W20616   5.518   2.476   5.846  0.1537 -0.2733  0.2433
 5148W        W20617   7.344   8.217   0.037  0.2472 -0.0682  0.0173
 5149W        W20618   9.630  11.511   2.782 -0.2476 -0.1141 -0.2715
 5150W        W20619  10.157   3.772   4.716  0.1278  0.2302 -0.1372
 5151W        W20620  14.919  14.312  14.923  0.3389  0.3181  0.1813
 5152W        W20621  10.420   4.207  12.893 -0.2398 -0.0995 -0.2591
 5153W        W20622   2.918   6.038  11.293 -0.0457 -0.0217  0.0067
 5154W        W20623  11.503   4.143   1.541 -0.1286 -0.1242  0.2396
 5155W        W20624  13.742  17.623  14.441  0.3171  0.0042 -0.0759
 5156W        W20625  15.512   0.481   3.618 -0.1150 -0.3218 -0.0512
 5157W        W20626   5.467   9.427  12.287 -0.2374  0.0208  0.4438
 5158W        W20627   1.182  13.778  15.880  0.0014 -0.2396 -0.1486
 5159W        W20628   5.875  14.259  10.664 -0.0852 -0.1627 -0.1466
 5160W        W20629  14.722  17.439  15.609 -0.1718  0.0897  0.4246
 5161W        W20630   1.556  13.450   2.325 -0.2997 -0.0216  0.0111
 5162W        W20631   6.971   2.909  14.202  0.1851 -0.1975  0.1004
 5163W        W20632  13.614  18.162  14.066 -0.2327  0.1362  0.0859
 5164W        W20633   1.592   0.641  13.961  0.0127  0.0972  0.2618
 5165W        W20634  10.395   2.199  11.961 -0.1594 -0.1457 -0.0932
 5166W        W20635   5.713   7.206  14.299 -0.1342 -0.1705  0.0767
 5167W        W20636   7.593   0.233   3.596  0.2954  0.0411 -0.1916
 5168W        W20637  15.858  17.705  12.393  0.0323 -0.2415  0.1493
 5169W        W20638  15.062   2.882  14.488 -0.0633 -0.2496 -0.0362
 5170W        W20639   4.118   8.774   1.905  0.0945  0.3202  0.1363
 5171W        W20640  18.203  13.540   9.982  0.2803 -0.0263  0.0737
 5172W        W20641   3.291   4.840   6.532 -0.0008 -0.3145 -0.2349
 5173W        W20642   0.141   0.376  11.259 -0.1649  0.0195 -0.2060
 5174W        W20643  16.531  15.340  15.636 -0.4647  0.2109 -0.2572
 5175W        W20644  13.846   6.223   5.071 -0.0095 -0.0742  0.1207
 5176W        W20645   4.105   3.116   3.555 -0.1532  0.0942 -0.1791
 5177W        W20646  18.025  17.865  13.855  0.0363  0.1162 -0.1123
 5178W        W20647  10.720   9.191   5.616 -0.0506 -0.2514 -0.2173
 5179W        W20648   0.250  11.202   2.201 -0.2182  0.2817  0.0112
 5180W        W20649  14.536   6.023  15.694  0.0993  0.1699 -0.0947
 5181W        W20650   4.592   6.628  14.038 -0.3439 -0.1733 -0.1384
 5182W        W20651   8.704   9.736   2.787  0.1374  0.1404 -0.1846
 5183W        W20652   5.719  11.671   0.600  0.0323  0.1483 -0.1710
 5184W        W20653   9.616  10.077  13.266  0.0445 -0.1691 -0.1147
 5185W        W20654  15.082  15.565  15.012  0.0745 -0.2094  0.0183
 5186W        W20655   4.461   0.915  13.290 -0.1065 -0.1764  0.1689
 5187W        W20656  15.332   1.671   5.666 -0.2660  0.2839 -0.1529
 5188W        W20657   6.808  13.991  10.706  0.0590  0.2324 -0.0132
 5189W        W20658  15.361   3.876  13.269 -0.2357  0.3208 -0.3337
 5190W        W20659  10.470  12.214   2.237 -0.0083  0.2666  0.0262
 5191W        W20660  16.277   6.921  12.854  0.0844  0.2028 -0.0627
 5192W        W20661   0.218   6.584  11.029 -0.1686  0.3287  0.3295
 5193W        W20662   7.624  10.631  11.888 -0.1767 -0.0950  0.2641
 5194W        W20663   8.783   7.999  15.889  0.4582  0.0225  0.0951
 5195W        W20664   2.501  14.229  11.146  0.1704 -0.2146  0.3125
 5196W        W20665   7.984  17.767  13.901 -0.0280 -0.0331  0.2151
 5197W        W20666  14.249   1.977   3.465 -0.1123 -0.2030  0.0989
 5198W        W20667  14.403   5.667   2.023  0.3748 -0.0414  0.2071
 5199W        W20668   2.498   7.651  11.729 -0.2651  0.0173 -0.2650
 5200W        W20669   1.342  11.872  15.967 -0.2142 -0.2731  0.1572
 5201W        W20670   7.234   1.307   2.973  0.1452 -0.2979  0.3003
 5202W        W20671  10.608  16.548   1.720  0.3450 -0.2665 -0.1678
 5203W        W20672  10.638  11.635  12.232 -0.1618 -0.0302 -0.0002
 5204W        W20673  11.889   5.652   3.956  0.0395 -0.0220 -0.0920
 5205W        W20674   2.034   5.140  13.400  0.1026  0.0011  0.2694
 5206W        W20675  17.357  15.745  15.303 -0.1498  0.0681 -0.0635
 5207W        W20676   4.832  16.444  10.130  0.0490 -0.4322 -0.1576
 5208W        W20677  14.950  11.656   1.530 -0.0255 -0.0810 -0.1756
 5209W        W20678  13.860   1.711   4.326 -0.0455  0.1281 -0.1529
 5210W        W20679  17.901   5.690  15.946  0.1596  0.0681  0.0686
 5211W        W20680   3.794   5.708   2.849 -0.1333 -0.2615  0.0106
 5212W        W20681  16.355   1.700  12.246  0.1098 -0.5327 -0.0515
 5213W        W20682   5.640   7.134  12.247  0.2688  0.1806 -0.0426
 5214W        W20683   9.806   8.780  13.034  0.1755 -0.2593  0.3043
 5215W        W20684   9.053   7.647  10.651 -0.0653 -0.1054 -0.0497
 5216W        W20685   4.822   0.573   3.418  0.0480  0.2097  0.2080
 5217W        W20686  11.434  13.680  12.578 -0.3007 -0.2584 -0.4070
 5218W        W20687  15.288  18.003   2.057  0.0162 -0.1412  0.4148
 5219W        W20688   5.360  12.416  11.062  0.2342 -0.0201 -0.0008
 5220W        W20689  16.606   1.017  11.616  0.1912 -0.2225  0.1257
 5221W        W20690   9.826  15.649  10.709  0.0602 -0.0143  0.0636
 5222W        W20691  18.197  12.679  15.319 -0.4634 -0.1567 -0.1047
 5223W        W20692  15.984  11.377  11.225 -0.1336 -0.3583 -0.0846
 5224W        W20693  17.175   5.175  15.405 -0.2214 -0.1528  0.2660
 5225W        W20694   7.994   9.820   0.105 -0.0369 -0.1422  0.1487
 5226W        W20695   6.400   1.631   1.303 -0.1677 -0.2305  0.0174
 5227W        W20696   0.202   7.815  10.453  0.1010 -0.0609  0.2036
 5228W        W20697   0.929   9.286   3.807  0.0324 -0.1022 -0.0115
 5229W        W20698  10.381  11.062   2.912 -0.3963 -0.1617  0.1030
 5230W        W20699  15.754  12.620   4.819  0.1799  0.0780  0.0908
 5231W        W20700   1.487  13.564   4.099  0.0839 -0.0268 -0.2620
 5232W        W20701   5.239   5.086   4.396  0.1481  0.2156  0.1472
 5233W        W20702   6.114   2.139  14.229  0.0783 -0.0761  0.1504
 5234W        W20703  15.048   1.978  13.639  0.3458  0.0506 -0.1643
 5235W        W20704   3.129   8.625   1.635  0.3386 -0.1094 -0.0923
 5236W        W20705   2.012   6.093   2.395 -0.0546  0.1292 -0.1309
 5237W        W20706  13.094   2.034   0.557  0.1197  0.3920  0.1077
 5238W        W20707  12.652  17.924   4.519 -0.1755 -0.1691  0.2200
 5239W        W20708  18.378  18.191  12.763  0.0291 -0.3122 -0.0202
 5240W        W20709   3.974   0.510   4.675  0.0830  0.2237 -0.1141
 5241W        W20710   0.352   9.057  15.350 -0.1048  0.1059 -0.0846
 5242W        W20711  12.590   3.644  13.886  0.0287 -0.0004 -0.0980
 5243W        W20712  18.057  15.229   2.514 -0.1913  0.1995 -0.1360
 5244W        W20713   7.415   9.990   3.353  0.0341 -0.0292  0.1261
 5245W        W20714   8.893   5.980  14.175 -0.4664 -0.0782 -0.0507
 5246W        W20715   4.979   7.454   5.031 -0.0643 -0.1355  0.0276
 5247W        W20716   8.636   7.742   0.445 -0.0489 -0.0869  0.0252
 5248W        W20717   5.355   2.917   3.732  0.0550 -0.0221  0.1374
 5249W        W20718  16.794   8.609  11.882 -0.2272 -0.1808 -0.0763
 5250W        W20719  10.398  10.293  11.366  0.0608 -0.3297 -0.1336
 5251W        W20720   9.879  11.962   1.930  0.1074  0.0274  0.1258
 5252W        W20721   9.552  10.855  12.621 -0.2414 -0.2426 -0.1551
 5253W        W20722   0.654   3.094   0.719 -0.1017 -0.1244 -0.0719
 5254W        W20723   9.876  10.340  14.632 -0.5927 -0.0530  0.4137
 5255W        W20724  15.231  12.192   2.636 -0.2903 -0.0160  0.0772
 5256W        W20725  14.198   0.857   3.964 -0.1709  0.0473  0.0957
 5257W        W20726  14.906  17.444  11.839  0.0408  0.1642  0.0244
 5258W        W20727  16.005  18.187  13.403  0.2160 -0.2698 -0.1433
 5259W        W20728   5.947   5.725   2.712  0.0544 -0.1113  0.0427
 5260W        W20729   4.595   5.944   3.481 -0.1267 -0.2989 -0.0081
 5261W        W20730  11.440  17.680  15.085  0.2247  0.1303 -0.1494
 5262W        W20731  13.740   8.020   9.767 -0.0152  0.0630 -0.1531
 5263W        W20732   2.046   8.131   1.887  0.0595  0.4053  0.0994
 5264W        W20733  14.909  16.906  15.620  0.1686 -0.2517 -0.0608
 5265W        W20734  13.605   7.673  10.746  0.1101  0.1930  0.3383
 5266W        W20735   1.144   5.017  15.703  0.1659 -0.4149  0.2081
 5267W        W20736  18.328  10.164  12.141  0.0763  0.0349  0.1747
 5268W        W20737  10.601   5.206   3.887  0.1038 -0.0671  0.0376
 5269W        W20738  10.211   7.208  11.317 -0.0209 -0.0283 -0.1810
 5270W        W20739   0.373   2.080   3.727  0.0199  0.3190  0.1774
 5271W        W20740  13.398   5.257   2.010  0.3865  0.1281  0.0769
 5272W        W20741  18.182  14.814  15.473 -0.2796  0.0022 -0.0297
 5273W        W20742  11.143  11.856   1.735  0.4267  0.0128  0.4126
 5274W        W20743   5.962   5.953  11.180 -0.0031 -0.3361 -0.2313
 5275W        W20744  18.090   5.680   0.826 -0.1448  0.1536  0.1762
 5276W        W20745  14.450   9.270  12.540  0.1098  0.2622 -0.0261
 5277W        W20746   8.962   6.589  15.419 -0.0301 -0.4571 -0.0136
 5278W        W20747   3.747  11.969   2.377 -0.1424 -0.1595  0.0583
 5279W        W20748  14.724   1.506   2.291 -0.0458  0.2656 -0.0181
 5280W        W20749  10.286  11.755   2.282 -0.0851 -0.0259 -0.0981
 5281W        W20750   3.123  14.606   5.510 -0.0469 -0.1162 -0.1374
 5282W        W20751   0.762   5.016  15.291  0.3364 -0.0133  0.2253
 5283W        W20752   8.705  11.215   1.714 -0.0009  0.4272  0.1456
 5284W        W20753   5.665  10.048  15.693  0.0756 -0.3815  0.0830
 5285W        W20754   4.896   4.577   2.811  0.2731  0.0240 -0.1276
 5286W        W20755   9.487  10.385   2.685 -0.0548 -0.0020 -0.2560
 5287W        W20756  12.879  12.998   1.430  0.0585  0.0282 -0.2488
 5288W        W20757  10.094   4.066   4.120  0.0242  0.0133 -0.0074
 5289W        W20758   6.845   7.370   1.730  0.0662 -0.1274  0.2814
 5290W        W20759   1.792   1.683   5.406  0.0713  0.2019 -0.0785
 5291W        W20760   8.534  12.308   1.545  0.0055  0.0727 -0.1582
 5292W        W20761   6.626   9.447  12.251 -0.0213 -0.0267 -0.2830
 5293W        W20762   4.583   7.562  13.869 -0.0089  0.1439  0.2058
 5294W        W20763  17.453   8.127   4.606 -0.0266  0.2823 -0.3427
 5295W        W20764  14.135   9.946  10.102 -0.1488  0.2061  0.1261
 5296W        W20765   9.454  12.410  14.712 -0.0728  0.0644  0.0104
 5297W        W20766  11.319  16.642   3.191  0.2833  0.1870 -0.1166
 5298W        W20767   9.114  10.990  14.610  0.1301 -0.1793 -0.1834
 5299W        W20768  11.172  14.732  14.052  0.0117  0.0086 -0.0595
 5300W        W20769   1.102  15.247  14.874  0.0917 -0.0448 -0.0792
 5301W        W20770  13.760   6.584  14.648  0.1395  0.0335 -0.1028
 5302W        W20771  15.179   6.031  15.485  0.0619  0.2683  0.1080
 5303W        W20772   7.652   1.892   3.690 -0.0732  0.1123  0.3512
 5304W        W20773   9.619  12.361   2.504 -0.3463  0.1906  0.0453
 5305W        W20774  11.070   8.459  13.924  0.1438 -0.2827 -0.0318
 5306W        W20775   7.156   2.907   3.415 -0.0741 -0.2254  0.1436
 5307W        W20776   3.204   1.832   5.619  0.0312 -0.1878 -0.3719
 5308W        W20777  17.494  14.328  14.437  0.4037 -0.0391  0.1153
 5309W        W20778   9.988   5.561   1.986  0.0706  0.2847 -0.0478
 5310W        W20779  16.174  16.477  13.802  0.0673 -0.2544  0.0845
 5311W        W20780  18.090   1.781  12.787  0.0710  0.0502 -0.1554
 5312W        W20781  11.825  10.689  12.344 -0.0094  0.0930  0.1670
 5313W        W20782  18.197   8.796  15.798 -0.1598  0.0885 -0.4009
 5314W        W20783  16.939  10.567   1.900  0.1756 -0.1046  0.0922
 5315W        W20784   0.171   2.753   5.038 -0.2633  0.4416 -0.1439
 5316W        W20785   5.709   2.008   1.232 -0.3014 -0.0679  0.2560
 5317W        W20786   2.059   7.294   2.517 -0.4141  0.3827  0.0600
 5318W        W20787   3.767  16.578  12.611  0.0089 -0.1407 -0.0273
 5319W        W20788   5.683  12.431   3.450 -0.2259  0.3616  0.2440
 5320W        W20789  17.648   8.902  14.470 -0.0109 -0.0817 -0.1225
 5321W        W20790   4.050  11.375   4.383 -0.0642 -0.2181 -0.3306
 5322W        W20791  18.442   1.823   2.472 -0.1784  0.2018  0.0537
 5323W        W20792   4.981   3.475  11.277 -0.0405 -0.1332 -0.1346
 5324W        W20793  16.123   4.904  13.841 -0.1125  0.3942  0.1492
 5325W        W20794   1.000   4.154   2.207  0.0030 -0.5638  0.2785
 5326W        W20795   6.443  16.297   0.657 -0.0247 -0.2284  0.0430
 5327W        W20796  13.690   7.055   3.279  0.2582  0.1749  0.2646
 5328W        W20797  18.463   1.023   0.197  0.0428 -0.0198 -0.1311
 5329W        W20798  10.145   5.388  11.957  0.2256 -0.3578  0.1854
 5330W        W20799   3.115   1.513   4.282 -0.0177  0.0175 -0.0651
 5331W        W20800  17.748  10.488  15.532  0.1061 -0.2090 -0.0529
 5332W        W20801  15.075   3.566  15.259 -0.2683  0.2737 -0.1609
 5333W        W20802  17.757   6.174  14.739 -0.1146  0.2946  0.2239
 5334W        W20803   3.816   9.911   0.671  0.0314 -0.2737 -0.0580
 5335W        W20804  11.161  12.720  12.602  0.3422 -0.1992  0.0941
 5336W        W20805   4.717   5.308  11.265  0.0674  0.2424  0.2660
 5337W        W20806  11.634   4.020  12.623 -0.2266  0.1149 -0.0007
 5338W        W20807  12.287   7.319   1.067 -0.1542  0.2026 -0.1650
 5339W        W20808   6.298  17.367   1.138  0.1042 -0.3165  0.0077
 5340W        W20809  17.857   5.696   3.170  0.0909  0.3868  0.1059
 5341W        W20810   6.543   4.144   1.887  0.0442  0.2159 -0.3216
 5342W        W20811   0.765  15.466  13.366  0.1309  0.1906  0.0154
 5343W        W20812   5.757   8.535   4.020 -0.2739 -0.3651  0.2621
 5344W        W20813  13.501   8.421  10.147  0.1314 -0.2957  0.0892
 5345W        W20814   8.227   0.130  10.933  0.2873 -0.0373 -0.0917
 5346W        W20815  14.471  15.793  15.791 -0.0086 -0.0785 -0.0460
 5347W        W20816  10.230  16.706   2.097 -0.0158  0.0104 -0.0820
 5348W        W20817  10.802   4.424  12.561  0.3286  0.1713 -0.1688
 5349W        W20818  14.035  12.116   0.272 -0.1344  0.0986 -0.4393
 5350W        W20819   3.017   6.174   3.183  0.1704  0.3331 -0.1130
 5351W        W20820  11.692  14.909  12.887 -0.0903  0.2003  0.5064
 5352W        W20821  18.457  13.955   1.393  0.0980 -0.1476 -0.1602
 5353W        W20822  17.895   4.891   1.262 -0.2123 -0.0991  0.1035
 5354W        W20823  15.323  14.924   2.478  0.2420 -0.2520 -0.2909
 5355W        W20824  12.967   6.007  11.695 -0.1315 -0.2188 -0.1483
 5356W        W20825   4.516   1.662  13.809 -0.3041  0.0413  0.4460
 5357W        W20826   1.828  11.874  13.873 -0.1569  0.2018  0.0627
 5358W        W20827   4.406  15.387   0.958 -0.2082 -0.1391 -0.1306
 5359W        W20828   8.583   0.686   4.394 -0.2213 -0.0752  0.2519
 5360W        W20829   8.401  12.332  14.402  0.1561  0.0429 -0.1832
 5361W        W20830  11.960  11.153   4.663  0.2256 -0.0751 -0.5137
 5362W        W20831  13.457   4.881  13.927 -0.3678 -0.0413  0.2498
 5363W        W20832  12.566  11.090  15.616  0.1375 -0.2606 -0.1106
 5364W        W20833   1.954  13.432  12.547  0.4924  0.2565 -0.1080
 5365W        W20834  11.810  10.286   4.139  0.1147  0.0381  0.2203
 5366W        W20835  14.996   3.982  15.583  0.1579  0.1520  0.0393
 5367W        W20836  13.636   1.952   5.814  0.4489 -0.1647 -0.2207
 5368W        W20837   8.703  12.211  12.333 -0.1727 -0.3843 -0.2378
 5369W        W20838   2.363  12.461  15.220  0.0512  0.2833 -0.3347
 5370W        W20839   1.071   2.764   2.313 -0.2920 -0.0408  0.0410
 5371W        W20840  10.781  15.531   2.064  0.2675 -0.0562  0.2841
 5372W        W20841   2.730  17.048  11.456 -0.1698  0.0141  0.0009
 5373W        W20842  16.189  16.612   2.731  0.0090 -0.4003  0.1351
 5374W        W20843   4.009   6.971  14.373 -0.2314 -0.2901  0.2380
 5375W        W20844   9.258  14.871   1.286 -0.1201 -0.0816  0.2230
 5376W        W20845  16.763  11.981   2.371 -0.2889  0.1339  0.3564
 5377W        W20846   6.478  14.139  14.110 -0.0263 -0.1076  0.1944
 5378W        W20847  10.722  14.810  10.829  0.2575  0.0224 -0.2119
 5379W        W20848   7.718  12.149   5.194  0.0370  0.0412  0.2641
 5380W        W20849  10.157   6.133   3.448  0.0737  0.2847 -0.0010
 5381W        W20850   6.774   7.746   3.350 -0.2978  0.1937 -0.0545
 5382W        W20851   7.662   2.201   4.621 -0.2153 -0.2031  0.0402
 5383W        W20852   9.491   6.664  10.324  0.0750 -0.1015 -0.1682
 5384W        W20853   7.733  12.886  14.728 -0.0093  0.1112  0.0655
 5385W        W20854  10.167   3.688   3.245 -0.1958 -0.2380 -0.4366
 5386W        W20855  17.501   5.427   0.254 -0.0352 -0.2953  0.0804
 5387W        W20856  16.189  11.296   2.737  0.0583  0.1704 -0.1572
 5388W        W20857  12.488  13.753   5.657 -0.0516 -0.2695  0.0530
 5389W        W20858   4.909   1.644  15.470  0.2321 -0.0209 -0.1228
 5390W        W20859   4.364  16.118  10.933  0.0122 -0.1818  0.3371
 5391W        W20860   5.406   4.233  15.891 -0.0322  0.1375 -0.0314
 5392W        W20861   3.884  11.973   1.359  0.2094 -0.2533 -0.0102
 5393W        W20862   1.265  10.473  12.453 -0.0369  0.0059 -0.0472
 5394W        W20863   0.397   5.611  13.875 -0.2587 -0.3021  0.1101
 5395W        W20864   1.442   4.629   3.537  0.0780  0.0318 -0.0256
 5396W        W20865  12.439  15.136   0.642 -0.3532  0.3034  0.0524
 5397W        W20866  12.533   9.345   0.677 -0.1235  0.2336 -0.1820
 5398W        W20867   7.562  10.628  15.798  0.0072  0.1847  0.1173
 5399W        W20868  15.402   7.065   5.765  0.3155  0.1154  0.0265
 5400W        W20869   9.929   3.004   3.842 -0.1025  0.0386  0.2644
 5401W        W20870  14.737  11.556   4.057 -0.0446 -0.0545  0.3131
 5402W        W20871   6.999  10.642  13.410 -0.3176  0.1618 -0.0432
 5403W        W20872  10.068   5.018  14.795 -0.3204 -0.0301 -0.2417
 5404W        W20873   2.065   1.420   3.045  0.0420  0.3358  0.1766
 5405W        W20874  12.742   2.038  11.736  0.0157  0.1399  0.1210
 5406W        W20875  11.345   3.398   0.300  0.1760 -0.1106 -0.4147
 5407W        W20876   2.528   1.689   0.279 -0.1491 -0.0111  0.1857
 5408W        W20877  10.862  11.734  15.427 -0.0408 -0.2288  0.1160
 5409W        W20878  14.719   8.861  14.611 -0.2951 -0.0211 -0.0487
 5410W        W20879  14.230  16.676   2.562 -0.1507  0.0735  0.0519
 5411W        W20880   6.562   3.063  10.971 -0.1261 -0.0509  0.3870
 5412W        W20881   9.993   4.621  15.161 -0.0226  0.1970 -0.1779
 5413W        W20882   8.927   1.923  12.354 -0.0132  0.1974 -0.0249
 5414W        W20883  17.836  13.366  11.305 -0.1075  0.1310  0.0084
 5415W        W20884  18.184   0.906   5.450 -0.2922 -0.0005 -0.1280
 5416W        W20885   9.229  16.264  11.695 -0.1156  0.2588 -0.1981
 5417W        W20886  16.500   6.045  13.458  0.2136  0.0857 -0.1584
 5418W        W20887  17.180   1.492   1.667  0.0911  0.1304  0.1164
 5419W        W20888   0.147  13.221  15.264  0.0412  0.3436 -0.0627
 5420W        W20889   5.390   3.518   3.137  0.2103 -0.2019 -0.1820
 5421W        W20890  16.503  13.867   2.818  0.1680 -0.0449  0.0019
 5422W        W20891   6.628   8.447   1.318 -0.0695 -0.2190 -0.0932
 5423W        W20892   0.008  11.063   1.494  0.2265  0.0955 -0.0076
 5424W        W20893   4.872   5.763   3.087 -0.1982 -0.0632 -0.2802
 5425W        W20894   3.965  13.943   1.008 -0.1457 -0.1563  0.4911
 5426W        W20895   2.859   0.477   2.473  0.2179  0.0315 -0.0723
 5427W        W20896  18.066   8.606  11.171  0.1886  0.0006  0.1997
 5428W        W20897  12.048   7.877  13.161  0.1040 -0.0853  0.2984
 5429W        W20898  11.204  17.324  15.343  0.0869  0.0842 -0.0684
 5430W        W20899   1.879   6.217  12.601 -0.1667 -0.1781  0.1436
 5431W        W20900   2.089  16.338   0.704 -0.1246 -0.2216  0.0078
 5432W        W20901  16.986  15.052  12.774  0.3971 -0.1505 -0.1105
 5433W        W20902  11.959  10.394  15.618  0.0337  0.1912  0.1413
 5434W        W20903   9.123   6.258  12.684 -0.1121  0.0881 -0.1574
 5435W        W20904  10.524  11.545   3.070 -0.2851 -0.0126 -0.2277
 5436W        W20905   9.241  11.764   1.435 -0.4184 -0.2213 -0.2055
 5437W        W20906   1.766  15.921  14.949  0.0599  0.0755  0.3625
 5438W        W20907  14.865  18.108   0.733  0.2342 -0.0516 -0.4522
 5439W        W20908  15.481   8.890   2.216 -0.0354  0.1605 -0.1028
 5440W        W20909  14.199   5.975  14.230  0.0370  0.1529 -0.1962
 5441W        W20910  11.928   0.542   4.294 -0.0982  0.0313  0.1967
 5442W        W20911   5.749  13.783  12.200 -0.0328 -0.5076  0.1879
 5443W        W20912   9.236  14.481  15.091  0.0921 -0.0557  0.1063
 5444W        W20913  15.289  14.068  14.347  0.1304 -0.4375 -0.0839
 5445W        W20914   5.708   9.214  14.286 -0.0649 -0.2166 -0.3921
 5446W        W20915   0.122  17.987   4.538 -0.2318 -0.1105  0.4419
 5447W        W20916   4.163   8.256  14.366  0.0129 -0.4745 -0.0252
 5448W        W20917   7.265   4.362   3.246 -0.2669  0.2784  0.1077
 5449W        W20918   2.076   1.716   1.842 -0.0073  0.0668 -0.2198
 5450W        W20919   7.013  12.402   0.983  0.4115 -0.0140 -0.6076
 5451W        W20920   0.074   4.537   6.136 -0.2348 -0.0691  0.2341
 5452W        W20921   6.700   2.104   4.976 -0.0208  0.1310  0.2092
 5453W        W20922   0.603   3.618   0.908  0.2921  0.0941 -0.1841
 5454W        W20923   7.758   3.703  12.255 -0.3602  0.0702  0.2827
 5455W        W20924  15.114   2.523  15.128  0.2033 -0.3274  0.0582
 5456W        W20925  12.702  15.202  11.440  0.0707  0.0862 -0.1397
 5457W        W20926   9.960   6.666   3.983 -0.1618 -0.1387 -0.1219
 5458W        W20927   0.331  13.235  13.570  0.3628 -0.1658 -0.1811
 5459W        W20928   4.061  10.404   4.511  0.0435  0.0006  0.0926
 5460W        W20929   1.606  12.990  12.754 -0.0054  0.1376 -0.4619
 5461W        W20930  18.320  16.702   2.432 -0.1629  0.1106  0.0705
 5462W        W20931  11.557   4.812   3.304  0.0649 -0.1356  0.1033
 5463W        W20932   8.488  16.111  10.519  0.2372 -0.0443 -0.0720
 5464W        W20933  12.548   6.827   0.481 -0.1784  0.3851  0.2236
 5465W        W20934  10.753   6.425  11.933 -0.2409 -0.1398 -0.1308
 5466W        W20935  13.982  10.987   0.770  0.0943 -0.1694 -0.0871
 5467W        W20936   3.598  11.140  14.335 -0.4516  0.0156  0.1230
 5468W        W20937  10.833   0.726   5.136 -0.0145 -0.2302 -0.2728
 5469W        W20938  17.060  16.674   3.153  0.1161  0.0626  0.3225
 5470W        W20939   0.155  16.213  13.483 -0.1940 -0.0036 -0.0838
 5471W        W20940  10.694   3.068  11.358 -0.2291  0.1225  0.0902
 5472W        W20941  13.395   7.384  13.899  0.1038 -0.2573  0.0566
 5473W        W20942  16.255   3.653  15.771 -0.3333  0.0871  0.0933
 5474W        W20943  11.803   1.545   1.508  0.0727  0.1849 -0.0252
 5475W        W20944   7.453   8.220   0.881 -0.2068  0.0954  0.1586
 5476W        W20945   1.515  15.479  15.082  0.1776  0.0012 -0.2866
 5477W        W20946   3.721   9.173  15.950  0.3543 -0.1419 -0.1913
 5478W        W20947   7.041   2.423   3.044  0.1060 -0.2384 -0.0570
 5479W        W20948   9.223   4.806  10.893 -0.2806 -0.0882 -0.4494
 5480W        W20949  12.426  14.456  14.627 -0.1113 -0.0112  0.2315
 5481W        W20950   7.047  15.537   4.117  0.1153  0.2299  0.2067
 5482W        W20951   6.427  16.277   4.542 -0.0655  0.0397 -0.4194
 5483W        W20952   3.274  18.417   3.319 -0.3060 -0.3397  0.2020
 5484W        W20953   7.142  12.726   5.073  0.0089 -0.0219 -0.0710
 5485W        W20954  16.951   6.139  13.270 -0.1328 -0.3684  0.4699
 5486W        W20955  17.269  17.156   4.090  0.2174 -0.1013  0.0261
 5487W        W20956   4.734   8.893   0.796  0.0997  0.0692 -0.2733
 5488W        W20957   7.031  17.911   1.012 -0.1600 -0.0055 -0.1627
 5489W        W20958   5.971   8.387  15.033 -0.1467  0.0725 -0.0364
 5490W        W20959  14.597   6.322  14.967  0.5023  0.0462 -0.0854
 5491W        W20960  10.268  10.784   1.731  0.0509  0.2790  0.2238
 5492W        W20961   5.415  17.076  15.375 -0.2147  0.1714 -0.0965
 5493W        W20962   8.692  11.737   0.480  0.0202  0.0709 -0.0587
 5494W        W20963  10.741   3.785  11.292 -0.1756 -0.0314 -0.1072
 5495W        W20964  17.999  14.102   4.509  0.1760 -0.2208 -0.0845
 5496W        W20965   6.518   8.666  14.236  0.2892  0.0676  0.1916
 5497W        W20966   3.770   1.278  14.938  0.0591  0.0169 -0.1196
 5498W        W20967   0.636   1.302  14.564  0.0276 -0.0040  0.1362
 5499W        W20968   1.526   6.348  10.786  0.0056 -0.1275  0.0811
 5500W        W20969   2.463   4.687   2.930  0.2206  0.1057  0.0872
 5501W        W20970  11.633  16.958   0.274 -0.0109 -0.4396  0.2766
 5502W        W20971   1.569  14.766  13.673 -0.0313 -0.1322  0.0758
 5503W        W20972  10.353  16.190  14.060  0.0268  0.1987 -0.0193
 5504W        W20973  12.195  17.635   0.624 -0.0151 -0.1457 -0.2429
 5505W        W20974  12.250   5.749  15.174  0.0893  0.2385  0.0241
 5506W        W20975   4.458  12.530  12.196 -0.0637  0.0073  0.4708
 5507W        W20976   0.035  10.970   2.925 -0.1029  0.1900 -0.0247
 5508W        W20977  16.604   2.482   1.236 -0.0925 -0.0090  0.1096
 5509W        W20978  10.905   0.244   1.186 -0.2226  0.2122  0.0326
 5510W        W20979   6.300   1.291  11.000  0.3114 -0.2579  0.0857
 5511W        W20980   7.577  16.162   0.493  0.2679  0.3222 -0.1189
 5512W        W20981   9.162  16.707   0.933 -0.4078 -0.1560  0.1519
 5513W        W20982   2.053  10.859   5.939 -0.0657 -0.3157 -0.0844
 5514W        W20983  12.629   6.003  15.358 -0.0989 -0.0017 -0.4358
 5515W        W20984  15.373   5.194  12.043  0.2091 -0.3619 -0.0606
 5516W        W20985  10.421  15.333  12.054 -0.1139  0.2716  0.0491
 5517W        W20986  12.501  14.680   4.577  0.1420  0.1250 -0.0450
 5518W        W20987  12.188   2.765  15.886 -0.0290 -0.0773  0.1402
 5519W        W20988   3.057  13.780   2.748 -0.1484 -0.2614  0.0805
 5520W        W20989  12.490  13.916   0.682 -0.0420 -0.3585  0.2784
 5521W        W20990   7.080  10.038   0.026 -0.1484 -0.3556  0.1181
 5522W        W20991   7.471   1.783  15.950  0.1924  0.0133  0.3179
 5523W        W20992   7.548   7.075   1.285  0.0019  0.1614 -0.2406
 5524W        W20993  14.300  17.614   2.312 -0.1188 -0.0259  0.0646
 5525W        W20994   9.114   2.414  12.158 -0.4390 -0.0680  0.3776
 5526W        W20995   5.158  10.594   3.511  0.0113  0.0166 -0.2713
 5527W        W20996   8.767   2.717   5.234  0.2222  0.0149 -0.2396
 5528W        W20997   8.159   7.913  14.103 -0.2173 -0.2474  0.0071
 5529W        W20998  15.225  15.687  15.799 -0.1001 -0.1382  0.1898
 5530W        W20999   1.655  12.386  10.979 -0.2371 -0.0696  0.0550
 5531W        W21000  15.163   7.759  15.381  0.0829  0.1047 -0.2533
 5532W        W21001   3.392  15.897  15.976 -0.0179  0.0157  0.0948
 5533W        W21002  13.756   7.561  11.213 -0.0076 -0.0565  0.2215
 5534W        W21003  13.920   4.088  13.549 -0.0796  0.4127 -0.0615
 5535W        W21004  15.720   5.290   1.167 -0.0481  0.0060  0.1061
 5536W        W21005   4.940   9.327   4.950  0.0202  0.2151 -0.1519
 5537W        W21006   8.779   6.075  15.618 -0.1482  0.2708  0.1767
 5538W        W21007   1.601  11.560   1.295  0.2030 -0.2065 -0.0059
 5539W        W21008   0.562  17.482   2.664 -0.1781  0.0739 -0.0488
 5540W        W21009   8.759  15.122  10.898 -0.0637 -0.0385  0.0387
 5541W        W21010  12.932   2.424  13.622 -0.0314  0.2366 -0.1491
 5542W        W21011   9.775  11.253   5.453  0.2288 -0.0962 -0.1513
 5543W        W21012  12.908   0.373   2.818 -0.2455  0.0967 -0.3220
 5544W        W21013   3.990   5.441  12.876  0.2391 -0.1219 -0.0377
 5545W        W21014   3.961   1.127  14.286 -0.2466 -0.2890 -0.0111
 5546W        W21015  16.093  11.878  12.448 -0.0135  0.1518  0.1154
 5547W        W21016   3.094   5.744  15.334 -0.1168  0.1356 -0.1203
 5548W        W21017  14.440   8.757  13.842 -0.0255 -0.0139 -0.0594
 5549W        W21018  12.107   4.811  12.406  0.0691  0.0049  0.4651
 5550W        W21019   2.357  10.051   2.526  0.0015  0.1623 -0.1919
 5551W        W21020   4.346   4.454   0.833  0.0715 -0.3062  0.2243
 5552W        W21021  10.336   2.346   5.006 -0.2079 -0.2391  0.2284
 5553W        W21022  13.263   0.058  14.652 -0.0578 -0.0343  0.0147
 5554W        W21023   8.427  15.210  15.578 -0.2290 -0.4149 -0.0446
 5555W        W21024   7.454  13.279   4.065  0.0738 -0.3038 -0.0438
 5556W        W21025   1.464   6.398   5.146  0.1594  0.0929 -0.1140
 5557W        W21026  14.060  13.130  12.045 -0.3314  0.0815  0.1060
 5558W        W21027  13.300  17.457  15.294  0.0939 -0.0727 -0.0372
 5559W        W21028  14.372   4.626   3.018 -0.2506 -0.0176 -0.1582
 5560W        W21029  14.378   7.303   2.355  0.4461 -0.2479  0.0178
 5561W        W21030  11.516  13.523   4.169 -0.0158  0.0643 -0.0857
 5562W        W21031  17.074   6.440  14.285 -0.0229  0.3193 -0.1706
 5563W        W21032  17.443   0.100  12.683 -0.5134  0.1686 -0.1536
 5564W        W21033  18.215  16.200  13.020 -0.0066 -0.2086  0.0853
 5565W        W21034  11.140   2.730  11.190  0.0319  0.1885  0.2342
 5566W        W21035   5.646  18.039   4.665 -0.0253 -0.0731 -0.0998
 5567W        W21036  13.162   1.973   4.524 -0.0081  0.0805 -0.2374
 5568W        W21037   2.588  16.801  13.776  0.3295  0.0360 -0.0047
 5569W        W21038  16.375  13.219  13.501  0.0492 -0.3291 -0.0756
 5570W        W21039  15.792  12.962  13.318 -0.0724 -0.0766  0.0332
 5571W        W21040  16.836   4.944   0.801  0.2750  0.2983  0.0204
 5572W        W21041   4.518   5.717   5.457  0.0237  0.1695  0.0376
 5573W        W21042  12.215   0.130   4.673  0.1750 -0.1876 -0.0783
 5574W        W21043   8.374  12.145  11.419 -0.1332 -0.0177 -0.3361
 5575W        W21044  11.730   6.408   1.640  0.0285 -0.4497  0.2456
 5576W        W21045   1.909   1.914  15.622 -0.0561  0.0671  0.2998
 5577W        W21046  15.515   4.724   1.970 -0.1121  0.1101  0.0628
 5578W        W21047   6.738  17.590  12.010  0.0710  0.1260 -0.0411
 5579W        W21048   4.575   3.331  14.691  0.0601  0.1820  0.0284
 5580W        W21049   0.343  17.688  14.165 -0.0086 -0.2054 -0.1877
 5581W        W21050   9.925   0.191  13.780 -0.4275  0.2628 -0.1857
 5582W        W21051   3.443  17.771  13.611 -0.0791 -0.0058  0.0547
 5583W        W21052   2.725  11.644   1.928  0.0981  0.0638  0.2022
 5584W        W21053   8.359   3.558   3.803  0.2489 -0.1839 -0.3700
 5585W        W21054   6.999   5.664  15.632 -0.1487 -0.2362 -0.2116
 5586W        W21055   8.820   2.279  14.133 -0.1714  0.1172  0.1593
 5587W        W21056  15.425   8.208  14.358  0.0133  0.1742  0.2183
 5588W        W21057  18.216  16.771   5.317 -0.1187 -0.0838 -0.2095
 5589W        W21058  16.680   3.243  11.387 -0.2043  0.0913 -0.2487
 5590W        W21059  17.699   6.925   0.838 -0.0846 -0.0544  0.2668
 5591W        W21060   5.982  12.757   1.337 -0.0857 -0.1758  0.2094
 5592W        W21061  11.884   1.431  10.345 -0.2047 -0.2228 -0.0176
 5593W        W21062  12.251   7.526   3.840  0.1104 -0.0706 -0.0981
 5594W        W21063  14.503   1.262   0.904 -0.2157 -0.0148 -0.0127
 5595W        W21064   7.717   9.620   6.406  0.0722  0.0992 -0.2974
 5596W        W21065   7.637  17.651   0.487 -0.3195  0.0805  0.0120
 5597W        W21066  17.262  11.135   4.553 -0.3305 -0.0336  0.1408
 5598W        W21067   7.349   6.246  13.574 -0.1260  0.0138 -0.0649
 5599W        W21068  18.251   1.783  15.255  0.0632 -0.1310 -0.0162
 5600W        W21069   6.568  13.679  11.925 -0.0914  0.2938  0.1509
 5601W        W21070   8.875  11.118   5.038  0.0574 -0.0390  0.0715
 5602W        W21071  11.664   7.737  13.470  0.1244 -0.1214 -0.0492
 5603W        W21072   4.491   8.350   5.918 -0.1088  0.0681 -0.1436
 5604W        W21073   4.204   2.284   3.445  0.0509 -0.3436 -0.2585
 5605W        W21074   6.855  17.994  10.939  0.1046  0.0692 -0.0597
 5606W        W21075  16.048  17.305   1.586 -0.2918 -0.1437 -0.0416
 5607W        W21076   5.888   9.240   4.919  0.0809  0.1841 -0.0401
 5608W        W21077  11.825  16.015  10.986  0.0118  0.1183  0.0712
 5609W        W21078   8.463  11.383   5.079  0.0185 -0.0760  0.1494
 5610W        W21079   9.506  10.003  14.604  0.1711 -0.0233  0.0862
 5611W        W21080  13.200   8.269   3.567 -0.1247  0.0219  0.1308
 5612W        W21081   4.655   4.140   1.121 -0.2729  0.1979  0.2464
 5613W        W21082  18.084  16.240   4.571  0.0007 -0.1693  0.2721
 5614W        W21083  15.047   6.251  13.207 -0.2080  0.5555 -0.1122
 5615W        W21084   5.878   6.154  14.756  0.0649  0.2355  0.1701
 5616W        W21085   2.434   6.618  14.791 -0.1477 -0.2179  0.1220
 5617W        W21086   9.475   6.182   1.678  0.1783 -0.1538 -0.1368
 5618W        W21087  13.756   5.018   5.661 -0.0184  0.0411  0.0032
 5619W        W21088   7.418  15.400   1.901 -0.4173 -0.1394  0.2915
 5620W        W21089   7.953   2.411   1.709  0.0398 -0.3703  0.0063
 5621W        W21090  11.385   2.157   3.202  0.2875 -0.1837  0.1635
 5622W        W21091  18.358   3.462   1.505  0.4334  0.0055  0.0054
 5623W        W21092   9.636   4.758  11.851 -0.0712  0.0641 -0.1393
 5624W        W21093  16.695  11.824   5.686 -0.1239  0.0962 -0.0175
 5625W        W21094  12.320   7.003   9.720 -0.0105 -0.2517  0.0242
 5626W        W21095   4.547  16.915   0.386  0.0085  0.2684 -0.1462
 5627W        W21096  15.823   6.067  12.721 -0.1103 -0.1745 -0.0154
 5628W        W21097  18.294   9.412  13.387  0.1040 -0.4270  0.0640
 5629W        W21098   8.731   6.101   4.385  0.1500  0.1834 -0.0510
 5630W        W21099   0.718  16.089   4.660 -0.1373 -0.1139  0.1741
 5631W        W21100  11.390   5.543  15.222 -0.0509  0.1593  0.1471
 5632W        W21101  14.440   4.079  13.705 -0.3939 -0.0001 -0.2286
 5633W        W21102   7.018   5.244   4.458  0.0228  0.0589  0.2596
 5634W        W21103  12.182  13.451  10.854 -0.0877 -0.0141 -0.1678
 5635W        W21104   1.863   3.119   0.289 -0.2338 -0.0862  0.0040
 5636W        W21105   4.421  10.906  12.486 -0.0293 -0.0089  0.1123
 5637W        W21106  12.909  16.456  14.571  0.3709  0.0152  0.1151
 5638W        W21107  14.334  11.029   4.783  0.0725  0.1561  0.0737
 5639W        W21108   8.941  17.691   0.191  0.1618 -0.0684 -0.0105
 5640W        W21109   2.799   5.725  12.300 -0.1203 -0.0240 -0.0353
 5641W        W21110   0.678   6.997   3.011 -0.3207 -0.1445 -0.1375
 5642W        W21111  10.834  11.157   3.150  0.1914  0.1235  0.2537
 5643W        W21112   1.219  17.120   3.355 -0.1256 -0.0754  0.2596
 5644W        W21113  14.637  13.382   2.792  0.1792  0.0024  0.1319
 5645W        W21114   0.273   4.637   5.622  0.0718 -0.0488 -0.2603
 5646W        W21115   6.828  17.826  15.974  0.2517 -0.2497 -0.2467
 5647W        W21116  17.369   1.232  14.120 -0.0596 -0.0001 -0.2104
 5648W        W21117   8.472  17.640  13.446 -0.1409 -0.0028 -0.1322
 5649W        W21118   9.845   5.050   4.904  0.0861 -0.0179  0.1615
 5650W        W21119   3.560  14.479  11.679 -0.0323 -0.1346 -0.0678
 5651W        W21120  10.345  15.528   4.199 -0.0350 -0.2468 -0.0369
 5652W        W21121   8.200  10.294  12.175 -0.0107 -0.2861  0.3607
 5653W        W21122   4.520   1.483  15.784 -0.1017 -0.0235  0.1602
 5654W        W21123   5.847   6.940  10.198  0.0565 -0.0718 -0.1165
 5655W        W21124   6.742  10.579  14.957 -0.2438 -0.2979 -0.2141
 5656W        W21125   2.099   9.756   3.278  0.0261  0.1913 -0.0506
 5657W        W21126  10.471  16.497  15.469 -0.2203  0.1824 -0.4825
 5658W        W21127  10.185  11.306   3.928  0.0345 -0.1636 -0.1069
 5659W        W21128   9.580   9.837   0.538 -0.0247  0.0348  0.0067
 5660W        W21129  15.686  12.541  11.018 -0.1486  0.2106 -0.0236
 5661W        W21130  16.737  16.312   1.828  0.0200  0.0004 -0.0036
 5662W        W21131   3.374   2.658  11.485  0.1899  0.1959 -0.1643
 5663W        W21132  12.522   3.872  12.203  0.4023  0.1347  0.1125
 5664W        W21133   4.006  15.453   1.330 -0.1028 -0.0763 -0.0735
 5665W        W21134  14.336  12.914  11.236 -0.4248 -0.0519  0.0582
 5666W        W21135  11.449   4.522  15.884  0.3555 -0.1125  0.3086
 5667W        W21136   5.346  12.376  13.066 -0.0021  0.1484 -0.2448
 5668W        W21137   6.083   9.685   1.181 -0.0561  0.2855 -0.2752
 5669W        W21138   7.765  13.276  13.370  0.0540  0.2082 -0.1274
 5670W        W21139   8.282  15.240   4.906 -0.0192  0.2405 -0.3247
 5671W        W21140   9.136  17.488   2.532  0.0579  0.0790  0.1256
 5672W        W21141  15.379   9.048   0.748 -0.1444  0.1156  0.1509
 5673W        W21142   2.040  10.134   1.002 -0.0760  0.0963 -0.1892
 5674W        W21143  17.733   3.132   1.120  0.1092 -0.0018 -0.2208
 5675W        W21144   7.678   1.959  13.629  0.0207 -0.1662  0.2141
 5676W        W21145   0.381  18.357   4.090 -0.0616  0.4300 -0.2641
 5677W        W21146  17.628  15.503   3.917  0.0278  0.1790  0.2268
 5678W        W21147   4.136  17.734   1.935  0.2653  0.0675 -0.1582
 5679W        W21148   7.157   1.533  14.609  0.0739 -0.1813  0.0098
 5680W        W21149  11.389   7.132   0.463 -0.2666  0.0726  0.0648
 5681W        W21150   4.608  18.305   3.783 -0.1570  0.2368 -0.4181
 5682W        W21151  11.300   0.378  11.309  0.0628 -0.0914 -0.0867
 5683W        W21152   0.576  17.933   0.432 -0.1119  0.1599  0.2427
 5684W        W21153  13.218  14.164  11.169  0.2920 -0.3086 -0.0152
 5685W        W21154  13.103   4.770   4.425  0.1047 -0.0947 -0.2239
 5686W        W21155  13.581   7.951   0.941 -0.0329 -0.0159  0.1658
 5687W        W21156   0.992  17.760   2.015 -0.0916  0.2009 -0.2670
 5688W        W21157  17.515   6.416   3.820  0.2151 -0.0243  0.4332
 5689W        W21158   2.426   3.266  13.259  0.0979 -0.0968  0.1965
 5690W        W21159   2.471   1.902  11.725  0.1218  0.1322  0.0030
 5691W        W21160  11.190  15.497   1.825  0.2864  0.1417  0.2740
 5692W        W21161  13.058  17.840  15.010 -0.0833  0.0965 -0.0826
 5693W        W21162   8.463  14.762  14.225 -0.1125  0.2863  0.1218
 5694W        W21163   9.308   5.774  15.177  0.1532 -0.1296 -0.2874
 5695W        W21164   5.893  11.289  14.809  0.1120  0.0385 -0.1677
 5696W        W21165  15.421  17.079   1.654  0.3180  0.0597 -0.2414
 5697W        W21166  13.656  11.582   0.984  0.1627 -0.2909  0.0099
 5698W        W21167  13.199   1.506   0.609 -0.1655 -0.0665 -0.2255
 5699W        W21168  11.520   4.735  11.923  0.1956 -0.1826 -0.3848
 5700W        W21169   9.192  17.524   1.619  0.2554 -0.0334  0.4050
 5701W        W21170  17.173   3.886   4.803 -0.0315  0.0693  0.1218
 5702W        W21171   2.960   6.093   2.466 -0.1910  0.1794 -0.0202
 5703W        W21172   7.588   5.889  11.815 -0.2561  0.0020 -0.0377
 5704W        W21173   7.516   3.385  12.535  0.0187  0.0422 -0.1851
 5705W        W21174   7.350  17.802  13.455  0.0995 -0.1556 -0.2460
 5706W        W21175   4.783   9.327   3.229 -0.0130 -0.0078 -0.0249
 5707W        W21176  10.882  13.587  15.724 -0.4412 -0.1281 -0.0239
 5708W        W21177  13.531  12.408  14.925  0.1413  0.0022 -0.0413
 5709W        W21178   5.056  15.448  11.797 -0.1464 -0.0899  0.0626
 5710W        W21179  16.667   2.951   5.793 -0.3500  0.1382  0.0811
 5711W        W21180   6.439   7.997  14.925  0.0991  0.2460  0.0690
 5712W        W21181  11.950   9.907  13.774 -0.1497  0.0047  0.4490
 5713W        W21182   1.585   7.176   2.562  0.2085 -0.0673 -0.1282
 5714W        W21183   3.812  16.385   2.932  0.1957  0.0188 -0.1326
 5715W        W21184   3.100   7.766  12.771  0.1183 -0.2751 -0.0397
 5716W        W21185  14.749  15.245   0.416 -0.5111 -0.0661  0.2267
 5717W        W21186   6.350   5.993  12.677 -0.1757  0.1794  0.3584
 5718W        W21187   9.535   2.383  10.129  0.2196 -0.0516 -0.1311
 5719W        W21188  10.013   2.471  14.760 -0.1239 -0.0095  0.2769
 5720W        W21189   7.350  10.741  11.246  0.2765  0.0427  0.2545
 5721W        W21190   1.096   7.864  13.526  0.2114 -0.0718 -0.0209
 5722W        W21191  16.384  10.089   3.931 -0.2138 -0.0304  0.2900
 5723W        W21192   9.454  16.089  10.529 -0.2458 -0.5067  0.0381
 5724W        W21193   5.050   8.529  13.290  0.1580 -0.1282  0.0201
 5725W        W21194   8.457  10.862  12.772 -0.1315  0.0079 -0.1548
 5726W        W21195   7.044   3.879   3.165 -0.0071 -0.2103  0.1937
 5727W        W21196  12.722   2.708   1.724  0.4957  0.0990  0.1725
 5728W        W21197   2.824  11.377  13.430 -0.3632  0.1230  0.0505
 5729W        W21198  17.748  10.123   1.438 -0.0232  0.1044  0.2460
 5730W        W21199   0.069  11.033   3.909  0.4339 -0.1685 -0.2793
 5731W        W21200   1.957   6.543   4.906  0.1392  0.0748 -0.2829
 5732W        W21201  15.551   7.600  13.608 -0.2982  0.0981  0.1918
 5733W        W21202   2.372   0.158  12.603  0.0612 -0.3592 -0.4058
 5734W        W21203  10.096  14.381  12.578 -0.1873  0.0095  0.0175
 5735W        W21204   1.592  14.651   4.040  0.1173 -0.4211 -0.0244
 5736W        W21205   5.552   8.110   5.336 -0.0881  0.2305 -0.2619
 5737W        W21206  15.107   8.074  14.731 -0.4113 -0.4842 -0.3150
 5738W        W21207   7.924   7.876   1.596  0.0813  0.1088 -0.2423
 5739W        W21208   6.180   8.570   1.264  0.0057  0.2017 -0.0760
 5740W        W21209   5.834  11.711  13.052  0.2085 -0.0051 -0.1949
 5741W        W21210  13.867  17.240   0.171 -0.0076  0.1788  0.0989
 5742W        W21211  17.742  16.601   0.473 -0.3827 -0.0274  0.0033
 5743W        W21212  13.149   5.253   1.229  0.0384 -0.2635 -0.2006
 5744W        W21213   3.147  15.866  11.906  0.1041 -0.2284  0.1320
 5745W        W21214   5.134  14.379   5.939 -0.0102  0.5312  0.0523
 5746W        W21215  11.644  10.886   0.294  0.0635 -0.1331  0.3068
 5747W        W21216  16.059   2.099   2.100 -0.1159  0.0632 -0.0691
 5748W        W21217   3.896   7.379  15.424 -0.0584 -0.4317  0.2928
 5749W        W21218   8.952   3.257  12.288  0.1601 -0.0214 -0.0584
 5750W        W21219  13.377   1.137   5.698  0.0395 -0.2030  0.0834
 5751W        W21220  16.882   9.995   4.077 -0.4174  0.2226 -0.0120
 5752W        W21221   2.313  13.688   1.784 -0.2330  0.1086 -0.1718
 5753W        W21222   8.108  14.575  13.809  0.0873 -0.0883  0.1420
 5754W        W21223  13.768   2.729  14.054  0.1473 -0.1133  0.0116
 5755W        W21224  13.359   6.855   6.066 -0.1207  0.0354  0.0825
 5756W        W21225  17.494  14.797  12.702  0.0621  0.2465  0.1169
 5757W        W21226  12.079   3.531   0.836 -0.0292  0.2975 -0.0193
 5758W        W21227  15.813  11.918   5.165 -0.0260  0.1701 -0.3850
 5759W        W21228  13.446   1.831   3.181  0.1926 -0.3078  0.0051
 5760W        W21229   5.064  11.353  12.850 -0.0605  0.1291 -0.0624
 5761W        W21230   1.171   3.094  15.672 -0.2042 -0.1530 -0.1044
 5762W        W21231  13.990  10.935  13.864  0.0265  0.3141  0.2793
 5763W        W21232  13.918  17.225  13.983 -0.1372 -0.0746  0.0878
 5764W        W21233   0.489  13.287  13.074  0.1921 -0.0054 -0.1895
 5765W        W21234   9.852   4.959   1.923 -0.2454  0.2039 -0.0330
 5766W        W21235   6.776  15.181   1.362  0.0911 -0.0084  0.1763
 5767W        W21236   1.646  10.093   4.454 -0.3133 -0.3795  0.0601
 5768W        W21237   9.862  17.125   4.616  0.0767 -0.3174 -0.1799
 5769W        W21238  17.206   0.467  14.323 -0.3304 -0.0573 -0.0850
 5770W        W21239  10.513   6.214  13.873  0.1969 -0.1563  0.3164
 5771W        W21240   9.722   8.604  11.504 -0.0708 -0.1049 -0.2601
 5772W        W21241   0.869  11.902  12.962  0.1934  0.0743  0.1799
 5773W        W21242  15.468   8.877  15.037  0.1049 -0.0724 -0.1708
 5774W        W21243   4.783  10.852   3.307  0.1523  0.1741 -0.2912
 5775W        W21244  11.711   8.417  15.093 -0.1724  0.1947  0.0397
 5776W        W21245   5.342   1.961  15.718 -0.1527  0.4704  0.2106
 5777W        W21246  13.959   1.890   2.950 -0.0004  0.2749 -0.1552
 5778W        W21247  11.840  16.206  14.116 -0.0429 -0.1577 -0.0487
 5779W        W21248  11.828   6.822   3.243 -0.1408  0.0161 -0.2451
 5780W        W21249   2.467  16.996   2.133 -0.0398 -0.3302 -0.0643
 5781W        W21250   3.223   1.994  12.925 -0.0124  0.0278 -0.0496
 5782W        W21251  12.655  14.389   4.217 -0.0293  0.1496 -0.2850
 5783W        W21252   2.493  15.689  15.539  0.0980  0.1963  0.2145
 5784W        W21253  16.763   5.174  15.050  0.0375  0.0634  0.1253
 5785W        W21254   7.301  17.051  13.110 -0.0187  0.2598  0.0146
 5786W        W21255  10.213   3.676  13.882  0.1822  0.2028 -0.2645
 5787W        W21256  12.412   1.797   2.169 -0.2787 -0.3379  0.0435
 5788W        W21257  13.105  10.611  14.320 -0.2061  0.3453  0.2051
 5789W        W21258   3.645   0.911   0.189  0.2752  0.0014  0.0995
 5790W        W21259  18.251   1.228   0.646 -0.2009  0.1715 -0.4403
 5791W        W21260   1.029   5.615  12.706  0.2686  0.1553  0.4773
 5792W        W21261   0.260  16.431   3.885  0.0282  0.1156 -0.1524
 5793W        W21262   1.243  15.428  11.063 -0.3068  0.0775 -0.2871
 5794W        W21263   7.463  12.189   2.634 -0.0974  0.1974 -0.1932
 5795W        W21264   7.932   9.767   1.678 -0.2071 -0.4024 -0.1394
 5796W        W21265  16.556  10.411   0.507  0.0590 -0.0747 -0.1101
 5797W        W21266  12.785  13.314   2.370  0.1084  0.1813 -0.3206
 5798W        W21267  16.167   6.622   3.787 -0.1756  0.0181 -0.0423
 5799W        W21268   4.384  17.278  12.563 -0.0786  0.0196 -0.1343
 5800W        W21269   0.205   0.977  11.489  0.2466  0.1145  0.1757
 5801W        W21270   8.702  16.046   5.456  0.1937  0.1007 -0.0176
 5802W        W21271   3.110  18.037   2.997  0.0052  0.1467  0.3340
 5803W        W21272   8.602  10.825  15.389  0.2650  0.2097 -0.0989
 5804W        W21273   7.464   4.147  15.712  0.1108 -0.1582 -0.2323
 5805W        W21274  16.041  12.860   5.147 -0.0021 -0.2788  0.0414
 5806W        W21275  18.221  14.312   0.595  0.1428  0.0502 -0.0151
 5807W        W21276   2.384  17.007  15.613 -0.0770 -0.3042  0.1857
 5808W        W21277   3.475   1.413   0.332  0.0912  0.1683 -0.0788
 5809W        W21278  11.439  14.120   3.809  0.2840 -0.0978  0.0969
 5810W        W21279   6.788   0.637  14.710  0.0963 -0.3983 -0.1729
 5811W        W21280  14.493  12.909  12.936 -0.1856  0.2372  0.4119
 5812W        W21281  11.119  15.051  14.872  0.2109  0.3098  0.0920
 5813W        W21282   2.334  14.984   0.832  0.1453  0.0300 -0.2438
 5814W        W21283   7.976  17.513   3.929  0.3803 -0.0838 -0.1769
 5815W        W21284  17.987   5.639  12.644  0.0597 -0.0091  0.0848
 5816W        W21285  17.680   9.978  13.912  0.3505  0.0332  0.0244
 5817W        W21286  10.949  17.749  11.472  0.0292  0.2557 -0.0435
 5818W        W21287  16.036   8.870   0.351 -0.2733 -0.2289 -0.0810
 5819W        W21288  12.019   8.427   3.859 -0.2885  0.0235  0.0020
 5820W        W21289   5.864  15.854   4.518  0.1932 -0.3095 -0.0479
 5821W        W21290   7.308   4.913  14.950  0.0931  0.0729 -0.1924
 5822W        W21291   4.878  17.987  14.985 -0.0952  0.1917 -0.0159
 5823W        W21292   5.182   9.134   3.958  0.0529 -0.2621 -0.1068
 5824W        W21293  10.202   9.835   5.123 -0.0620  0.1762 -0.5278
 5825W        W21294   2.545   9.626   0.609 -0.0254  0.0917 -0.0439
 5826W        W21295  14.981  14.351   0.474 -0.2134 -0.0070 -0.1699
 5827W        W21296   1.391   5.440   0.365 -0.1416 -0.0428  0.0024
 5828W        W21297  14.173   7.363   1.382 -0.2820 -0.0233  0.0482
 5829W        W21298   9.247   6.626  15.854 -0.1679 -0.3860 -0.2906
 5830W        W21299   5.478  10.628  15.534 -0.0679  0.1510 -0.0140
 5831W        W21300  10.382   5.703  13.211 -0.1604 -0.1379 -0.0333
 5832W        W21301  16.761  11.987   1.870  0.0828  0.5492 -0.1118
 5833W        W21302   5.653   2.346   0.334  0.5052 -0.0968  0.0283
 5834W        W21303  11.434  10.293  13.190  0.2271  0.1090 -0.2852
 5835W        W21304   8.953  14.766   4.154  0.1801 -0.0597  0.0829
 5836W        W21305   4.851   0.942   2.587 -0.2371  0.2545  0.0680
 5837W        W21306   5.862  14.046   5.114  0.2522  0.2374 -0.1828
 5838W        W21307  17.024  17.226  11.641  0.0732 -0.3089  0.2836
 5839W        W21308   7.138   4.525   1.359 -0.1675 -0.0009 -0.1665
 5840W        W21309  15.653   2.926   2.261  0.1680 -0.2689 -0.2384
 5841W        W21310   7.939   7.001  12.679  0.0040 -0.1098  0.2814
 5842W        W21311  13.719   7.127  11.440  0.4224  0.0355 -0.1910
 5843W        W21312  11.311  12.627   4.004  0.1516  0.0869 -0.0015
 5844W        W21313  14.359  10.796  15.910 -0.0046 -0.0021 -0.0298
 5845W        W21314  15.752   3.504   0.951 -0.0296  0.0241  0.1518
 5846W        W21315   3.651  17.655  13.123  0.1082  0.0762  0.0291
 5847W        W21316   9.763   1.403  11.368 -0.2310  0.0077 -0.0160
 5848W        W21317   2.569   5.920  14.201  0.0215 -0.2857  0.3317
 5849W        W21318   8.206  16.527   2.988 -0.2661  0.1949 -0.2000
 5850W        W21319   4.359   4.932   2.700 -0.2106 -0.0034 -0.0177
 5851W        W21320   7.594  14.342   4.257 -0.2877  0.0782  0.1609
 5852W        W21321   9.784  17.955  11.527  0.2398  0.0737  0.2013
 5853W        W21322  14.643   7.518   1.482 -0.2791  0.2281 -0.1282
 5854W        W21323   4.700   9.454  11.422 -0.0160 -0.0714  0.1662
 5855W        W21324  10.469  16.575   4.174  0.1700  0.1482  0.2686
 5856W        W21325   1.606   2.283  13.430  0.0795  0.0245  0.0865
 5857W        W21326  18.360   9.822   2.372 -0.1825 -0.0200 -0.0757
 5858W        W21327   5.105   6.614   0.353 -0.0162 -0.1620 -0.0675
 5859W        W21328  18.254  16.469   2.870  0.1734  0.1003 -0.4054
 5860W        W21329   6.074  12.128  12.908 -0.0920  0.2918  0.0095
 5861W        W21330   8.473  10.102   3.956  0.1255 -0.0484 -0.0652
 5862W        W21331   9.969  18.400   4.966  0.4130  0.0819  0.0366
 5863W        W21332   6.399  17.343   4.894 -0.1148 -0.0164  0.1685
 5864W        W21333   9.844   4.108   6.268 -0.2434 -0.0004 -0.1517
 5865W        W21334  10.867   0.662   5.610 -0.1438  0.1360  0.2592
 5866W        W21335   7.797  11.911  14.813 -0.0129  0.0556  0.0462
 5867W        W21336  13.020  13.472   1.416 -0.0867  0.4193 -0.3895
 5868W        W21337   1.991   8.854   5.803  0.4750 -0.1501  0.0321
 5869W        W21338   1.576   6.054  15.817  0.3770  0.0026  0.0612
 5870W        W21339   3.651   5.765   4.862  0.0165 -0.0165  0.1349
 5871W        W21340  11.428  14.934   0.520  0.0612 -0.1449  0.2710
 5872W        W21341  17.062   1.191   5.607 -0.0654 -0.0753 -0.1075
 5873W        W21342   6.926   8.335  12.675  0.0895  0.0409 -0.3472
 5874W        W21343   4.405  14.535  11.053 -0.1553  0.0447 -0.1811
 5875W        W21344   6.807  14.353  15.612  0.0317  0.0571 -0.3666
 5876W        W21345   1.341   2.521  11.258  0.4301  0.1385  0.2157
 5877W        W21346  12.689   0.393  15.482 -0.2003 -0.0273  0.1658
 5878W        W21347   2.567  14.689   4.805  0.0265 -0.0676  0.0873
 5879W        W21348   5.136  17.621  11.516  0.0369 -0.3280 -0.0377
 5880W        W21349   0.697  15.689   1.272  0.0697  0.1494 -0.1917
 5881W        W21350   4.152   3.773   4.108  0.0286 -0.2090 -0.0687
 5882W        W21351  17.802   9.362   4.725 -0.0035 -0.0730 -0.0058
 5883W        W21352  10.074   9.899  14.531 -0.0857 -0.0139 -0.0179
 5884W        W21353  10.162  13.576   4.040  0.0952 -0.2106 -0.1763
 5885W        W21354  17.693   8.541   5.310  0.2922  0.0526 -0.1786
 5886W        W21355   0.264  17.919  12.486  0.0317  0.3182  0.0420
 5887W        W21356   2.244  18.247   0.085  0.0859 -0.2711 -0.0246
 5888W        W21357   8.600   2.363  13.449  0.0542  0.0987 -0.3140
 5889W        W21358   7.587   1.433  14.992  0.1578  0.1945  0.0150
 5890W        W21359  17.927   2.571  14.527  0.3181  0.1415 -0.1941
 5891W        W21360  17.134  16.997  14.617  0.1462 -0.1906 -0.1842
 5892W        W21361  18.315   8.090   3.030  0.1084  0.0653  0.2873
 5893W        W21362   4.806  12.754   4.287  0.1251  0.2682  0.1741
 5894W        W21363   1.519  13.505  15.448  0.0769  0.1465  0.1176
 5895W        W21364   7.136  14.553   3.847 -0.0069  0.2219 -0.1659
 5896W        W21365   6.333  18.028   0.775  0.2186  0.1508 -0.2792
 5897W        W21366  10.767   4.643   0.106  0.2217  0.0038 -0.2276
 5898W        W21367  16.255   2.331   5.272  0.0249 -0.0247 -0.0902
 5899W        W21368   8.715   3.156   5.051  0.2174 -0.0892 -0.0548
 5900W        W21369   4.391   7.794  13.421 -0.0096  0.0028 -0.1335
 5901W        W21370   4.551   9.959  13.089  0.0281  0.1954 -0.2882
 5902W        W21371   0.673   5.024   0.040  0.2449  0.0722 -0.1218
 5903W        W21372   8.034   2.505  12.435  0.1384  0.3828  0.0093
 5904W        W21373   3.235  16.598  14.487  0.0227  0.0325 -0.0741
 5905W        W21374  17.306   3.198  15.016  0.2116  0.0616 -0.2651
 5906W        W21375   4.037   5.827  11.445 -0.1726  0.4565 -0.1489
 5907W        W21376   3.888   7.934   2.458  0.1415  0.2390  0.2550
 5908W        W21377  12.275  11.603  13.962 -0.0288 -0.1203  0.0021
 5909W        W21378   5.983   0.074   0.618  0.0497 -0.1339  0.0044
 5910W        W21379   7.322  18.130   1.384 -0.0803 -0.0050 -0.1942
 5911W        W21380  12.530  12.107   2.101 -0.4735 -0.0295 -0.0041
 5912W        W21381   6.317  17.066  15.466  0.2458 -0.2575 -0.0220
 5913W        W21382   1.799  11.584  12.579  0.3031 -0.0492 -0.0736
 5914W        W21383   5.131  14.225  11.731  0.1640 -0.0834 -0.2465
 5915W        W21384  11.597  14.388   4.644 -0.0662  0.1925  0.1608
 5916W        W21385  11.067   9.811  13.042  0.1656 -0.3026  0.0066
 5917W        W21386   6.611   9.698   2.191 -0.0908 -0.2825  0.2242
 5918W        W21387  15.488  12.410   0.873 -0.0554  0.0286  0.1050
 5919W        W21388  11.411  12.216  14.815 -0.0923 -0.2363  0.1120
 5920W        W21389   1.573   7.946  12.860 -0.0255  0.0016  0.2305
 5921W        W21390  13.381   0.473   1.557  0.0327  0.1313  0.0473
 5922W        W21391   1.382  10.737   0.233  0.0822 -0.1492  0.2790
 5923W        W21392  12.276  11.856  15.965  0.2518  0.3036 -0.3696
 5924W        W21393  10.856  11.958   0.832  0.2128 -0.0098 -0.2939
 5925W        W21394  17.706  15.280  13.684  0.1543  0.3660 -0.0953
 5926W        W21395  17.646   3.057   4.912 -0.0948  0.0571 -0.0805
 5927W        W21396   1.454  13.335   3.651 -0.4110 -0.1221  0.3391
 5928W        W21397   3.095   8.151  10.518  0.0016  0.0777 -0.2318
 5929W        W21398   8.789  11.830  15.985  0.0461  0.0888 -0.0094
 5930W        W21399   2.334  11.293  11.467  0.2259 -0.1467 -0.2255
 5931W        W21400  15.992   8.756   3.930  0.1152  0.0852 -0.2413
 5932W        W21401  13.984   2.978  15.111 -0.4632  0.2516  0.1334
 5933W        W21402  12.947   5.087  11.544  0.0589 -0.0804 -0.2694
 5934W        W21403  17.046   1.313   2.119  0.1585 -0.0098  0.0127
 5935W        W21404   2.808  13.844   1.881 -0.0359 -0.2508 -0.2355
 5936W        W21405  13.077   3.154  12.354 -0.1524  0.2528 -0.1601
 5937W        W21406  16.001   8.436  11.282  0.1282 -0.0231  0.0995
 5938W        W21407   2.138   4.822   5.279 -0.0222 -0.1622 -0.1206
 5939W        W21408   2.015   4.433   3.780 -0.1767  0.0478 -0.0124
 5940W        W21409  13.510  17.896   2.647  0.3836 -0.1038 -0.0059
 5941W        W21410  17.895  13.689  10.559  0.1498 -0.0498 -0.1064
 5942W        W21411   0.923   3.426   1.487 -0.3238 -0.3802 -0.2829
 5943W        W21412  16.216  18.194   2.020 -0.2543 -0.3926  0.2228
 5944W        W21413   0.654   9.798   1.805  0.2313 -0.1722  0.3049
 5945W        W21414  14.420  18.063   1.576  0.0091 -0.0286 -0.3226
 5946W        W21415   6.347  16.737  12.991  0.1009  0.0063 -0.0147
 5947W        W21416   5.818   6.518  15.909 -0.0123 -0.2370  0.1132
 5948W        W21417   2.872   1.522  15.976 -0.2607  0.1267 -0.1896
 5949W        W21418  13.196   1.810  11.936  0.4533  0.1864  0.3819
 5950W        W21419   7.952   0.336  13.389 -0.0135 -0.2779  0.2798
 5951W        W21420   6.033   6.596  11.204 -0.1746 -0.0095 -0.0411
 5952W        W21421   3.487  10.098   5.592 -0.4987 -0.0155  0.1728
 5953W        W21422  11.663  14.651   0.910 -0.2677 -0.0887  0.1534
 5954W        W21423  13.577  10.846  11.646 -0.1489  0.1559 -0.1338
 5955W        W21424   7.252  12.132  10.696  0.2697 -0.2214 -0.2756
 5956W        W21425  10.540   2.307   4.405 -0.0019 -0.1470  0.2915
 5957W        W21426   6.717   2.856   1.338 -0.1079  0.2729 -0.2199
 5958W        W21427   1.226   1.756   4.079  0.1427 -0.2307 -0.3586
 5959W        W21428  15.230   1.742   5.002 -0.0518  0.2518 -0.0197
 5960W        W21429  11.531  13.995   2.503  0.0916  0.0144 -0.2256
 5961W        W21430  14.595   0.101  12.424 -0.0304  0.0119  0.3516
 5962W        W21431  10.913  15.795  11.692 -0.3007  0.0737  0.0395
 5963W        W21432  13.714   1.178  12.768 -0.1865  0.0597 -0.0666
 5964W        W21433   3.882   9.104  13.177 -0.3330 -0.0349  0.1412
 5965W        W21434  14.147  15.435   5.062  0.1471 -0.0185  0.1789
 5966W        W21435   1.287  13.910   4.585 -0.1932  0.2738  0.0598
 5967W        W21436   4.813  14.285   2.377  0.1305  0.2516  0.3951
 5968W        W21437  16.094   3.591   0.635 -0.0930 -0.1133  0.1287
 5969W        W21438   1.812  11.773  14.817 -0.1701 -0.2445 -0.1402
 5970W        W21439  16.955   5.155  15.913 -0.0492  0.1208 -0.3097
 5971W        W21440   6.847  14.938  13.931  0.0892  0.1391  0.0510
 5972W        W21441  16.843  17.011   2.036 -0.1972  0.0897  0.0876
 5973W        W21442   5.531  12.957   0.096  0.0278  0.0304  0.0436
 5974W        W21443   8.921  16.820   2.399 -0.1121 -0.0586 -0.0996
 5975W        W21444  12.668   6.696   1.345  0.2006 -0.0027  0.0052
 5976W        W21445  16.750  15.845  15.055  0.0995 -0.0405  0.0891
 5977W        W21446  13.413  10.898   5.138  0.2426 -0.0501  0.2207
 5978W        W21447   8.571   3.181   4.612 -0.3498 -0.0114  0.3159
 5979W        W21448  14.000   7.831   0.103 -0.1512  0.1422  0.0596
 5980W        W21449   7.545   9.576   4.614 -0.6141  0.2506 -0.1764
 5981W        W21450  12.893   0.810  13.372 -0.1111  0.0562  0.5191
 5982W        W21451   2.025  18.288  12.858 -0.1012  0.0958 -0.2247
 5983W        W21452  16.220  15.907   0.668  0.0826 -0.0306 -0.1632
 5984W        W21453   5.720  17.907  15.383  0.2025  0.2951  0.1255
 5985W        W21454  13.413  17.296  12.823 -0.1472  0.2367 -0.0335
 5986W        W21455   4.587   1.449  13.388 -0.0270  0.0984  0.0008
 5987W        W21456  10.441   1.477   2.207 -0.0763 -0.3553  0.0026
 5988W        W21457   0.512  10.991  15.075  0.0516 -0.3446  0.3429
 5989W        W21458   9.846  11.233  12.908 -0.0484  0.0282  0.0014
 5990W        W21459   3.130  14.951  15.651 -0.1842  0.0559  0.1192
 5991W        W21460   0.431  16.548   0.109 -0.1142  0.0403 -0.1425
 5992W        W21461  12.198  13.893   1.153 -0.2561  0.0189 -0.2304
 5993W        W21462   8.656   1.396  13.416 -0.2817  0.0777 -0.2224
 5994W        W21463   6.889   9.599   0.428  0.2595 -0.0349 -0.1680
 5995W        W21464   0.903  12.699   0.405 -0.2137 -0.2152  0.4333
 5996W        W21465  13.025   3.088   3.552  0.2688  0.3830 -0.2434
 5997W        W21466   6.580   7.773   1.933  0.0629  0.0574 -0.1172
 5998W        W21467   0.074   3.650   0.074 -0.4377 -0.4256 -0.0625
 5999W        W21468  18.227  11.353  13.923  0.1573 -0.1629  0.0331
 6000W        W21469   6.584  12.906   0.798 -0.0328  0.2375 -0.0522
 6001W        W21470   4.442   8.141   4.581  0.0622  0.1274 -0.1518
 6002W        W21471   3.457  10.951   1.913 -0.1961  0.2025 -0.2003
 6003W        W21472   9.134   1.902  11.861 -0.1957 -0.0151  0.1896
 6004W        W21473   9.430  13.318   2.229 -0.3859  0.0886  0.0656
 6005W        W21474   6.161   2.930  14.357 -0.2073 -0.0561  0.0528
 6006W        W21475  12.824   1.825   0.949 -0.0616  0.0714 -0.5594
 6007W        W21476   9.929   7.147   5.429 -0.1472 -0.1867 -0.1089
 6008W        W21477   0.502  11.308   4.834 -0.1469  0.1932  0.0491
 6009W        W21478   3.194  11.926  12.837  0.0884  0.1176 -0.4486
 6010W        W21479   2.225   8.041  13.171  0.0034 -0.1897  0.0927
 6011W        W21480  10.289   5.217   4.323  0.1659  0.1671  0.0296
 6012W        W21481   3.763   7.875   0.360 -0.0067  0.0723 -0.0694
 6013W        W21482   0.628   7.107   6.072  0.1396  0.2567  0.1430
 6014W        W21483  12.177  14.527  12.693  0.0734 -0.2041  0.2736
 6015W        W21484   0.125   3.717   4.033 -0.0439  0.4310  0.2476
 6016W        W21485   0.727   6.491  14.365  0.0847 -0.0199  0.0386
 6017W        W21486   0.437   6.800  10.584  0.3849 -0.1823  0.3557
 6018W        W21487   6.724  15.279  11.812 -0.1853  0.2227  0.4784
 6019W        W21488  16.020   9.788   4.165  0.2416  0.3105 -0.2172
 6020W        W21489   2.726   1.535   3.808  0.2573  0.0048 -0.0676
 6021W        W21490  17.501   8.192  14.803  0.1273 -0.0273 -0.0794
 6022W        W21491  17.085  11.438   3.016  0.0304  0.1730 -0.3084
 6023W        W21492   8.754  12.714   0.749  0.3160 -0.0769  0.1604
 6024W        W21493   2.224  13.583  15.173  0.0456 -0.0004 -0.1855
 6025W        W21494   7.746   9.287   0.352  0.1241 -0.0836  0.0194
 6026W        W21495   8.524  15.370   3.118  0.3386 -0.1740 -0.0594
 6027W        W21496   6.601   0.608  10.539  0.2705  0.1605  0.0857
 6028W        W21497   6.024   4.103  12.821  0.3124  0.3746 -0.2493
 6029W        W21498   8.407  11.760  15.557 -0.0779 -0.0736  0.5167
 6030W        W21499   4.310  12.192   5.641 -0.0586 -0.1803  0.0356
 6031W        W21500   5.113  17.170  11.868 -0.3355 -0.1296  0.0653
 6032W        W21501  14.046  14.484  12.324 -0.0787  0.4081 -0.0130
 6033W        W21502  11.712   4.804   0.473 -0.3189  0.1958  0.2320
 6034W        W21503  11.774   9.061  14.921 -0.1892  0.0625  0.0232
 6035W        W21504  13.297  17.933   3.106  0.1625  0.4487 -0.0498
 6036W        W21505  13.703   8.710   4.061 -0.0508 -0.0555 -0.1883
 6037W        W21506  13.314   5.402   2.482  0.1364  0.0211 -0.2421
 6038W        W21507   3.450   2.808  15.075  0.1963  0.0956 -0.0937
 6039W        W21508  10.923  15.997  13.352 -0.3118  0.1741 -0.0884
 6040W        W21509   2.118   0.977  12.709  0.0877 -0.0153  0.2075
 6041W        W21510  18.021  18.270   2.278 -0.0264  0.1958 -0.2382
 6042W        W21511   1.810   8.377  14.082  0.0719  0.2130 -0.3524
 6043W        W21512   2.302  11.143   4.776  0.1476  0.0647  0.1701
 6044W        W21513  10.503  18.061   1.148  0.2543  0.2437  0.0663
 6045W        W21514  15.103  14.443   1.767 -0.0876 -0.0048 -0.2271
 6046W        W21515  16.166   9.032   3.536  0.2038 -0.0093  0.0338
 6047W        W21516  12.713   7.258  14.356  0.1593  0.1443  0.0752
 6048W        W21517   7.223   6.704  13.076  0.2842  0.1687  0.0138
 6049W        W21518   8.737   3.462   0.832 -0.2114  0.0477  0.2559
 6050W        W21519   8.125   9.003  13.496 -0.0712  0.2340  0.1149
 6051W        W21520   1.768  15.207  13.947  0.3857  0.1837 -0.0157
 6052W        W21521  15.575  10.569   6.039  0.0201 -0.0081 -0.0453
 6053W        W21522  13.231   7.171   4.338 -0.1014  0.0273 -0.4303
 6054W        W21523   5.909  14.460   2.242  0.0993  0.3248  0.2552
 6055W        W21524   5.365  10.909  14.120  0.1430  0.0683  0.0870
 6056W        W21525   9.480  11.139  11.192 -0.1547 -0.0591  0.3568
 6057W        W21526  11.369   5.858   1.849 -0.1607  0.2245  0.3660
 6058W        W21527   6.387  13.014  12.390  0.0789 -0.4169  0.1644
 6059W        W21528  15.731   8.604  12.943  0.0374 -0.1595  0.1450
 6060W        W21529  13.123   2.804   4.316  0.2915 -0.0213  0.0982
 6061W        W21530   1.963   7.627  13.162  0.1141  0.3828  0.1210
 6062W        W21531   9.309   3.721   1.657 -0.0366 -0.1263  0.1425
 6063W        W21532   2.410   1.379   1.622  0.0384  0.1000  0.1481
 6064W        W21533   0.728   8.013  13.048  0.2163 -0.2847 -0.0833
 6065W        W21534   3.903   3.677  13.476  0.2484  0.2505 -0.0024
 6066W        W21535  10.445  14.972  13.049 -0.1021  0.1844 -0.0102
 6067W        W21536   0.785   0.158  11.811 -0.2625 -0.0020 -0.1175
 6068W        W21537   7.762   7.479   2.131  0.1003  0.0057  0.3169
 6069W        W21538  16.886   2.439   5.127 -0.1294 -0.3310  0.1790
 6070W        W21539   3.397  16.152   2.847 -0.0531 -0.1864  0.0576
 6071W        W21540  14.955  10.547  12.326  0.2993  0.2291 -0.1658
 6072W        W21541   4.740  16.474   2.784  0.1931 -0.1425 -0.3026
 6073W        W21542   8.439   1.926  12.049 -0.0865 -0.3333 -0.0988
 6074W        W21543  10.184   8.333  14.863 -0.0342  0.3477 -0.2533
 6075W        W21544   5.920  17.185   3.169 -0.0858 -0.1911  0.0648
 6076W        W21545   7.250  18.132  11.189  0.0833 -0.1897 -0.0321
 6077W        W21546  16.921   3.235   5.450 -0.3362  0.2265  0.1298
 6078W        W21547  15.889  16.909   1.835 -0.0556  0.1180 -0.0878
 6079W        W21548  10.410  17.596   3.262  0.0478 -0.1631 -0.3000
 6080W        W21549   5.555   5.997   3.649 -0.1471  0.3616 -0.1555
 6081W        W21550   2.257  12.297  11.715  0.1124 -0.0084 -0.1725
 6082W        W21551   0.563   8.581  11.816 -0.1383 -0.0280  0.0385
 6083W        W21552   2.251   3.177  12.140 -0.0790 -0.3630 -0.2382
 6084W        W21553   1.719   2.454  12.965  0.0133 -0.0845  0.0958
 6085W        W21554   3.438  15.821   3.230  0.2430  0.0642 -0.1977
 6086W        W21555  18.343   1.991   4.978  0.2276  0.1954 -0.1404
 6087W        W21556  11.388  11.555  10.706  0.3727  0.0076 -0.4717
 6088W        W21557  11.813  14.424   2.582  0.1262 -0.1235 -0.2650
 6089W        W21558  16.285   9.235  10.797 -0.0607 -0.0089 -0.2997
 6090W        W21559   8.716  13.721   3.206  0.1526  0.1265 -0.1701
 6091W        W21560   0.499  14.869   3.777 -0.1989  0.0566 -0.0687
 6092W        W21561   3.610  12.452   3.785  0.1708  0.0119 -0.2885
 6093W        W21562  17.209  17.898  11.317 -0.1375  0.0224 -0.1623
 6094W        W21563  17.203  16.609  15.328 -0.0454  0.0817 -0.1917
 6095W        W21564   8.028   3.336   5.601 -0.2032  0.1376  0.0123
 6096W        W21565  17.126   8.065   3.704 -0.2193  0.0182  0.1334
 6097W        W21566  13.088   0.304   0.429  0.1399  0.2564  0.1904
 6098W        W21567   0.792  17.441   3.326  0.0605 -0.1940 -0.1345
 6099W        W21568   8.211  13.330  13.133 -0.0283 -0.1411  0.0828
 6100W        W21569  12.685   3.640  15.313 -0.0343 -0.1664 -0.1870
 6101W        W21570  13.828  12.496  14.448 -0.0806 -0.2214  0.1070
 6102W        W21571  11.247  12.197  11.556 -0.1065 -0.0052 -0.1049
 6103W        W21572  10.679  11.182  14.373 -0.2882  0.2584  0.0054
 6104W        W21573   6.583   0.433  13.318  0.2903 -0.1294 -0.3973
 6105W        W21574   0.956  16.361   1.384  0.0596  0.0993  0.0490
 6106W        W21575   0.867   2.052  14.232 -0.2275  0.2037  0.0666
 6107W        W21576   3.714  12.708  15.496  0.2255  0.0434 -0.2469
 6108W        W21577   5.711  16.190   0.110  0.0829  0.2413 -0.0116
 6109W        W21578   2.767   4.393  14.539 -0.1347  0.0261 -0.0238
 6110W        W21579  17.647  11.916   1.906 -0.0127 -0.2468 -0.2133
 6111W        W21580   3.991  14.553   5.244 -0.4492  0.1897  0.0725
 6112W        W21581   0.923  13.261  11.337  0.0883  0.0049 -0.1045
 6113W        W21582   8.428  11.939   3.566  0.2588  0.1266 -0.1358
 6114W        W21583  14.909   5.869   4.636  0.0924 -0.2433  0.1247
 6115W        W21584  18.066  14.191   3.414 -0.1717  0.0500 -0.1945
 6116W        W21585  17.091   0.576   0.602 -0.0401 -0.2077  0.0699
 6117W        W21586   8.528  16.140   0.092 -0.1788 -0.0868  0.1417
 6118W        W21587  15.832  12.019   3.736 -0.0510 -0.1630  0.1459
 6119W        W21588  15.578  11.538  12.253  0.1224 -0.2338  0.4208
 6120W        W21589  15.354   4.237  15.305  0.3534 -0.3804  0.1528
 6121W        W21590   3.294   3.779   3.162  0.1049 -0.0013 -0.1155
 6122W        W21591  16.003   6.238  14.921 -0.1304  0.1731  0.1879
 6123W        W21592  13.746  12.272   4.243 -0.1553  0.0744  0.0244
 6124W        W21593   0.148  13.028   5.151  0.0832 -0.1691  0.1273
 6125W        W21594   2.129   4.189   0.782  0.1531 -0.0918 -0.0982
 6126W        W21595  17.990   8.386   4.381  0.1352 -0.1857  0.2925
 6127W        W21596  13.532  14.911  12.222  0.3316 -0.0410  0.2057
 6128W        W21597  13.047  12.985  13.543  0.1972 -0.0969 -0.1973
 6129W        W21598   7.065   7.952  11.444 -0.1954  0.1910 -0.5080
 6130W        W21599   4.361   7.406  11.949  0.1429  0.0153  0.0072
 6131W        W21600   7.889   7.414  12.487 -0.0874  0.0138  0.0106
 6132W        W21601   9.273   0.157   5.121 -0.1893  0.3386 -0.2340
 6133W        W21602   4.522  15.716  14.820  0.0712  0.2945 -0.0030
 6134W        W21603  13.147  11.730   0.883 -0.0928 -0.1849 -0.1828
 6135W        W21604  17.887  15.641   2.771 -0.0779  0.0474 -0.3214
 6136W        W21605   3.324  14.524  12.918 -0.2441  0.1703 -0.4243
 6137W        W21606  11.718   1.823  14.663 -0.0103  0.1062  0.1057
 6138W        W21607   0.832  15.854   3.865 -0.3267 -0.1398  0.1065
 6139W        W21608   2.329  13.974  11.966 -0.3216  0.2520  0.1657
 6140W        W21609  14.028  10.465   0.631  0.0505 -0.2234 -0.1171
 6141W        W21610  18.118   2.499   2.977  0.1082  0.2492 -0.0716
 6142W        W21611  16.678   5.360  15.541  0.1632  0.1353  0.0185
 6143W        W21612  17.710   3.801   2.903 -0.1554 -0.2409 -0.0879
 6144W        W21613  14.336  12.324  13.629 -0.2826 -0.2758 -0.3188
 6145W        W21614   4.766  13.070   0.416 -0.1334  0.1836 -0.2705
 6146W        W21615   1.905   5.720  13.303 -0.0018  0.1186 -0.0546
 6147W        W21616   2.179  17.307   3.048  0.2247 -0.2492  0.1630
 6148W        W21617  17.386  14.509   0.924 -0.0487 -0.3589  0.0003
 6149W        W21618  17.742  15.149   3.519  0.1003  0.3268  0.1611
 6150W        W21619  13.282  13.606   2.313  0.2072  0.0435  0.0358
 6151W        W21620  16.123   3.194   5.605 -0.4439 -0.1569 -0.1001
 6152W        W21621   5.272   3.144  13.011 -0.1068 -0.2126 -0.1465
 6153W        W21622   0.048  10.990   0.068 -0.0437  0.1408 -0.0692
 6154W        W21623  13.453   1.018   3.011 -0.2790  0.0832  0.3723
 6155W        W21624   2.285   4.099   4.665 -0.2666  0.2050 -0.0214
 6156W        W21625   5.687  14.013   0.047  0.1283 -0.3265 -0.2398
 6157W        W21626  11.026   6.511   0.123  0.3299 -0.0496  0.0076
 6158W        W21627  16.828  14.085   2.360  0.1173 -0.0297 -0.0865
 6159W        W21628   9.166  12.721  11.210  0.1616 -0.1286 -0.1598
 6160W        W21629  10.193   0.420   4.348 -0.0832  0.3222  0.0479
 6161W        W21630  10.923  17.012  10.936 -0.0296  0.1574  0.1650
 6162W        W21631  16.109   6.611   0.500 -0.0473 -0.0221  0.2289
 6163W        W21632   2.281   8.846  12.755 -0.0717 -0.2954 -0.1023
 6164W        W21633  14.157  13.455   2.583  0.1766  0.0418  0.1634
 6165W        W21634  15.036  10.066   2.313  0.0169 -0.2015 -0.0345
 6166W        W21635   2.285   1.176   2.643 -0.0116  0.1857 -0.0029
 6167W        W21636   8.038   7.817   4.141 -0.3649  0.2247 -0.0390
 6168W        W21637   9.915   3.405  11.378 -0.5116 -0.1942  0.1634
 6169W        W21638   8.036  12.821  13.968  0.2558  0.0254  0.1010
 6170W        W21639   0.087   3.160   4.054 -0.2471  0.3997 -0.1016
 6171W        W21640   2.036  12.371  12.135  0.1815 -0.1356  0.3584
 6172W        W21641  13.668   5.811  15.348 -0.1399 -0.0240 -0.0309
 6173W        W21642  16.035   5.889  15.310 -0.0886  0.2301 -0.0893
 6174W        W21643   0.232  13.631  13.305 -0.0452 -0.2286 -0.2538
 6175W        W21644   8.812   3.754   2.544 -0.0747  0.4203 -0.0660
 6176W        W21645  17.129  14.998  12.311  0.0921  0.1492  0.2717
 6177W        W21646   8.344  13.084   3.221  0.1345  0.0139 -0.0721
 6178W        W21647  13.988   0.439  15.289  0.3929 -0.2167  0.2658
 6179W        W21648   1.010  15.852  12.005  0.1871  0.1547  0.0078
 6180W        W21649   1.402   5.877  13.414 -0.2000  0.2013  0.0333
 6181W        W21650  16.745  18.461   1.181 -0.0546  0.2588 -0.1713
 6182W        W21651   1.195  18.327   0.017  0.0670  0.2469 -0.0148
 6183W        W21652   1.892   0.068  12.440  0.0019  0.0634  0.3573
 6184W        W21653   7.908  12.080   2.349  0.0765 -0.0784  0.0920
 6185W        W21654   8.249  10.079  15.212 -0.2529 -0.3934  0.0155
 6186W        W21655  16.163  17.477   3.008 -0.0889  0.0636  0.0943
 6187W        W21656  17.565  11.139   5.493 -0.1066 -0.1559  0.0861
 6188W        W21657  15.398   6.977  12.425  0.1085  0.3785  0.2261
 6189W        W21658  15.672   5.181  13.892  0.2626 -0.0465 -0.3537
 6190W        W21659   1.047  17.664   1.402  0.2115 -0.2843 -0.0344
 6191W        W21660   8.958  18.295   0.372 -0.3143  0.0637  0.0901
 6192W        W21661  10.605   0.774  11.022 -0.0784 -0.0336  0.2287
 6193W        W21662  10.457  15.330   2.879 -0.1921  0.0093  0.1930
 6194W        W21663   8.519  12.704  14.087  0.2171  0.0364 -0.0163
 6195W        W21664   9.782  13.043   1.411 -0.1669  0.1275 -0.0309
 6196W        W21665   9.822   3.838  12.112  0.2816 -0.1468  0.3221
 6197W        W21666   2.164  15.635   0.242  0.1215 -0.0164  0.0568
 6198W        W21667   8.437   9.121   2.553  0.0145 -0.2719  0.1237
 6199W        W21668  16.142   9.900   5.241  0.0613 -0.1496 -0.0304
 6200W        W21669  13.958  17.318  11.803  0.0762  0.2412 -0.1729
 6201W        W21670  10.535   3.029   2.611 -0.1899  0.0254 -0.0190
 6202W        W21671  12.514   2.709   0.317  0.1804  0.2863 -0.0757
 6203W        W21672   6.233   7.217   1.203 -0.2278  0.1551 -0.4537
 6204W        W21673   2.233   1.200  13.563 -0.1203 -0.3095 -0.3223
 6205W        W21674  11.488   3.021  15.802 -0.2245  0.1630  0.0920
 6206W        W21675  15.913  15.575  15.275  0.0465 -0.3312 -0.0550
 6207W        W21676  16.916  16.910   0.244 -0.3089 -0.0979 -0.1846
 6208W        W21677   0.820   0.279  15.782  0.1213 -0.1137  0.0838
 6209W        W21678  10.310   1.738  12.216  0.3186 -0.0704 -0.1056
 6210W        W21679   5.590  16.971  10.885 -0.0861 -0.0004 -0.2705
 6211W        W21680   5.151  16.071   0.560  0.0261  0.0121 -0.1447
 6212W        W21681   5.161  16.650   3.013 -0.0147  0.1722 -0.2409
 6213W        W21682  13.807  15.854  12.717  0.1748 -0.1169  0.0337
 6214W        W21683   6.442   3.434  12.656 -0.0843 -0.2549  0.0348
 6215W        W21684   3.639   9.764  12.119 -0.2340 -0.0004  0.1530
 6216W        W21685   3.641   8.118  14.647  0.2204 -0.1915 -0.0127
 6217W        W21686   7.299   8.997   5.313 -0.0785  0.1079 -0.1476
 6218W        W21687   7.579  14.184   1.309  0.3725 -0.0480  0.0988
 6219W        W21688   7.713  17.162   0.624 -0.1254 -0.2128 -0.0094
 6220W        W21689  11.131   5.515   0.918 -0.0252  0.1678  0.2355
 6221W        W21690  12.154   1.967   0.404  0.1296 -0.0465  0.0686
 6222W        W21691   2.709   5.795   0.277  0.2634 -0.0510 -0.0126
 6223W        W21692   4.633  11.448  13.886  0.2411  0.2695 -0.0264
 6224W        W21693  18.000   1.153   5.042 -0.1434 -0.0492 -0.1753
 6225W        W21694   5.493  16.934  13.317 -0.0288 -0.0159  0.1796
 6226W        W21695  14.265   0.479   0.469 -0.0034  0.0574 -0.2310
 6227W        W21696  10.934   6.569   4.377  0.0276 -0.0096  0.0189
 6228W        W21697   5.670   6.995  12.729  0.0341  0.2788 -0.3663
 6229W        W21698   8.382  14.473   3.187  0.1743 -0.0580 -0.0758
 6230W        W21699  17.061   7.849   5.516 -0.0224 -0.1844  0.2556
 6231W        W21700  12.004  12.078  14.530 -0.0958  0.0527  0.2082
 6232W        W21701  16.070   9.569  11.712 -0.0906 -0.2123  0.0183
 6233W        W21702  17.960   1.534  11.079 -0.2469  0.1031 -0.1298
 6234W        W21703  18.428   9.439   1.297  0.3722 -0.1166 -0.1169
 6235W        W21704   9.067  11.308  15.032 -0.1907 -0.3589  0.0475
 6236W        W21705  13.242   9.946   3.774  0.1429 -0.1501  0.0181
 6237W        W21706   1.001   6.226   5.710 -0.1284  0.0698  0.1130
 6238W        W21707  17.314   5.647   1.139  0.0707  0.1666  0.0816
 6239W        W21708   7.528  17.844  12.836  0.0150 -0.0584  0.0515
 6240W        W21709   5.372   6.862   2.407  0.2304 -0.0495  0.1165
 6241W        W21710   2.800   4.246  11.235 -0.1304 -0.0733 -0.0282
 6242W        W21711   9.958  15.663   0.482  0.0474 -0.0537 -0.1212
 6243W        W21712  14.161  15.830   2.009 -0.2278  0.0786  0.1909
 6244W        W21713   7.507  12.318   4.031  0.1176  0.0278  0.1518
 6245W        W21714  15.937   3.629  15.385  0.3995  0.0393  0.1312
 6246W        W21715  14.253   3.386   3.240 -0.2593  0.2620 -0.2092
 6247W        W21716   9.193   4.266   5.413  0.0998 -0.2586  0.0704
 6248W        W21717   3.824   3.441   3.916  0.1894  0.2256 -0.0268
 6249W        W21718  13.838   1.648   2.421 -0.2800 -0.1245 -0.1895
 6250W        W21719   1.575  10.880   2.444  0.0583 -0.0451 -0.0622
 6251W        W21720   6.428  10.606   3.193 -0.3152 -0.2366  0.1308
 6252W        W21721  12.341   2.197  10.736 -0.0837  0.0670 -0.2443
 6253W        W21722   7.857   4.180   3.393 -0.0987 -0.1975  0.5514
 6254W        W21723  11.884  14.012  10.727 -0.1946  0.1063  0.2703
 6255W        W21724   0.043  13.491  12.347  0.0796 -0.0814 -0.1300
 6256W        W21725  18.185  13.744   3.611  0.2355 -0.0693 -0.0086
 6257W        W21726  18.018   2.614  15.594 -0.1349 -0.0063  0.1639
 6258W        W21727  14.948   9.981   3.578 -0.2678  0.0459 -0.2672
 6259W        W21728   8.665  13.400  10.768 -0.0400 -0.1141  0.1757
 6260W        W21729   1.446   3.565   5.936  0.1640 -0.1356 -0.0728
 6261W        W21730  17.200  17.602  13.640 -0.2851 -0.0029 -0.3537
 6262W        W21731   8.583   8.779  12.206  0.0301  0.0581 -0.0370
 6263W        W21732  14.081  10.672   5.801 -0.6045  0.4209 -0.1310
 6264W        W21733   2.550   1.890   1.856  0.1535  0.0313  0.0467
 6265W        W21734   8.416   0.197  13.371  0.0194  0.0920 -0.0126
 6266W        W21735   2.687  11.173  11.848 -0.1002  0.0921  0.0608
 6267W        W21736   7.256   1.066   4.269  0.0096 -0.1616  0.0363
 6268W        W21737  16.069  13.838  14.477  0.2991  0.0668  0.0774
 6269W        W21738   2.819  17.260  15.702 -0.0986  0.0348  0.2352
 6270W        W21739   0.533   2.279  13.617  0.5042  0.0690 -0.0833
 6271W        W21740  14.628  15.337  13.468  0.0292  0.0772  0.0859
 6272W        W21741  18.085   4.576   2.065 -0.0091 -0.1028 -0.0163
 6273W        W21742  12.177  12.858  15.137  0.1163  0.1661 -0.2461
 6274W        W21743  15.827  15.666   3.703  0.0075  0.0534 -0.0196
 6275W        W21744  13.935   7.235   4.870  0.0645 -0.1532 -0.1496
 6276W        W21745   4.580   5.738  11.619 -0.0651 -0.1633 -0.1389
 6277W        W21746   3.672   1.127   0.661 -0.2943 -0.0584 -0.0518
 6278W        W21747   5.828   5.488   1.722 -0.1540 -0.1412 -0.1511
 6279W        W21748   2.039   4.943   3.894 -0.0968 -0.0440 -0.0369
 6280W        W21749  16.318   9.784   2.208 -0.1813 -0.1330  0.0859
 6281W        W21750  16.842  12.193  14.972  0.4010 -0.0221  0.1390
 6282W        W21751  13.412  10.179   4.659 -0.3004  0.1923 -0.2142
 6283W        W21752   3.942   0.920   3.333  0.1647 -0.1017 -0.0217
 6284W        W21753  16.897  17.211  10.664  0.1130 -0.0503 -0.0422
 6285W        W21754   4.083  12.162   3.275  0.3099 -0.0436 -0.2013
 6286W        W21755  10.035  16.421   0.481  0.1288 -0.0826 -0.0784
 6287W        W21756   3.303  14.790  15.024 -0.1760 -0.3092 -0.2440
 6288W        W21757  10.706  15.358  15.084 -0.4119  0.2456  0.1586
 6289W        W21758  15.867   8.110   3.858  0.2525  0.2383  0.2397
 6290W        W21759   4.339   7.928  11.911  0.3765 -0.0531 -0.0145
 6291W        W21760  11.695   2.868   4.018  0.0917  0.1488  0.0242
 6292W        W21761  17.620  12.042   2.463  0.1034  0.2221 -0.0217
 6293W        W21762   8.856   0.378   2.962 -0.0986  0.2116 -0.0794
 6294W        W21763   5.102  10.636  10.383  0.2451 -0.1391 -0.0413
 6295W        W21764   2.430   0.336   4.458  0.3572  0.0998  0.1932
 6296W        W21765   8.565   6.920  13.964  0.3538  0.1356  0.0072
 6297W        W21766   9.442   7.179   0.766  0.3295  0.0088  0.0121
 6298W        W21767   6.193   0.815   0.085 -0.1518  0.1665 -0.1063
 6299W        W21768  13.678   8.545  12.326  0.1337 -0.0330 -0.1681
 6300W        W21769  15.192   1.037   4.380  0.1521 -0.2990 -0.0603
 6301W        W21770  14.672   8.256   3.198 -0.0190  0.0666  0.3653
 6302W        W21771   6.047  18.412  13.956 -0.2065  0.2381  0.2108
 6303W        W21772   8.589   4.555   5.230  0.3138 -0.1432 -0.0116
 6304W        W21773  14.979  12.710   2.024 -0.0626 -0.3380  0.1470
 6305W        W21774  12.223   5.237   4.860 -0.0106  0.1767 -0.0443
 6306W        W21775   4.871   0.388   2.514  0.1497  0.1907 -0.1564
 6307W        W21776   8.957   7.885  11.231  0.0408 -0.0875 -0.0444
 6308W        W21777   9.593   3.755  13.895  0.0448  0.0322 -0.2111
 6309W        W21778  13.437  17.934  15.971  0.1102  0.2092  0.1659
 6310W        W21779   1.981  17.817  14.667  0.2721  0.2031 -0.0811
 6311W        W21780   6.428  15.247   2.373  0.1820 -0.1312  0.2513
 6312W        W21781   1.218   2.360  15.782  0.1276  0.3292  0.1487
 6313W        W21782  11.846   1.413  15.900  0.0636 -0.1647 -0.0003
 6314W        W21783  10.407  14.172  10.885  0.3005 -0.3824 -0.1038
 6315W        W21784   8.325   5.546   0.968  0.0344  0.3326  0.4089
 6316W        W21785   9.585   1.288   2.277 -0.1277  0.1061 -0.1361
 6317W        W21786  13.818  10.568  14.206 -0.4820  0.2230  0.2825
 6318W        W21787   1.931   0.810   2.306 -0.1475 -0.0315  0.2619
 6319W        W21788   0.491  10.084   4.709  0.1572  0.2542 -0.0882
 6320W        W21789  17.016  18.419  14.129 -0.1907 -0.0073 -0.1830
 6321W        W21790  13.959  17.161  14.631  0.0749  0.5686  0.0538
 6322W        W21791  16.959  13.194  12.465 -0.2165 -0.1045 -0.1144
 6323W        W21792  13.835  11.374  15.264 -0.0989  0.2638  0.2763
 6324W        W21793  17.340  18.345   1.203  0.0919 -0.1546 -0.0230
 6325W        W21794   8.326   2.800  10.029  0.0587  0.1568 -0.0187
 6326W        W21795  17.325  14.204   2.414 -0.1449 -0.3266 -0.2222
 6327W        W21796   7.210   4.310   1.791 -0.1350 -0.0035  0.1481
 6328W        W21797   1.071  18.263   2.298  0.0372  0.0307  0.0537
 6329W        W21798  15.874  11.232  14.088 -0.1356  0.1601  0.0569
 6330W        W21799  14.511   1.842  11.897  0.1376  0.1236  0.1247
 6331W        W21800  16.573   9.289   3.757 -0.1026  0.3940  0.1606
 6332W        W21801   0.461  16.166  12.694 -0.0582 -0.0972 -0.3429
 6333W        W21802  11.769   9.494  14.027 -0.3143 -0.0728  0.1996
 6334W        W21803  15.906   7.852   1.916  0.1192  0.1909 -0.0936
 6335W        W21804   5.169  14.538  15.393 -0.1295 -0.0587  0.0545
 6336W        W21805   9.382  11.472   5.704 -0.2518 -0.0850  0.2934
 6337W        W21806  11.680  11.252  13.412 -0.1331 -0.2248 -0.3947
 6338W        W21807   0.753   9.229  14.508 -0.3124 -0.2044  0.1027
 6339W        W21808   7.739   0.426   2.796 -0.2086 -0.0110 -0.2861
 6340W        W21809  13.145   3.671  10.877  0.0554 -0.1488  0.1761
 6341W        W21810   1.287  13.659   5.022 -0.0577  0.0226  0.1699
 6342W        W21811  15.126   2.612   5.800 -0.3173  0.2610 -0.0675
 6343W        W21812   3.111   5.991   1.448 -0.0955  0.1267 -0.1457
 6344W        W21813  10.329  12.322  15.810 -0.0835  0.4243  0.0958
 6345W        W21814  13.635   7.093  15.761 -0.0426  0.1082 -0.1028
 6346W        W21815   2.252  17.064  13.476  0.0504  0.1889 -0.1266
 6347W        W21816   1.879  14.833  11.662 -0.1139 -0.0886  0.0673
 6348W        W21817   9.387   9.772   5.793 -0.0719  0.1295 -0.0693
 6349W        W21818   6.298  15.950  13.718 -0.1448 -0.5190 -0.0151
 6350W        W21819   8.385   2.784   0.153 -0.0167  0.3440 -0.1842
 6351W        W21820  15.294  15.185   1.490 -0.0547 -0.1734  0.0107
 6352W        W21821   8.068   4.045   6.364 -0.2276 -0.4356  0.1933
 6353W        W21822  14.686   3.217  15.627 -0.0140  0.1231 -0.1997
 6354W        W21823   0.222  12.730  15.121 -0.0077 -0.0846 -0.1084
 6355W        W21824  15.783  16.135   4.903  0.1272  0.1331 -0.1830
 6356W        W21825   7.139   3.382   0.669 -0.0412 -0.0251 -0.3185
 6357W        W21826  15.246  17.154   5.523 -0.0543 -0.0645 -0.1090
 6358W        W21827  16.018   1.023   4.783  0.1354 -0.0423 -0.2588
 6359W        W21828   1.454  13.265   2.935  0.0865 -0.0951 -0.0264
 6360W        W21829   7.201   7.737  15.972 -0.0408  0.0809 -0.1833
 6361W        W21830  16.713   9.997  15.732  0.2922 -0.0544  0.0164
 6362W        W21831  15.149  11.446   4.889 -0.0820 -0.0205 -0.2240
 6363W        W21832   7.042   5.706   2.465  0.0756 -0.0737  0.2499
 6364W        W21833   6.331  17.226   0.332  0.3109  0.3509  0.0886
 6365W        W21834   3.538  14.100   2.738  0.1089 -0.4715  0.1319
 6366W        W21835  11.750   4.905   0.981  0.1115 -0.1784  0.0089
 6367W        W21836   1.580  16.051   5.233 -0.1461  0.0353 -0.2644
 6368W        W21837   4.318  12.148   5.089 -0.0034  0.0123  0.0501
 6369W        W21838  14.350   9.311   4.679  0.0955 -0.2856  0.0470
 6370W        W21839   6.649  16.658   2.892  0.0125  0.1104  0.4360
 6371W        W21840  15.636   2.314  12.390  0.1690 -0.0248 -0.2763
 6372W        W21841   4.085  13.474   6.054 -0.2726 -0.0202 -0.0641
 6373W        W21842  17.749  14.620   3.606  0.0968  0.1136  0.1321
 6374W        W21843  15.120  11.639   3.735 -0.1088  0.0123  0.1655
 6375W        W21844   5.590   7.065  11.752 -0.4344 -0.1681  0.1977
 6376W        W21845  12.504   4.152  13.678 -0.2729 -0.0334 -0.0277
 6377W        W21846  14.526  11.138   3.857  0.1068  0.0989  0.1291
 6378W        W21847   2.121  16.126  15.351  0.4162  0.2411 -0.2696
 6379W        W21848  17.632  17.741  14.887  0.0801  0.1301 -0.3272
 6380W        W21849   9.378   6.903   1.283  0.0566  0.1192 -0.0971
 6381W        W21850   8.967   7.863  13.310 -0.0536 -0.0726 -0.0442
 6382W        W21851  10.643  11.988  13.262  0.0035 -0.3404  0.3170
 6383W        W21852   9.972   6.236  12.140 -0.0625 -0.0005  0.3092
 6384W        W21853  15.322   1.200  13.320  0.1471 -0.2292 -0.1490
 6385W        W21854  11.961   8.989  10.749 -0.3482  0.0770 -0.0745
 6386W        W21855   1.448  17.026  13.799 -0.0230 -0.0415  0.0564
 6387W        W21856   3.988  11.961   0.221  0.0992 -0.2049 -0.0343
 6388W        W21857  12.279   8.873  11.118 -0.0245  0.0403  0.2384
 6389W        W21858   3.931   1.584   1.067 -0.0189  0.2148  0.1325
 6390W        W21859  17.912  15.423   5.142 -0.1462  0.1465  0.0401
 6391W        W21860  17.776  13.696  15.418 -0.0353 -0.0082 -0.1545
 6392W        W21861   4.182   2.935   4.653 -0.0191  0.0127 -0.0169
 6393W        W21862  15.237   3.572   4.298 -0.0891  0.0374 -0.1814
 6394W        W21863  11.269  12.986  11.205  0.3343  0.3497  0.1491
 6395W        W21864   3.726   5.272   4.811 -0.1603 -0.3055  0.1356
 6396W        W21865  16.045   7.841   5.281 -0.0748 -0.0473 -0.0342
 6397W        W21866   3.223  11.432   1.874  0.0721  0.1447  0.2525
 6398W        W21867   7.687  13.670  14.704  0.1732 -0.0111 -0.0420
 6399W        W21868  17.795  17.625   5.720  0.6492  0.1500 -0.2057
 6400W        W21869   2.740   0.736   4.352 -0.0584  0.0344 -0.1419
 6401W        W21870   6.708  11.474  15.375  0.3957  0.2964 -0.1030
 6402W        W21871  14.657  10.621   4.933  0.0701 -0.2763  0.1637
 6403W        W21872  14.533   1.094  13.881  0.1085 -0.2107  0.1791
 6404W        W21873  13.091  11.336   0.575  0.0080  0.2875  0.0562
 6405W        W21874   7.839  18.233  15.281 -0.1935 -0.1888 -0.1482
 6406W        W21875   7.958   0.299  12.508  0.2429  0.1649  0.0283
 6407W        W21876  12.183  18.444  11.296  0.2007 -0.0038  0.2472
 6408W        W21877   4.125   5.457   1.889 -0.1142 -0.4224  0.0064
 6409W        W21878   3.206  14.944   5.177  0.0566  0.2439  0.0642
 6410W        W21879   9.031  10.294   2.130  0.1620  0.1312  0.2009
 6411W        W21880  10.368   1.743  15.948 -0.0623  0.0418 -0.3090
 6412W        W21881  11.218  13.686   0.978 -0.0285 -0.1951  0.1342
 6413W        W21882   4.654   1.296  12.875 -0.0558 -0.0666 -0.3292
 6414W        W21883   9.162   0.637  13.905 -0.1667  0.0377  0.2027
 6415W        W21884  17.785   7.615   0.199 -0.1538 -0.0440 -0.3165
 6416W        W21885   5.208   3.082  11.079  0.0078  0.2337  0.4161
 6417W        W21886   2.316  17.012   4.914  0.0538  0.0598  0.1318
 6418W        W21887   2.422  13.667   3.461 -0.0598 -0.0526 -0.1007
 6419W        W21888   5.075  16.134   1.855  0.0220 -0.1059  0.0139
 6420W        W21889   2.851   1.062   0.159 -0.1582 -0.2152 -0.0396
 6421W        W21890  18.368   0.068   1.895  0.0217 -0.3537  0.0612
 6422W        W21891  16.439  13.394  15.704  0.0404 -0.1185 -0.0396
 6423W        W21892  17.669   2.905  15.919  0.3752  0.0924 -0.1127
 6424W        W21893  15.587   9.467   4.084  0.1549 -0.0754  0.0578
 6425W        W21894   7.226   6.905  12.525 -0.2286  0.3424 -0.0334
 6426W        W21895   7.422   5.549  15.867  0.2359 -0.0755 -0.2220
 6427W        W21896   8.029   5.909   5.716 -0.2517  0.1200  0.2765
 6428W        W21897  14.855   9.818   0.654  0.2864  0.3196 -0.0713
 6429W        W21898  14.407  11.359  11.891  0.0167 -0.1268  0.0009
 6430W        W21899  14.346  13.270   3.554  0.3449  0.0214 -0.0068
 6431W        W21900   4.362  16.401  15.831 -0.0150  0.0692 -0.1063
 6432W        W21901   8.704   0.485   5.426 -0.0466  0.0634  0.0080
 6433W        W21902   3.120   8.057  16.009  0.2148  0.2361 -0.0532
 6434W        W21903  17.539   3.596   1.147 -0.0265  0.2071 -0.2101
 6435W        W21904  15.120   6.309  15.849  0.0555 -0.0637  0.1306
 6436W        W21905   2.657   8.812  14.203 -0.1660  0.0546  0.2508
 6437W        W21906   6.594   8.297   4.330  0.0641  0.1071  0.2101
 6438W        W21907   4.798  12.173   0.932  0.2317  0.0716 -0.2087
 6439W        W21908  11.698  13.160  10.903 -0.3726  0.1079  0.0589
 6440W        W21909  18.034   2.616   4.111  0.1216  0.0736 -0.1664
 6441W        W21910   8.941   1.472   5.130  0.0742 -0.0368  0.3246
 6442W        W21911   3.342  13.092   0.564 -0.2227 -0.0069  0.0569
 6443W        W21912   0.675  10.311   1.908  0.2750 -0.2247  0.1434
 6444W        W21913   5.702  17.236  14.209  0.1051  0.1324  0.1690
 6445W        W21914   3.448   4.089  12.696  0.1770  0.1303  0.2481
 6446W        W21915  12.577  16.930   1.839 -0.1850 -0.4301  0.2135
 6447W        W21916   3.424  11.696   0.862 -0.0838  0.2214  0.0250
 6448W        W21917   1.983  18.234  14.223 -0.2903  0.0465 -0.0327
 6449W        W21918   8.605   2.731  11.635  0.0060 -0.0981 -0.3449
 6450W        W21919   9.526  13.508   2.706  0.0382  0.4546  0.1752
 6451W        W21920   1.427  14.121   0.175  0.0446 -0.0248  0.1630
 6452W        W21921   3.193  12.549   4.101 -0.0143  0.1358 -0.2343
 6453W        W21922  13.571  10.700  12.641 -0.4519  0.0096 -0.1629
 6454W        W21923  13.478  15.251  10.486 -0.2431 -0.1270 -0.1194
 6455W        W21924   9.465  16.440   4.162 -0.1940 -0.0432  0.3454
 6456W        W21925   2.687   2.540  14.063 -0.0223 -0.0830 -0.2225
 6457W        W21926  18.138   9.288   4.352  0.0949 -0.1530 -0.0553
 6458W        W21927  13.201   7.206  14.405 -0.0196  0.1822 -0.0757
 6459W        W21928   3.328   2.500  12.775  0.0062 -0.1185 -0.1864
 6460W        W21929  16.676   8.272   5.353  0.3070  0.0112  0.1525
 6461W        W21930   8.073  12.412  11.939  0.1161 -0.2439  0.3784
 6462W        W21931   5.596   2.557  14.990  0.0056  0.1058  0.3830
 6463W        W21932  11.856  12.877   2.367  0.4640 -0.0657 -0.0476
 6464W        W21933  15.930  16.909   5.424  0.4189 -0.0994  0.3269
 6465W        W21934   9.899   8.946   0.498  0.1607 -0.1156  0.0695
 6466W        W21935  13.642   7.119  10.877 -0.0232 -0.1206  0.2940
 6467W        W21936   5.503   3.054   3.276 -0.2085  0.1935  0.1759
 6468W        W21937  15.175   4.962   3.049 -0.2366 -0.0649 -0.2287
 6469W        W21938  15.767  14.708  10.470  0.1050 -0.1473 -0.2434
 6470W        W21939  17.377   8.351  12.706 -0.0552 -0.2214  0.0796
 6471W        W21940   8.831  11.813  13.793  0.1085 -0.0733  0.0184
 6472W        W21941   4.585  13.713  11.798 -0.3034  0.1936  0.0901
 6473W        W21942   3.883   7.144   5.729 -0.1904 -0.1777  0.0312
 6474W        W21943  17.179  15.238  14.642  0.1229  0.2606  0.0418
 6475W        W21944   7.575   5.323  11.090 -0.0678 -0.0925 -0.2217
 6476W        W21945   6.300   2.443   0.843 -0.2190 -0.1665  0.2508
 6477W        W21946  14.409   1.602   0.389  0.0055 -0.5272  0.0545
 6478W        W21947   5.506  15.482   2.316  0.1933  0.0837 -0.1178
 6479W        W21948   0.500  17.571  12.759  0.0950  0.0094 -0.0654
 6480W        W21949  18.088   3.774  15.732 -0.1037 -0.1083  0.4311
 6481W        W21950  16.934   2.857   3.128 -0.3986 -0.0539  0.0530
 6482W        W21951   8.599   3.004   1.507 -0.0107  0.3956  0.1704
 6483W        W21952  15.804  12.962   3.072  0.0325 -0.3486 -0.3466
 6484W        W21953   6.888   4.254   5.569 -0.1140  0.1903 -0.1315
 6485W        W21954   0.767  10.505  12.420  0.0927 -0.2055  0.0409
 6486W        W21955   6.915   4.771  11.423 -0.4009  0.3588 -0.1435
 6487W        W21956  14.061   5.611  11.560 -0.1693  0.0529  0.0682
 6488W        W21957   4.442   1.125  12.352 -0.2959 -0.1299  0.1067
 6489W        W21958  17.390  16.300   1.427  0.0420  0.0511 -0.1300
 6490W        W21959  16.885  18.139  12.037  0.1807 -0.0695  0.1767
 6491W        W21960   8.622   9.498   2.178 -0.2210 -0.0911 -0.2046
 6492W        W21961   5.754   3.107  14.827 -0.0908  0.0755 -0.1510
 6493W        W21962   5.690  17.278   5.020  0.1082  0.0160  0.3208
 6494W        W21963   3.289  15.062   3.745 -0.0792  0.1390 -0.0687
 6495W        W21964   1.471   0.998   2.347  0.1035 -0.1639 -0.0013
 6496W        W21965  13.056  16.844  11.004  0.2462 -0.0604  0.3136
 6497W        W21966  12.367   8.629   0.988 -0.2052  0.2936 -0.1268
 6498W        W21967  15.258  10.188   0.705 -0.0124  0.0458  0.3219
 6499W        W21968  18.016  15.321   4.102  0.1504  0.2425 -0.1176
 6500W        W21969   6.189  13.525  12.237 -0.1973 -0.1835 -0.3879
 6501W        W21970  11.965  12.623   4.723 -0.0718 -0.1161 -0.0058
 6502W        W21971  13.875  16.243  16.015 -0.1351 -0.1084  0.1464
 6503W        W21972   0.919   7.443   3.916  0.2759 -0.2689  0.1790
 6504W        W21973   3.109  17.083   3.097 -0.2695 -0.4416  0.2277
 6505W        W21974  16.537   2.289  12.684 -0.0188  0.2291 -0.2558
 6506W        W21975   3.382   6.729   5.747  0.0059  0.0470 -0.0315
 6507W        W21976  16.995  12.801   3.818  0.2073  0.2331  0.1178
 6508W        W21977  12.173  12.915  11.007  0.1236 -0.1846  0.1543
 6509W        W21978  17.393   3.333   1.579  0.1222 -0.1017  0.0758
 6510W        W21979   9.036   4.753  14.514 -0.2647  0.2831  0.2508
 6511W        W21980  12.819  16.253  11.922  0.0335 -0.2098  0.1432
 6512W        W21981   8.066   4.556  12.588 -0.2736 -0.0031 -0.0132
 6513W        W21982  16.890   0.807   1.587  0.2503  0.0341 -0.3829
 6514W        W21983  12.680   4.456  14.357 -0.0407  0.0175  0.2482
 6515W        W21984  10.105   4.609   2.846 -0.2373 -0.0295  0.2985
 6516W        W21985  13.898  10.516  16.009 -0.3544  0.3034 -0.0469
 6517W        W21986  10.840  11.681   5.096 -0.2548  0.0701 -0.0069
 6518W        W21987  13.364  13.771   0.028 -0.2039  0.0944  0.1909
 6519W        W21988  10.704   2.558  15.908  0.0356  0.2545 -0.0767
 6520W        W21989  16.580  12.981   0.034 -0.0022 -0.1647 -0.3730
 6521W        W21990  13.594  10.971   4.187 -0.0821  0.1401 -0.1141
 6522W        W21991   3.673   2.587  10.354 -0.0578  0.0719 -0.1821
 6523W        W21992   9.597   8.697   3.428  0.2976  0.4033 -0.0541
 6524W        W21993   3.339   6.788   4.313 -0.1184  0.1342 -0.2056
 6525W        W21994  12.438  13.776  14.603 -0.4176 -0.0165 -0.0106
 6526W        W21995   9.630  12.906   5.479 -0.1623 -0.2487  0.0503
 6527W        W21996   3.361   8.950  14.303 -0.0294 -0.2951 -0.1894
 6528W        W21997  17.763  13.815  11.113  0.0856  0.0478  0.0665
 6529W        W21998   2.562   0.285  13.608 -0.0226 -0.0311  0.0702
 6530W        W21999  12.647  12.416  11.638  0.1778  0.0020  0.2926
 6531W        W22000   6.249  15.511   4.644 -0.0915  0.3453  0.3289
 6532W        W22001   0.584  15.570  12.321 -0.3438 -0.0195  0.1905
 6533W        W22002  12.672   1.273   2.496  0.2243  0.0188  0.0336
 6534W        W22003   3.781   3.317  15.296 -0.0111  0.1938  0.3941
 6535W        W22004  12.189   4.268  13.280  0.5243  0.3324  0.0706
 6536W        W22005   6.688  12.692  15.345 -0.1296  0.1514 -0.1021
 6537W        W22006   5.923   6.837   0.426 -0.1723 -0.1814  0.0720
 6538W        W22007   7.929  11.776  15.739 -0.2681 -0.0923  0.1110
 6539W        W22008   5.914   3.769   0.075 -0.1792  0.0877  0.1385
 6540W        W22009   1.679  17.444  13.898  0.0740  0.0125  0.2556
 6541W        W22010   7.904   1.936   0.284 -0.0385 -0.1292 -0.0031
 6542W        W22011   5.980   2.214   3.770 -0.0636  0.4441  0.0233
 6543W        W22012   5.312   5.274   5.355 -0.2332  0.0485  0.0080
 6544W        W22013  14.630  16.897   1.482 -0.4466  0.2171  0.1036
 6545W        W22014   1.422   9.364  13.983 -0.3591 -0.0952  0.2153
 6546W        W22015   9.958  11.981   2.579 -0.1884  0.0776  0.0487
 6547W        W22016  15.113   2.155   4.480 -0.2583 -0.0437  0.0414
 6548W        W22017   1.516   9.737  11.776 -0.0838 -0.0824 -0.0212
 6549W        W22018  10.524  16.662   5.177 -0.2950 -0.1789  0.3546
 6550W        W22019   7.515   1.218  14.303 -0.2959 -0.1429 -0.2469
 6551W        W22020  15.579   0.439   3.163  0.1418  0.0614  0.0929
 6552W        W22021  15.117   9.900  14.271  0.1667 -0.0745 -0.2647
 6553W        W22022   2.340  14.484  12.496  0.0574 -0.1446 -0.0910
 6554W        W22023   7.863  10.338  13.235 -0.2045 -0.0444  0.1506
 6555W        W22024  11.112   3.687   4.999 -0.3140 -0.2099 -0.2878
 6556W        W22025   0.733   3.378   5.226  0.1132 -0.3376  0.0115
 6557W        W22026  14.406   0.507   5.410  0.0249 -0.1854  0.0873
 6558W        W22027   0.482  13.122  15.735 -0.1650  0.0059  0.1330
 6559W        W22028   1.677  11.036  14.228  0.4120  0.0257  0.0905
 6560W        W22029   8.906  10.746  14.995  0.0848 -0.0737 -0.2462
 6561W        W22030  12.034   6.114   0.028 -0.1800  0.0722 -0.0967
 6562W        W22031   2.709  15.750  14.711  0.0622  0.1576 -0.2777
 6563W        W22032  17.299   1.854  12.816  0.0769 -0.1758  0.0700
 6564W        W22033  12.172  16.540  13.182 -0.0655 -0.1286 -0.0360
 6565W        W22034   1.135  13.535  14.308  0.0963  0.1954  0.0919
 6566W        W22035  13.025   0.480  13.653 -0.2051  0.1002 -0.0325
 6567W        W22036  11.403   1.169   1.973 -0.2163 -0.1285 -0.0073
 6568W        W22037   3.507   0.277   1.288 -0.1746  0.0971 -0.1075
 6569W        W22038   3.740  14.775  15.735 -0.1024  0.3605  0.2050
 6570W        W22039   4.702  14.985   4.283  0.1475  0.1851 -0.0681
 6571W        W22040   6.995  16.435  14.316 -0.0927 -0.1791 -0.2133
 6572W        W22041  17.897   5.375  13.548  0.0500  0.2319  0.0354
 6573W        W22042  12.262   0.460  12.843 -0.2251  0.2184  0.1793
 6574W        W22043   0.310   2.384   1.292  0.0391 -0.0451  0.2920
 6575W        W22044  12.196   6.505  13.105 -0.2817 -0.2724  0.2484
 6576W        W22045  10.312   8.647   0.466  0.0261 -0.2143  0.1753
 6577W        W22046  15.809  15.125   1.673  0.2127 -0.0373 -0.0484
 6578W        W22047   5.905   5.953   1.375 -0.0430  0.2128  0.2609
 6579W        W22048  10.878  18.252   2.905 -0.0214  0.1287  0.0412
 6580W        W22049  13.807  12.395  12.366  0.0005  0.0890  0.0013
 6581W        W22050   8.464  10.388  13.077 -0.1562 -0.0233  0.1277
 6582W        W22051   1.698  16.305   4.740  0.1903  0.0578  0.2583
 6583W        W22052   6.736   7.450   1.219 -0.0054  0.1262 -0.1520
 6584W        W22053   3.867   8.562  15.683 -0.2002 -0.1847 -0.3351
 6585W        W22054  13.836  10.472  12.215 -0.1037  0.0234  0.1011
 6586W        W22055  11.441   8.852  15.320  0.4637  0.0942 -0.0353
 6587W        W22056   4.498   5.298   9.944 -0.0131 -0.3499  0.0986
 6588W        W22057   4.968   3.350  10.689 -0.0337 -0.1446 -0.2153
 6589W        W22058   0.706   8.503   5.474  0.3235  0.1488 -0.0878
 6590W        W22059  12.891  12.389   4.705  0.0034 -0.0201 -0.3610
 6591W        W22060  10.594   4.333   1.413  0.4128 -0.1091 -0.1581
 6592W        W22061  10.785  15.409   2.541  0.0663 -0.0478 -0.2184
 6593W        W22062  11.766   1.280  15.410  0.2318 -0.1414  0.0692
 6594W        W22063  10.995   2.998   1.409 -0.3391  0.0829  0.4856
 6595W        W22064  14.620  13.587  13.715 -0.1709  0.1944  0.4499
 6596W        W22065  12.083   5.316   1.942  0.4022 -0.0310  0.1214
 6597W        W22066   7.382   7.610  12.484 -0.1307 -0.0013  0.4203
 6598W        W22067  14.055  10.247   1.619  0.1369 -0.2531  0.1433
 6599W        W22068   2.841  12.260   4.170  0.0700 -0.0048 -0.1600
 6600W        W22069   0.187   5.943   4.116 -0.1615 -0.1036  0.0544
 6601W        W22070   7.948  11.261   1.108  0.1193  0.0751 -0.0423
 6602W        W22071  11.938   9.701  12.476  0.2889 -0.1340  0.1584
 6603W        W22072   2.615  15.700   4.384 -0.2336 -0.0341 -0.2026
 6604W        W22073   0.351  12.616  15.592 -0.1370 -0.0852  0.1993
 6605W        W22074  12.612  11.237   0.542 -0.2486  0.1886  0.1117
 6606W        W22075   3.916  14.591  14.275 -0.2386 -0.0741 -0.1504
 6607W        W22076   3.066  17.529  14.005 -0.1325 -0.0826 -0.1266
 6608W        W22077   5.104  14.819  10.963 -0.1089 -0.1931  0.1605
 6609W        W22078  14.838   3.663  11.367 -0.0644  0.2790  0.0878
 6610W        W22079  15.813  12.599  13.667  0.0323 -0.1379 -0.2539
 6611W        W22080   1.057   3.034  13.255 -0.2099  0.0510 -0.2048
 6612W        W22081  13.824   3.086   0.164 -0.0005  0.0110  0.0630
 6613W        W22082  14.950  18.257   1.706 -0.0823  0.1546  0.3377
 6614W        W22083   2.165  17.715  12.601 -0.1301 -0.2561 -0.0585
 6615W        W22084   8.943   7.670  13.960 -0.0275  0.0865 -0.1671
 6616W        W22085  17.370   2.966   4.525  0.2347  0.0262 -0.1446
 6617W        W22086  14.561   1.770   0.852  0.0826 -0.0830 -0.0405
 6618W        W22087   9.955  14.428  12.050  0.3752 -0.0028 -0.3371
 6619W        W22088   0.839   7.957   5.317 -0.1720 -0.1096 -0.3631
 6620W        W22089  17.020   6.220   3.978 -0.0422 -0.0470  0.0326
 6621W        W22090  16.453   7.955  13.289 -0.0321 -0.1207 -0.3085
 6622W        W22091  15.664  16.301   0.123  0.0024  0.1106 -0.1429
 6623W        W22092   5.544   5.262   6.405  0.0407 -0.2907  0.0318
 6624W        W22093   9.414   7.203  12.640  0.0363  0.1240  0.2817
 6625W        W22094  16.794   0.143  15.608  0.2634  0.3521  0.0965
 6626W        W22095   8.113   3.485   0.650  0.3602 -0.0067  0.1358
 6627W        W22096   7.046   3.257   1.174  0.0369 -0.1116 -0.0300
 6628W        W22097   9.168   2.093   2.238  0.0425  0.0725 -0.2091
 6629W        W22098   8.061   2.064  14.504  0.0160  0.2093  0.0499
 6630W        W22099   3.941  14.723   2.457  0.1165 -0.1026  0.0169
 6631W        W22100  11.905   8.719  11.444  0.0767 -0.2055  0.1513
 6632W        W22101   6.055   5.423   0.509  0.0809 -0.1872 -0.1178
 6633W        W22102  15.314   5.906   2.630  0.2740  0.1042 -0.1019
 6634W        W22103  17.121  13.646   2.179 -0.1221 -0.2419 -0.1048
 6635W        W22104   0.536  14.554   2.119  0.0805  0.2608 -0.2039
 6636W        W22105  13.716  13.633  15.496 -0.0477  0.0448  0.1913
 6637W        W22106  15.812   7.210   3.207 -0.0475 -0.2001 -0.1557
 6638W        W22107   0.850  16.888   4.448 -0.0112  0.0190  0.0308
 6639W        W22108   4.308   9.706  12.688  0.0689  0.0690  0.4121
 6640W        W22109  15.070  13.349  10.883 -0.0486  0.2665 -0.1868
 6641W        W22110   2.887   0.626  14.814 -0.0163 -0.0297  0.2410
 6642W        W22111  17.647  10.555   3.923  0.0980 -0.0700  0.1625
 6643W        W22112   5.339  12.936   2.384 -0.1277 -0.0497  0.2631
 6644W        W22113  16.686  15.323  12.445  0.1673 -0.2742  0.2271
 6645W        W22114   0.945   0.798   4.173 -0.1565  0.1360  0.1305
 6646W        W22115   1.972   9.531  14.158  0.4312  0.1209  0.1404
 6647W        W22116   7.072   6.068  13.205 -0.0298 -0.2281 -0.1355
 6648W        W22117   3.608  16.484  14.009 -0.0985  0.0357  0.0659
 6649W        W22118   8.329  17.443  10.830  0.0327 -0.2578 -0.1542
 6650W        W22119   9.011  17.245   0.481  0.2310 -0.2098  0.1051
 6651W        W22120   4.040   7.495   1.240  0.1688  0.1121  0.0125
 6652W        W22121   7.579  10.582  14.593  0.2297  0.2267 -0.2709
 6653W        W22122   3.683   8.588  13.193 -0.0557 -0.0217 -0.2873
 6654W        W22123  11.884   4.426   0.882  0.3176 -0.0152  0.1817
 6655W        W22124  14.342   2.303  15.101 -0.0498 -0.1972  0.1607
 6656W        W22125   2.201   2.532  12.762  0.0628 -0.1051 -0.2676
 6657W        W22126   4.958   7.163   2.493 -0.2952 -0.1346 -0.2291
 6658W        W22127  14.894  11.704  15.223  0.0353  0.0096  0.0993
 6659W        W22128   2.496  15.293   4.658  0.1106 -0.1268  0.1470
 6660W        W22129  12.405  17.960  15.276 -0.1994  0.0150 -0.0185
 6661W        W22130   2.621  18.203   2.964  0.0216 -0.0090  0.0023
 6662W        W22131  16.290   6.163   1.815 -0.1990  0.3423 -0.0021
 6663W        W22132   9.448   5.697  15.716 -0.0990 -0.3505  0.1006
 6664W        W22133   1.089  10.471  11.883  0.0829 -0.1021  0.3325
 6665W        W22134   9.501   2.958  14.104 -0.0331 -0.1186  0.0571
 6666W        W22135   0.813  15.013  10.813 -0.0032 -0.3042 -0.0197
 6667W        W22136   6.500  10.543  13.496 -0.3729 -0.2725  0.1996
 6668W        W22137   2.860   2.544   5.311 -0.2822  0.0125 -0.3189
 6669W        W22138   3.667  16.346  15.704  0.0176  0.2121  0.0013
 6670W        W22139  12.610   9.653  15.454 -0.1309  0.1152 -0.2916
 6671W        W22140  11.074  14.560  13.616 -0.0217  0.1195  0.2491
 6672W        W22141   5.157   2.442  15.788  0.0387 -0.2060 -0.3648
 6673W        W22142  15.431   5.164  14.330 -0.1716 -0.2045 -0.0611
 6674W        W22143   9.911   6.926   5.880 -0.6869  0.2621  0.0609
 6675W        W22144  11.148   9.931   5.043 -0.4164 -0.1339 -0.1268
 6676W        W22145  10.661   4.220   1.902  0.0210 -0.1631  0.1505
 6677W        W22146   8.445   6.711  12.837 -0.2161 -0.3164 -0.0377
 6678W        W22147   2.714   5.146  11.102  0.2186 -0.1668  0.4888
 6679W        W22148   7.621   3.281   5.286  0.0015  0.1990 -0.0681
 6680W        W22149  15.515  15.119  11.899  0.1984  0.0251  0.1657
 6681W        W22150  17.926   0.472   1.185 -0.2135  0.0406  0.0085
 6682W        W22151  14.062   9.256   5.627 -0.4780 -0.0672  0.0949
 6683W        W22152   9.897   4.129   3.155  0.1340 -0.0791  0.2287
 6684W        W22153  10.178  11.165   2.337  0.0224 -0.1400  0.4181
 6685W        W22154   8.331   3.285   2.487 -0.1152  0.0205  0.1316
 6686W        W22155  16.603   2.004  15.256 -0.0283  0.2048 -0.0544
 6687W        W22156  13.555  12.046   4.686 -0.0511  0.1682 -0.1108
 6688W        W22157   5.418  16.832   0.685 -0.5797 -0.0149 -0.1280
 6689W        W22158   7.320   7.208   0.016 -0.2344 -0.3438  0.0118
 6690W        W22159  17.211   9.128  15.940 -0.1563 -0.0813 -0.0507
 6691W        W22160  16.478   7.331  15.973  0.2845  0.1165  0.1108
 6692W        W22161  13.546  18.287  11.762 -0.1476  0.0191  0.1246
 6693W        W22162  17.888   9.287  13.684 -0.2524 -0.0447  0.1380
 6694W        W22163   3.102   2.573  10.295 -0.1330 -0.3111  0.1543
 6695W        W22164  15.052  18.214  13.317 -0.2225  0.0092 -0.0412
 6696W        W22165  17.226   2.039   4.940  0.1254  0.0892 -0.3118
 6697W        W22166  15.974   7.893  15.554  0.1314  0.0218 -0.2513
 6698W        W22167  13.640  15.835   4.454  0.4526 -0.1413 -0.1217
 6699W        W22168   6.975   2.762   5.177  0.1702 -0.2328  0.3659
 6700W        W22169   7.759  15.072   2.817  0.4372  0.3113  0.1600
 6701W        W22170  11.614   2.465  12.118  0.0990  0.1270  0.0344
 6702W        W22171  16.028  18.444   5.736  0.1124  0.1424  0.3355
 6703W        W22172  15.854  14.325  12.210  0.1148 -0.0874 -0.0342
 6704W        W22173  15.360   1.051  15.035  0.3209  0.1825 -0.2834
 6705W        W22174   0.131   3.115  10.641 -0.1454  0.1431 -0.0110
 6706W        W22175   4.119   9.073  12.157  0.0600 -0.1907  0.0572
 6707W        W22176   3.513  17.370   4.506  0.0397  0.1532 -0.1523
 6708W        W22177   9.317  13.545  11.693 -0.3846 -0.0881 -0.1570
 6709W        W22178   2.496   5.282   2.414  0.0430 -0.0902 -0.1948
 6710W        W22179   7.167   0.579   4.194  0.0830  0.0803 -0.3229
 6711W        W22180  18.373   9.175  10.355 -0.1803 -0.1147  0.2667
 6712W        W22181   5.344  10.205   5.143 -0.1062 -0.2157  0.0011
 6713W        W22182  17.376   3.459   6.169 -0.0430  0.0679 -0.1518
 6714W        W22183   4.328   0.498  13.067  0.0343 -0.0670 -0.0485
 6715W        W22184   9.815   8.886  15.895 -0.2070  0.2140  0.1229
 6716W        W22185   3.263   8.149  11.272 -0.2218 -0.1619  0.0965
 6717W        W22186   0.725   0.934   5.576 -0.0469 -0.2221  0.1704
 6718W        W22187   5.555  11.452   3.897 -0.0500 -0.1260 -0.1042
 6719W        W22188  15.296   8.077  15.761 -0.1386  0.0673  0.1297
 6720W        W22189   1.535   7.953   0.976  0.1493  0.2716 -0.1615
 6721W        W22190  17.144   8.249  10.733  0.3110  0.1188 -0.4579
 6722W        W22191   8.978   0.368   3.654 -0.1200 -0.0583 -0.2988
 6723W        W22192   0.606   1.628  15.380 -0.3563 -0.1023  0.2388
 6724W        W22193   7.122   1.828   5.116  0.2043  0.0364 -0.3445
 6725W        W22194   7.333  14.514   5.031  0.2932  0.2951 -0.2327
 6726W        W22195   0.555   0.088   2.406  0.2956 -0.4113 -0.1430
 6727W        W22196  14.991  12.029  14.781  0.1667 -0.1935 -0.1554
 6728W        W22197   6.886  10.774   4.762  0.0218  0.0002 -0.1167
 6729W        W22198   0.209   7.842  11.172 -0.2011  0.0410  0.1265
 6730W        W22199  14.986   9.673  15.776 -0.0373 -0.1353 -0.0740
 6731W        W22200  17.957   2.254   5.979  0.0437  0.0537 -0.1007
 6732W        W22201   2.517  12.830  14.652  0.3628  0.1619 -0.3040
 6733W        W22202   1.060  13.730  15.337  0.2634  0.0513  0.3016
 6734W        W22203  14.901   8.025   1.617 -0.2417  0.2565  0.1090
 6735W        W22204  15.623   3.342  11.216  0.2188 -0.0512 -0.1207
 6736W        W22205  17.206  14.722  11.637 -0.1107 -0.2289 -0.1407
 6737W        W22206   2.711   7.845  13.260  0.0418 -0.0204  0.2232
 6738W        W22207  10.516   3.208   1.803 -0.1891  0.2199 -0.2084
 6739W        W22208  13.169  18.030  10.316  0.1141 -0.1943  0.0380
 6740W        W22209   8.717  11.633   2.629  0.0124  0.3872 -0.2017
 6741W        W22210   9.452   1.509   5.153 -0.2703  0.3655  0.3205
 6742W        W22211   1.754  15.622   3.417  0.0166 -0.1476  0.0563
 6743W        W22212  18.215   4.169   5.139 -0.0816  0.1617  0.2257
 6744W        W22213  13.408   6.826   3.581  0.1488 -0.0202 -0.0959
 6745W        W22214   8.686   8.675   4.205 -0.4018 -0.0224 -0.3293
 6746W        W22215   4.315  13.310   3.452  0.0440 -0.0339 -0.2781
 6747W        W22216  15.358   9.251   1.262  0.2305 -0.2041  0.0232
 6748W        W22217  17.401  14.548   0.323 -0.0057  0.0129 -0.0475
 6749W        W22218  16.262   5.195  12.037 -0.1078 -0.1108  0.0682
 6750W        W22219  13.115  10.249  11.280  0.1506  0.0269  0.0608
 6751W        W22220   5.895   7.180   3.153 -0.1683  0.0050 -0.3617
 6752W        W22221   8.840   6.566  13.147 -0.1238 -0.1974  0.0166
 6753W        W22222  11.481   7.714   3.020  0.0335 -0.0375  0.2981
 6754W        W22223  10.507  11.188   1.507 -0.0941 -0.0772  0.2743
 6755W        W22224   2.968  14.161  12.751  0.0725  0.1113  0.0572
 6756W        W22225   7.732   1.470  12.598  0.1046  0.0501 -0.1485
 6757W        W22226   4.641   2.940  13.350 -0.1662  0.2816 -0.1086
 6758W        W22227   5.510   0.009  11.042 -0.0395 -0.1937  0.1641
 6759W        W22228  16.222   4.403  15.228  0.0433  0.0954  0.1324
 6760W        W22229   2.661   7.975   3.772 -0.1714 -0.0559  0.0692
 6761W        W22230   4.049   8.351   0.414  0.1668 -0.0427  0.0247
 6762W        W22231  12.713  18.370   1.285  0.0963 -0.0707 -0.1196
 6763W        W22232   0.407   7.759  14.612  0.1090 -0.0775 -0.0700
 6764W        W22233   0.302   5.923   4.713 -0.1416 -0.2116  0.1032
 6765W        W22234  10.285  11.485  11.496  0.3884  0.2181  0.1054
 6766W        W22235  14.789  17.590  13.971 -0.1003 -0.2326  0.2511
 6767W        W22236   2.486  14.649   1.259 -0.0586  0.1946 -0.3658
 6768W        W22237  12.968   8.639  14.450  0.1319 -0.0615 -0.1964
 6769W        W22238  10.115   5.824   6.075  0.2187 -0.2960  0.0858
 6770W        W22239  17.238   2.653  15.196  0.0181 -0.0677 -0.1616
 6771W        W22240  12.742   8.217   3.767  0.0497  0.0342  0.0357
 6772W        W22241  11.480   2.265  12.568 -0.4003 -0.0944 -0.0289
 6773W        W22242   4.926   7.641   2.301  0.1720 -0.2010 -0.0768
 6774W        W22243  12.626  18.208  11.763 -0.2860  0.1327 -0.0163
 6775W        W22244  15.662   2.119  11.048  0.0992 -0.1209  0.1113
 6776W        W22245  12.796   4.979   5.694 -0.0746 -0.1476  0.0604
 6777W        W22246   0.498   3.752  15.870  0.2132  0.1107 -0.1857
 6778W        W22247  12.915   4.936   4.848  0.2564  0.3064 -0.3439
 6779W        W22248  11.760  15.817  12.685 -0.1357  0.0053  0.2117
 6780W        W22249  14.026   2.401  11.393  0.1984 -0.0388 -0.0025
 6781W        W22250  10.476   0.413  10.612  0.0010  0.0237 -0.2575
 6782W        W22251  10.142  10.823   4.034 -0.2391  0.1892  0.0644
 6783W        W22252   5.510   7.039  15.057 -0.1685  0.0562  0.0744
 6784W        W22253  11.997   2.095  12.895 -0.0474  0.0169 -0.3055
 6785W        W22254  11.759   3.959  15.432  0.0039  0.1160  0.0054
 6786W        W22255   2.260   5.442   1.713 -0.0074  0.2219  0.0250
 6787W        W22256  10.693  14.408  12.028 -0.0050  0.1330  0.3179
 6788W        W22257  11.351   2.458   5.140  0.5737 -0.1675 -0.2779
 6789W        W22258   8.502   3.734  11.489 -0.1235 -0.1299 -0.2378
 6790W        W22259  17.855  16.190  14.151  0.0616 -0.0087  0.0458
 6791W        W22260   1.779   0.709   1.814  0.2273  0.4107  0.0379
 6792W        W22261  10.470  16.101  15.889  0.2887  0.2400  0.0010
 6793W        W22262  16.325   6.488   2.203  0.1825  0.1509 -0.3446
 6794W        W22263  10.434   8.733   5.778 -0.3401  0.1781 -0.2840
 6795W        W22264   4.553   6.254   4.374  0.0811 -0.0688  0.0970
 6796W        W22265  10.419  10.686  11.727 -0.0878 -0.1428 -0.1521
 6797W        W22266  12.894  14.656   1.250 -0.1570  0.1474  0.2724
 6798W        W22267   7.528   3.948   3.009 -0.1857 -0.2188 -0.1215
 6799W        W22268   1.463  14.990  15.211  0.1878 -0.0613 -0.0106
 6800W        W22269   4.319  18.192   3.089  0.0103 -0.0250  0.1374
 6801W        W22270  10.912  15.530   5.356  0.1138  0.2378  0.1691
 6802W        W22271   9.642  16.944  14.401  0.0068  0.0831  0.0628
 6803W        W22272  11.837  12.575  14.730 -0.1276 -0.0567 -0.0814
 6804W        W22273  15.497  12.423   0.331  0.4384 -0.3171  0.1461
 6805W        W22274   3.278   1.370  11.796  0.0547 -0.0046 -0.0825
 6806W        W22275   1.338   3.268   4.485  0.0245  0.1483  0.1041
 6807W        W22276  16.807  11.807  11.137 -0.2280  0.1602 -0.0047
 6808W        W22277  17.384  10.312   1.837  0.1609 -0.2353 -0.0539
 6809W        W22278  10.887   7.719   4.741 -0.3467 -0.4082  0.3122
 6810W        W22279  10.086  14.847  14.668  0.0202  0.1565  0.0930
 6811W        W22280  15.284  13.467  11.343  0.2357 -0.2236  0.0989
 6812W        W22281   2.174  12.810   4.462 -0.1372  0.0446 -0.0183
 6813W        W22282  13.330  14.365   1.096  0.1307 -0.1307  0.3514
 6814W        W22283   1.102   1.940   0.584 -0.0633  0.0364  0.0372
 6815W        W22284  10.269  14.075  12.222 -0.2295  0.0999  0.2093
 6816W        W22285   5.882  13.130  12.072 -0.0033 -0.2920 -0.2717
 6817W        W22286   4.123  14.584   0.525  0.0460  0.2914 -0.1733
 6818W        W22287  17.999  16.608   3.280 -0.1830 -0.3436 -0.2047
 6819W        W22288  15.381  14.828   3.952 -0.4016 -0.4182 -0.1965
 6820W        W22289  14.101  16.386  11.947  0.2754  0.1754  0.1581
 6821W        W22290  11.023  18.386   3.500 -0.1886  0.3556  0.4142
 6822W        W22291   6.178  17.084  12.561 -0.0598 -0.1996  0.2036
 6823W        W22292   4.484  11.317  12.711 -0.1229  0.0781  0.1431
 6824W        W22293   8.768   9.668   0.791 -0.0944 -0.0475 -0.3105
 6825W        W22294  16.357  12.727  13.931 -0.0951  0.0304 -0.2440
 6826W        W22295   8.000  11.445  11.591 -0.0908  0.2011 -0.2132
 6827W        W22296   3.086   4.647   2.703  0.0022  0.1824 -0.0456
 6828W        W22297  18.341  15.175   2.080  0.0895 -0.1267  0.3646
 6829W        W22298   3.036   7.626  14.186 -0.0157  0.3743  0.1370
 6830W        W22299   3.197   4.874  12.749 -0.2371 -0.2899  0.0572
 6831W        W22300   7.785  13.198  11.206  0.2129  0.0119  0.4369
 6832W        W22301   5.275  11.782  12.811  0.0808 -0.0540  0.3087
 6833W        W22302   1.962   1.756   3.414 -0.2734  0.0889  0.0648
 6834W        W22303   1.943   2.507   1.169 -0.1564  0.1014 -0.1643
 6835W        W22304  17.985   9.616   1.545 -0.2226 -0.2949  0.4099
 6836W        W22305   8.471  13.659   5.352  0.4325  0.2409 -0.1469
 6837W        W22306   2.170  12.691   3.392 -0.2751  0.1226 -0.3977
 6838W        W22307   4.517   6.452  12.914 -0.1243  0.2351 -0.1165
 6839W        W22308  14.759   4.214  15.206 -0.0676  0.2266  0.0203
 6840W        W22309  13.703   2.291  13.347 -0.2768 -0.2374 -0.2335
 6841W        W22310  13.175   1.557   0.127 -0.0005  0.2759 -0.1533
 6842W        W22311   2.884  10.922  13.706  0.1179  0.0698  0.0984
 6843W        W22312   0.962  12.778   1.644  0.2353 -0.0958 -0.1039
 6844W        W22313   6.603   1.271   4.607  0.1099  0.0232  0.1321
 6845W        W22314  14.442  14.626   3.923  0.2894  0.0199 -0.0798
 6846W        W22315  12.246  14.667   5.823 -0.2052 -0.3753  0.1392
 6847W        W22316  13.437   2.730  11.869 -0.1708  0.0650  0.0265
 6848W        W22317   9.772  14.839   0.243  0.3182  0.2056 -0.1595
 6849W        W22318  13.565  13.340  11.064 -0.2805 -0.0178  0.0994
 6850W        W22319   7.780  14.550  10.958  0.1349 -0.3150  0.0263
 6851W        W22320  14.892  11.130   1.307  0.0824 -0.2417  0.2726
 6852W        W22321   7.373   1.803  12.873 -0.1588  0.3148  0.0902
 6853W        W22322   5.362   3.881  13.579  0.1475  0.1010 -0.1074
 6854W        W22323   8.607  12.615  14.730 -0.0007 -0.0483  0.3757
 6855W        W22324   8.409   2.433  14.406  0.2963 -0.3280  0.1617
 6856W        W22325  14.411   7.894   4.017 -0.0405 -0.0506  0.2316
 6857W        W22326   4.327   0.619   3.569  0.0453  0.1342  0.1222
 6858W        W22327   4.499   2.684   5.336 -0.0472  0.0366  0.1735
 6859W        W22328   2.768  12.946  12.353 -0.1425  0.0518 -0.1260
 6860W        W22329   6.120  11.855  15.004 -0.1246  0.3603 -0.1687
 6861W        W22330   5.040  11.995  15.321 -0.1183 -0.3531 -0.0104
 6862W        W22331  16.439   8.215   0.854  0.2510  0.0957 -0.0275
 6863W        W22332  16.284  17.025   3.848 -0.3526 -0.0477  0.3394
 6864W        W22333   2.494   2.861   5.131 -0.2288 -0.0170  0.1325
 6865W        W22334   9.274   0.331   9.924  0.4789 -0.0591 -0.0300
 6866W        W22335  16.581   5.838   0.360 -0.0991  0.3423  0.0593
 6867W        W22336   1.550   5.168   1.250 -0.1742  0.0926 -0.4205
 6868W        W22337  11.510   1.464  11.788  0.3230  0.1080  0.2628
 6869W        W22338   3.425  13.509   3.611  0.2727 -0.2897  0.0984
 6870W        W22339   0.060   5.608   4.446  0.1129  0.3250 -0.0434
 6871W        W22340   4.447  15.706  13.449 -0.0526  0.0482  0.0051
 6872W        W22341   2.681  11.625  11.381 -0.2561 -0.0079 -0.2946
 6873W        W22342  13.049   8.808  13.731 -0.3002  0.1535  0.3985
 6874W        W22343   9.336   2.985  12.099 -0.1931 -0.3233  0.0467
 6875W        W22344   0.125  11.233  11.197 -0.0079 -0.2791  0.0585
 6876W        W22345   0.039   8.595   2.373 -0.1001 -0.1126 -0.0879
 6877W        W22346  10.640   0.652   0.130 -0.2617 -0.1075 -0.0761
 6878W        W22347   2.522   3.209  11.355 -0.1960 -0.0626 -0.1036
 6879W        W22348  15.813   3.344  12.184 -0.1088 -0.1031 -0.0291
 6880W        W22349   4.043  15.396  15.265  0.1973  0.2165 -0.0558
 6881W        W22350  17.421  14.158  11.137 -0.3530  0.1496 -0.0494
 6882W        W22351  13.668  16.343  11.728  0.2827  0.1753 -0.1377
 6883W        W22352   4.248   0.637  14.810 -0.0271  0.3898  0.3251
 6884W        W22353   1.349   9.584   3.940 -0.0711 -0.0205  0.1182
 6885W        W22354  14.173  16.441  13.175  0.1898  0.0013 -0.1299
 6886W        W22355   7.351   2.090  11.480 -0.3981  0.1574 -0.1707
 6887W        W22356   8.539   0.561  11.836  0.2022 -0.3927 -0.0474
 6888W        W22357   8.349   2.894  14.720 -0.2568 -0.1716 -0.1752
 6889W        W22358  13.353  15.880  14.069  0.2352  0.0739  0.2915
 6890W        W22359   7.737   4.926  14.674  0.1151 -0.3292  0.1834
 6891W        W22360  17.731   1.857   2.993 -0.1380 -0.2420 -0.0604
 6892W        W22361   7.265   2.625   5.735 -0.2712  0.0411 -0.0250
 6893W        W22362   0.144  17.677  11.536  0.0958 -0.0712 -0.1527
 6894W        W22363   2.992  12.417  12.047 -0.0269 -0.0459  0.1598
 6895W        W22364  18.404   2.987  13.599  0.0751  0.3694 -0.1359
 6896W        W22365   7.922   5.230  13.615  0.1278 -0.1982 -0.0323
 6897W        W22366  10.703  13.418   0.122 -0.3204 -0.3171  0.1787
 6898W        W22367   9.480  18.189  13.546 -0.3598  0.2237  0.2082
 6899W        W22368   3.147  13.535   5.010 -0.0689  0.3782 -0.2636
 6900W        W22369   9.197  13.495   3.167 -0.1261  0.0651  0.1019
 6901W        W22370   9.702  11.601   1.106  0.1933 -0.0933 -0.0929
 6902W        W22371  17.541  18.046   0.799  0.2299 -0.2461  0.1290
 6903W        W22372  17.293  17.205   4.592 -0.0615  0.1345 -0.0673
 6904W        W22373   0.708   6.692  10.960  0.2064 -0.2217  0.1189
 6905W        W22374   2.383  14.701   2.023  0.0460 -0.0692  0.0936
 6906W        W22375   1.898   8.459   3.285 -0.1805  0.0561  0.0849
 6907W        W22376   8.414   5.335  12.399 -0.0362  0.1287 -0.1060
 6908W        W22377  13.960   4.161  12.871  0.0171 -0.0199  0.2070
 6909W        W22378   9.875   4.591  11.467  0.0120  0.0284  0.0861
 6910W        W22379  10.839   7.799  14.976  0.1045 -0.0104  0.1217
 6911W        W22380   8.554  14.540  12.490 -0.2407 -0.0405 -0.1893
 6912W        W22381   7.488  16.930  10.464  0.2457  0.0460 -0.0347
 6913W        W22382   9.627  11.909  14.639  0.2062  0.1264 -0.0464
 6914W        W22383  15.142  15.196   0.120 -0.0775  0.0392  0.1103
 6915W        W22384   1.259  18.435   4.833  0.1077 -0.2369 -0.2255
 6916W        W22385   0.443   1.956   1.114  0.2821 -0.0182 -0.2412
 6917W        W22386   4.352  17.447   2.370 -0.0436 -0.1874 -0.3487
 6918W        W22387  15.217   1.432   1.522  0.2341 -0.0700  0.1882
 6919W        W22388   0.497  12.059  14.196 -0.4475  0.1135 -0.4512
 6920W        W22389   5.294  17.459  14.299  0.0541 -0.1498 -0.1418
 6921W        W22390   8.039   7.095   0.389 -0.2362  0.2509  0.0063
 6922W        W22391  13.803   5.518   3.109  0.1294 -0.0552 -0.0460
 6923W        W22392   6.631  15.796   2.401  0.1332  0.1574 -0.1829
 6924W        W22393  14.283   1.866  13.063  0.0527 -0.2065  0.2597
 6925W        W22394  13.770   3.150   4.237 -0.0111  0.1400 -0.0245
 6926W        W22395   9.706  14.833   3.546  0.2317  0.0250 -0.1500
 6927W        W22396  15.242   9.001  12.293 -0.0822 -0.1913 -0.0005
 6928W        W22397   4.854  15.780   3.586  0.0143 -0.2566  0.2018
 6929W        W22398  11.057  18.111  13.155 -0.3611 -0.1858 -0.0651
 6930W        W22399  17.907   1.401   6.079  0.0586 -0.0637 -0.2224
 6931W        W22400  14.553  14.191  13.963 -0.0790 -0.3098  0.3694
 6932W        W22401   9.745   5.228  11.629 -0.1204  0.1298 -0.0725
 6933W        W22402   6.389   5.831   4.229  0.3843  0.1226  0.0944
 6934W        W22403   9.099   4.368   2.506  0.1791 -0.1115  0.1306
 6935W        W22404  16.793  18.437   1.942 -0.0467 -0.2334 -0.2605
 6936W        W22405   1.550  17.738   0.607 -0.0145 -0.1258 -0.3047
 6937W        W22406   6.202  12.266   3.281 -0.1238  0.0125 -0.1309
 6938W        W22407  13.523   0.743   2.292  0.2869  0.0722 -0.2651
 6939W        W22408   9.322  15.675   3.748 -0.0028  0.0615  0.0416
 6940W        W22409  17.712   3.027  14.539  0.1875  0.3045 -0.2291
 6941W        W22410  15.228  14.811   4.908  0.0743 -0.0721  0.0597
 6942W        W22411   5.867   0.501   3.210  0.1600  0.2034  0.5453
 6943W        W22412  10.899   4.184   3.106  0.0565  0.1332  0.1344
 6944W        W22413   3.339   0.820   0.944 -0.2351 -0.0529 -0.1093
 6945W        W22414   0.661  17.195  15.641  0.2563  0.2370 -0.3325
 6946W        W22415   7.376   1.043   0.055  0.4367  0.0635 -0.0849
 6947W        W22416   7.370   3.078   4.387 -0.1308 -0.0714 -0.0737
 6948W        W22417  16.800  10.503  13.088 -0.1066 -0.0714 -0.0635
 6949W        W22418   9.002  13.912  11.697 -0.1813  0.2261  0.2625
 6950W        W22419   6.238  18.101   4.774 -0.2311 -0.1520 -0.2038
 6951W        W22420  11.587   9.913   2.194 -0.4252 -0.1079  0.1234
 6952W        W22421  11.539   3.880   4.803  0.0107 -0.1214 -0.1905
 6953W        W22422   3.415  16.266  12.095 -0.1836 -0.0307 -0.1327
 6954W        W22423   4.372   6.011   6.066  0.0339 -0.1252 -0.0342
 6955W        W22424  12.130  10.958  16.003  0.0470  0.0511  0.0897
 6956W        W22425  11.546  10.971  11.427 -0.1592  0.0644  0.0019
 6957W        W22426   1.540   9.731  14.317 -0.0670 -0.3002  0.2147
 6958W        W22427   8.007   5.712  13.468 -0.0482  0.2959 -0.1753
 6959W        W22428  12.815   8.306   4.298 -0.2091  0.0634 -0.0382
 6960W        W22429  10.317  12.944  14.817  0.0417 -0.0927  0.3227
 6961W        W22430   8.883   1.937   5.940  0.0087 -0.3351  0.0949
 6962W        W22431   1.819  14.409   1.235 -0.0012 -0.1156 -0.1071
 6963W        W22432   2.564  17.800   1.791  0.1244 -0.2394  0.3068
 6964W        W22433   1.809   8.521   0.743  0.1448 -0.2449  0.0850
 6965W        W22434   2.323   5.051   0.892 -0.0849  0.0822  0.1400
 6966W        W22435  11.312  14.488   0.659  0.1481 -0.0470  0.2514
 6967W        W22436   0.754   9.578   4.620 -0.1681  0.1862  0.2800
 6968W        W22437   3.279  11.077  11.134  0.0723  0.2314  0.0453
 6969W        W22438   6.966   3.769   0.993 -0.0255 -0.3069 -0.3376
 6970W        W22439  14.396   2.188  13.954 -0.1313  0.0481  0.1886
 6971W        W22440  12.892  13.691   3.720 -0.0458 -0.1517  0.0671
 6972W        W22441  15.559   7.130  15.914  0.0506  0.2031 -0.1028
 6973W        W22442  16.851   5.881   1.151 -0.0931 -0.1459 -0.1848
 6974W        W22443   1.779  10.151  13.353  0.0539  0.2987  0.0815
 6975W        W22444  18.306   6.244   4.897  0.1171  0.1957  0.3770
 6976W        W22445  11.220  17.466   3.534 -0.1215 -0.1104 -0.0904
 6977W        W22446   8.528  14.171   5.498  0.1642 -0.0952  0.0268
 6978W        W22447  10.141  17.541   4.564  0.1330 -0.1348 -0.1811
 6979W        W22448  10.339  13.230  14.357 -0.1657  0.0233  0.4740
 6980W        W22449   5.486   4.865  12.924  0.1332 -0.0816 -0.0048
 6981W        W22450   1.539   6.891   5.075 -0.0870 -0.1179  0.1374
 6982W        W22451  11.993   4.853   2.839  0.0951 -0.0101  0.0067
 6983W        W22452   3.592  12.431   5.335 -0.2326 -0.3784 -0.2172
 6984W        W22453   7.157   1.959   1.717  0.0356  0.1420  0.1353
 6985W        W22454  18.019   7.971  14.743  0.2045  0.2099  0.0836
 6986W        W22455  17.240   3.048  11.209  0.3620 -0.1525  0.0511
 6987W        W22456   2.579   4.687  11.808 -0.3703 -0.0791  0.1689
 6988W        W22457   1.794   1.604  11.888  0.0051 -0.4161 -0.1214
 6989W        W22458   2.964   4.170   1.530  0.1433  0.0470 -0.1270
 6990W        W22459  11.288   3.771  15.430 -0.1591 -0.1773  0.2888
 6991W        W22460  10.651   5.550   1.021 -0.1991 -0.1589  0.0105
 6992W        W22461  16.840   9.813  13.707  0.1891 -0.2122  0.2407
 6993W        W22462  18.097  18.322   4.678  0.0181  0.1795  0.0772
 6994W        W22463  15.788  16.431   1.994  0.0735 -0.1934 -0.4161
 6995W        W22464   2.626  15.160   2.070 -0.0988  0.0564  0.0840
 6996W        W22465  10.731  13.585  15.041 -0.1730  0.0278  0.2198
 6997W        W22466  17.809  15.071  10.974 -0.1006 -0.0002 -0.3347
 6998W        W22467  13.727   3.593   4.402  0.4668  0.0610 -0.3534
 6999W        W22468   0.976   2.785   3.061  0.0798  0.0392  0.0288
 7000W        W22469   7.388  10.199   1.966 -0.1044 -0.2237  0.0201
 7001W        W22470  12.260  17.714   2.114 -0.0071 -0.1049 -0.0670
 7002W        W22471   1.875   9.200  12.455  0.0622 -0.2268  0.4880
 7003W        W22472  12.604   9.532  14.859 -0.0970  0.2650  0.0476
 7004W        W22473  11.995   5.248   3.190  0.1985  0.0165 -0.1085
 7005W        W22474   9.510  11.481  13.850  0.0735 -0.2170  0.1181
 7006W        W22475   1.344   0.535   4.119 -0.1023  0.5029  0.1433
 7007W        W22476   9.790  17.196  10.891  0.2168  0.1561 -0.0636
 7008W        W22477  11.495   4.968  12.395 -0.4087 -0.0830 -0.2310
 7009W        W22478   3.320   7.664   0.197  0.1604  0.1680  0.2995
 7010W        W22479   9.611   7.395   2.160  0.0542  0.3915  0.0153
 7011W        W22480  14.444   2.611   2.792  0.0297  0.2110 -0.0815
 7012W        W22481   6.619   8.777   1.921  0.3403 -0.2266  0.4184
 7013W        W22482  14.420  11.303   0.570 -0.1345 -0.0454  0.2525
 7014W        W22483  16.644  10.520   4.209  0.0968 -0.1828  0.0749
 7015W        W22484  11.593   4.362   5.586  0.0630 -0.1581 -0.0604
 7016W        W22485   6.236   9.901   0.480  0.1566 -0.1833 -0.0817
 7017W        W22486   2.495  10.272  11.611  0.1144 -0.0896  0.1386
 7018W        W22487   0.824  18.140   1.365  0.6026  0.2462  0.0197
 7019W        W22488   1.783  15.301  11.697 -0.0615 -0.0839  0.0290
 7020W        W22489   5.703  16.559  12.995  0.3232  0.1300  0.0196
 7021W        W22490   1.746   3.490  14.705  0.1640  0.0644 -0.3694
 7022W        W22491  14.592   7.755   5.107  0.0457  0.1600 -0.2635
 7023W        W22492   2.418   6.322  10.265  0.3152 -0.2591 -0.0271
 7024W        W22493   4.085  14.504   3.321 -0.3016  0.2179  0.0600
 7025W        W22494  18.158  16.805   1.623  0.0151 -0.0851 -0.1613
 7026W        W22495   8.204   3.808  11.942  0.1418 -0.3987  0.0343
 7027W        W22496  11.735   6.700  12.864 -0.1108  0.0737  0.0525
 7028W        W22497   1.520   5.879   3.167  0.0545  0.0059  0.1618
 7029W        W22498   8.046  17.436  12.136 -0.4566  0.3192 -0.0007
 7030W        W22499   9.584   2.703   1.510 -0.1922  0.1736 -0.0617
 7031W        W22500  10.424  14.365   5.694  0.1407 -0.1313  0.0699
 7032W        W22501  14.404   0.379   0.999 -0.1761 -0.0944  0.0987
 7033W        W22502   3.250  16.603   2.076  0.2375  0.0444 -0.1362
 7034W        W22503   6.263  15.422  14.480  0.2143  0.0931  0.1133
 7035W        W22504   4.433  16.588   1.447  0.2418 -0.2375 -0.1208
 7036W        W22505   3.234   9.256   5.427  0.1980 -0.1003 -0.1530
 7037W        W22506  12.131  12.748  13.193  0.1152 -0.0987  0.1487
 7038W        W22507  15.023  14.268  13.101  0.1956  0.0602  0.0582
 7039W        W22508  11.320   5.535   2.706 -0.1378  0.1820 -0.0410
 7040W        W22509   5.182  14.493   4.051 -0.1668  0.0841 -0.2147
 7041W        W22510   7.052   0.538   1.966 -0.2244 -0.1657 -0.2096
 7042W        W22511  14.014  14.722   0.384  0.0975  0.0758 -0.1293
 7043W        W22512   2.817  14.693  11.962 -0.0977  0.1927  0.4558
 7044W        W22513   7.852   5.392   2.997 -0.2037  0.2532 -0.1704
 7045W        W22514   4.216   9.646  11.428 -0.2606 -0.0359 -0.0257
 7046W        W22515  12.618  12.831   2.171  0.0283  0.3311 -0.2069
 7047W        W22516  14.678  10.953   0.190  0.2826  0.0074 -0.0825
 7048W        W22517  15.816  16.262   3.389  0.1462  0.0053  0.0648
 7049W        W22518  16.261  13.724  13.440  0.1630 -0.3327 -0.3152
 7050W        W22519  10.705   1.244   4.978  0.5705 -0.0417  0.3039
 7051W        W22520  11.239  13.985   1.457  0.1632 -0.1000  0.0567
 7052W        W22521  11.239   6.169  12.121 -0.4568 -0.1422  0.1605
 7053W        W22522  16.403  10.699  13.589 -0.0668  0.1270 -0.1167
 7054W        W22523  11.021  15.492  13.479  0.1178  0.4272 -0.1960
 7055W        W22524   3.227   9.072  14.899 -0.0626 -0.3010 -0.0822
 7056W        W22525  15.885  12.162  13.445 -0.1834 -0.0806 -0.3512
 7057W        W22526   2.934   6.280  13.289 -0.2589  0.0556  0.0843
 7058W        W22527  11.725   3.853  12.138  0.0128 -0.0013 -0.1695
 7059W        W22528  16.109   5.930   4.402 -0.0757 -0.0554 -0.3470
 7060W        W22529  15.513  14.733   3.429  0.0710  0.3089  0.4021
 7061W        W22530  14.943   6.815   4.952  0.3196  0.1095  0.0072
 7062W        W22531   3.982  10.631   2.742  0.1434  0.0307  0.0793
 7063W        W22532  14.884  12.736  15.440 -0.0400  0.1357  0.1032
 7064W        W22533   4.715  16.862  15.580  0.2033  0.3673 -0.1179
 7065W        W22534   2.091  17.261  12.324  0.1908 -0.0420 -0.2134
 7066W        W22535  14.353   4.458  14.994 -0.2179  0.0590 -0.0114
 7067W        W22536   2.755  10.683  15.081 -0.1397  0.0284 -0.0786
 7068W        W22537   8.931  18.157  14.157 -0.0571  0.1247  0.1708
 7069W        W22538   9.484   7.443   3.218  0.0377  0.1220  0.2001
 7070W        W22539   7.054  14.659  15.110  0.0797 -0.2789 -0.0542
 7071W        W22540  11.795  11.277   2.375 -0.0797 -0.1457  0.1959
 7072W        W22541  17.272  14.946   2.638 -0.3581  0.2105  0.4357
 7073W        W22542   5.555  15.111   3.639  0.1048  0.2339 -0.0595
 7074W        W22543  12.521  13.185  15.310 -0.1384  0.0777 -0.1784
 7075W        W22544   1.057   4.300  11.839  0.2741  0.1033  0.0280
 7076W        W22545   3.075   0.544   1.985  0.0923 -0.0588  0.1630
 7077W        W22546  14.584   7.084   1.141  0.1579 -0.0045 -0.1741
 7078W        W22547   1.392   9.261   5.260 -0.0595  0.2878 -0.3716
 7079W        W22548   3.512   1.005   5.900 -0.2257  0.0657 -0.1080
 7080W        W22549   5.893  12.829  14.189  0.0328 -0.3175 -0.1704
 7081W        W22550  10.019   1.281  15.166 -0.1917 -0.0100  0.2942
 7082W        W22551   7.799   3.745   5.408 -0.1569 -0.2078 -0.1398
 7083W        W22552  17.861   4.791   5.638 -0.0412  0.1656  0.1790
 7084W        W22553  12.029   4.316  13.783 -0.0764 -0.0262  0.1276
 7085W        W22554   5.048  10.266  11.758 -0.2748 -0.0098 -0.3380
 7086W        W22555   1.064  11.614   2.028 -0.1081  0.4740  0.1409
 7087W        W22556   0.568   4.756  12.193  0.1647  0.0419 -0.1605
 7088W        W22557   6.211   1.577   1.881  0.1951 -0.3228 -0.2797
 7089W        W22558  10.126   8.949  14.863 -0.1153  0.0941  0.1579
 7090W        W22559   6.164  12.950   4.006 -0.1348  0.2246  0.1052
 7091W        W22560   6.526   1.657  15.997  0.0913 -0.5618  0.0932
 7092W        W22561   5.983   3.241  11.440  0.1156  0.0315  0.0756
 7093W        W22562   3.598   9.474   0.701  0.2441  0.0615  0.0119
 7094W        W22563   4.230   6.804   0.421 -0.0728 -0.4421 -0.2874
 7095W        W22564   5.537   9.544  15.561  0.0310 -0.1410  0.1878
 7096W        W22565  18.070   3.788  12.531  0.2378  0.3516  0.0771
 7097W        W22566  14.701   4.853   3.771  0.2995  0.0495 -0.0998
 7098W        W22567  12.960  16.634   3.014 -0.4523 -0.3818 -0.0412
 7099W        W22568  15.360   0.111  14.240  0.0865  0.1403  0.0379
 7100W        W22569   4.098   2.309   1.282 -0.4088 -0.0874  0.1524
 7101W        W22570  15.292   1.702  13.008  0.1452  0.0347  0.0196
 7102W        W22571   0.209   9.081   4.413  0.2882 -0.1909  0.1233
 7103W        W22572  10.792   6.093   1.769 -0.0763 -0.4028 -0.2289
 7104W        W22573  10.559   1.335   3.429  0.2137  0.5220 -0.0451
 7105W        W22574   0.517  11.021   3.090 -0.1028 -0.3290 -0.1427
 7106W        W22575   4.993   2.426   1.536 -0.2498  0.1339  0.2085
 7107W        W22576  16.266  15.688  11.530  0.0511  0.1305  0.2993
 7108W        W22577   7.092  15.175   0.484  0.3450 -0.3250 -0.4357
 7109W        W22578  16.875  15.393   5.077 -0.1456 -0.0029 -0.3900
 7110W        W22579   4.747  10.122   2.347  0.1079  0.1966 -0.0427
 7111W        W22580   8.068   3.306  11.522 -0.0193  0.3066  0.1309
 7112W        W22581  13.261   2.897   0.339  0.0420  0.0654  0.1372
 7113W        W22582  17.353   9.800   1.946 -0.4060  0.1250  0.1873
 7114W        W22583  14.202  18.434  12.935 -0.2916 -0.2447 -0.1136
 7115W        W22584   7.533   3.794   4.907  0.3158  0.0446 -0.1482
 7116W        W22585   6.165  17.309   2.690 -0.2547  0.0796  0.0300
 7117W        W22586   8.852  17.355  10.809 -0.1221 -0.0369 -0.1388
 7118W        W22587  18.001  14.794  12.590  0.1597 -0.2090 -0.1176
 7119W        W22588  11.424  12.594   0.945 -0.0609  0.2591 -0.1475
 7120W        W22589  16.928  10.918   0.239 -0.2379 -0.1643 -0.2501
 7121W        W22590   9.836   7.949   3.948  0.1137  0.0270  0.0248
 7122W        W22591  15.749  13.820  12.265  0.1920  0.1307  0.2243
 7123W        W22592  16.395   1.901  13.051 -0.2845 -0.1164 -0.1004
 7124W        W22593   3.562   1.147   1.203  0.1826  0.2466 -0.1122
 7125W        W22594   4.386   1.724  12.576 -0.2583 -0.0170 -0.1242
 7126W        W22595   3.777   7.265   1.780  0.3745 -0.1391  0.2646
 7127W        W22596   7.398   2.701  10.861 -0.0924  0.2101 -0.1761
 7128W        W22597   2.218   3.645   4.841  0.0720  0.3294  0.0243
 7129W        W22598  18.399  16.124  10.639  0.1607  0.2374  0.2731
 7130W        W22599  15.539   7.578  13.121  0.1794 -0.3048  0.1576
 7131W        W22600  11.921  10.777   2.304  0.1523  0.2247  0.0570
 7132W        W22601  10.278  16.053   0.719  0.0611 -0.3149 -0.2529
 7133W        W22602  18.140  14.917  11.529  0.0309 -0.0899 -0.2317
 7134W        W22603   8.382   7.677   5.047  0.2581 -0.2166  0.3020
 7135W        W22604   2.315   4.512  15.169 -0.0366  0.2417 -0.0427
 7136W        W22605  16.849   3.037   3.597 -0.4071 -0.0081  0.1689
 7137W        W22606   8.906  15.604   4.496 -0.2082  0.0256  0.1138
 7138W        W22607  13.199   4.564   2.576 -0.0141  0.1320  0.2818
 7139W        W22608  15.444  16.028  12.752  0.2275 -0.0149  0.1532
 7140W        W22609  10.411   5.802  14.122 -0.1489 -0.2018 -0.2352
 7141W        W22610  14.328   8.646  14.330  0.0863  0.1537  0.1436
 7142W        W22611  18.295   4.762  10.738  0.0220 -0.0117  0.0519
 7143W        W22612  18.155  12.887  14.172  0.1711 -0.0749  0.1186
 7144W        W22613   8.732  12.188  10.332  0.1700 -0.1294  0.1973
 7145W        W22614   7.738   3.576   1.299  0.0059  0.1961  0.2430
 7146W        W22615  11.304  11.054  16.004  0.1216 -0.1194 -0.1380
 7147W        W22616   5.362  17.095   3.156  0.0411  0.0582 -0.1525
 7148W        W22617   3.159   3.338  12.067 -0.2352  0.0703  0.1082
 7149W        W22618   1.491   4.885  13.619  0.3597  0.3666 -0.3343
 7150W        W22619   5.210   0.226   4.028  0.0945  0.0169  0.2809
 7151W        W22620  14.289   3.616   4.360  0.2470  0.1794  0.0731
 7152W        W22621   8.199   0.178  12.928 -0.0843 -0.1374  0.0491
 7153W        W22622   3.194  17.253   5.570 -0.1190 -0.1273  0.0203
 7154W        W22623  17.057   5.811  13.673 -0.0015 -0.0401  0.0044
 7155W        W22624   0.616   0.415  13.368 -0.1203 -0.0587 -0.0650
 7156W        W22625   7.972   4.772  13.476 -0.0190  0.2382 -0.1895
 7157W        W22626  10.659   8.961   3.340 -0.0508 -0.0115 -0.1114
 7158W        W22627   2.473   3.695  11.864  0.1131  0.0539 -0.0951
 7159W        W22628   1.450   4.211  12.394 -0.0475 -0.0573 -0.0548
 7160W        W22629  17.048   5.576  14.709 -0.0888  0.0285 -0.1805
 7161W        W22630   2.797   5.105  12.128  0.0496  0.0927  0.0607
 7162W        W22631  14.408  12.581  12.025 -0.0016  0.1213  0.1287
 7163W        W22632   1.494   8.372   1.180  0.1158 -0.3248  0.2305
 7164W        W22633   8.736  18.305  11.568 -0.2418  0.0579  0.1812
 7165W        W22634  16.691   6.963  15.029 -0.0862  0.0836  0.3693
 7166W        W22635  18.134  18.090   1.065  0.1206  0.2934 -0.2419
 7167W        W22636   1.035  14.049  14.332  0.2772  0.1605 -0.3607
 7168W        W22637   7.375   9.188   1.152 -0.0947 -0.0357  0.0765
 7169W        W22638   2.387   1.735   2.816  0.1088  0.0527 -0.1197
 7170W        W22639  13.071   9.862  14.199  0.0236 -0.1078  0.2812
 7171W        W22640   5.795  13.142   0.471 -0.1351 -0.2883 -0.3364
 7172W        W22641  17.132   2.587  10.536 -0.0132 -0.2648  0.2831
 7173W        W22642  13.164   1.990   1.340  0.0484  0.0367  0.1968
 7174W        W22643   2.734  17.121  10.497 -0.0012  0.2341  0.0519
 7175W        W22644  13.655   3.130   3.557 -0.2223  0.0626 -0.0480
 7176W        W22645  15.803   6.959   5.042  0.3192  0.2159 -0.3032
 7177W        W22646  11.514   3.538  14.354 -0.2324 -0.2312  0.2183
 7178W        W22647  13.396  17.606  14.078 -0.0767 -0.1078 -0.0344
 7179W        W22648   3.296  10.375  13.165  0.0752 -0.0577 -0.0528
 7180W        W22649   4.514   2.557  14.125 -0.0092 -0.1955 -0.3040
 7181W        W22650   0.815   1.768  14.625 -0.3395 -0.1992 -0.0645
 7182W        W22651   2.615   0.086  15.621  0.2485  0.1899 -0.0572
 7183W        W22652  16.491   0.213  11.686  0.2358  0.0470 -0.1356
 7184W        W22653  10.956   2.209  15.197 -0.1503 -0.1569  0.2688
 7185W        W22654  17.321  16.788   4.985 -0.2882  0.0901  0.0530
 7186W        W22655  12.457  10.069   2.102  0.2498  0.0592  0.3910
 7187W        W22656   5.702  12.025  15.254 -0.3068 -0.0191 -0.2109
 7188W        W22657  12.353   2.869   5.274  0.0684 -0.2419 -0.2475
 7189W        W22658  17.852  12.507  15.842  0.2286 -0.0318  0.0956
 7190W        W22659  11.949   9.892   0.059  0.1033  0.1383 -0.0730
 7191W        W22660  14.968   5.329  14.383 -0.2029 -0.0733  0.1462
 7192W        W22661  16.493   0.392   5.061  0.0168 -0.0098 -0.1459
 7193W        W22662  18.226   6.246  13.463 -0.0971  0.1168 -0.1433
 7194W        W22663   3.027   4.617   2.198  0.0087 -0.3565 -0.0774
 7195W        W22664   1.581  12.289  12.369  0.2962  0.0428 -0.0381
 7196W        W22665  16.820  14.052  10.386 -0.1021  0.0381 -0.2830
 7197W        W22666   6.707  10.075  14.176 -0.1699  0.1391  0.0676
 7198W        W22667   4.082  11.541  13.994 -0.0920 -0.4253 -0.2030
 7199W        W22668   4.829  17.145   3.624  0.0486  0.0322 -0.2596
 7200W        W22669   7.498   0.986   0.636  0.2008  0.1368 -0.0366
 7201W        W22670   6.579  14.899  15.198 -0.1606 -0.2257 -0.2535
 7202W        W22671   6.995   6.861   3.675  0.0893  0.1526 -0.0401
 7203W        W22672   6.781   5.215  12.175 -0.2443 -0.2230 -0.2358
 7204W        W22673  17.369   1.998   1.753 -0.0791  0.0338 -0.1844
 7205W        W22674   9.908   0.520  11.368 -0.0894 -0.0874 -0.0871
 7206W        W22675  17.742  15.845   2.292 -0.0659 -0.1799  0.0731
 7207W        W22676   4.825   2.375   3.494  0.1937  0.2281 -0.1558
 7208W        W22677  14.310  16.602  12.338  0.1411  0.0599  0.1955
 7209W        W22678   0.508  14.024  15.456 -0.0145  0.0261 -0.0479
 7210W        W22679   8.757  14.947   4.929 -0.0799 -0.1970  0.1295
 7211W        W22680   9.850  15.384  16.028 -0.0019  0.0703  0.1409
 7212W        W22681   6.141   9.007   4.068 -0.2131  0.0392 -0.0678
 7213W        W22682  16.448   7.768  15.603  0.0357  0.1856 -0.0524
 7214W        W22683   2.648   9.274  14.934  0.0315 -0.2399  0.1484
 7215W        W22684   7.544  13.950   2.453  0.1550  0.2814  0.1217
 7216W        W22685   5.393  13.378  15.635  0.0363 -0.1818 -0.2861
 7217W        W22686  14.244  18.244   2.930  0.2409  0.0635 -0.0721
 7218W        W22687  12.675   7.058   2.272  0.1761  0.4512 -0.0237
 7219W        W22688  10.755  15.264   0.108 -0.1257 -0.1123 -0.0926
 7220W        W22689  17.127  18.122  12.732 -0.0368  0.0714  0.0093
 7221W        W22690   8.046   5.071  15.223  0.0407 -0.1368  0.0497
 7222W        W22691  10.751   3.194  11.910  0.0851 -0.0009 -0.0341
 7223W        W22692  18.406   3.524  11.918 -0.0020  0.1386  0.2124
 7224W        W22693  13.867   3.230  13.371  0.1987  0.0021 -0.0590
 7225W        W22694   4.978   2.254   3.970 -0.1124  0.0358  0.1190
 7226W        W22695  18.224   6.061   1.135  0.0405 -0.2823 -0.0181
 7227W        W22696   9.940  13.462   3.000 -0.2214 -0.0508  0.0632
 7228W        W22697  15.414  18.013  15.060  0.0387  0.0353 -0.1134
 7229W        W22698  16.890  17.690   5.439  0.1909  0.0566 -0.0447
 7230W        W22699  10.268   9.824   3.813  0.0496  0.2576 -0.0023
 7231W        W22700   9.371  10.832   1.627  0.0285 -0.2543 -0.0766
 7232W        W22701  18.049   2.489  13.433  0.3181 -0.2486  0.2125
 7233W        W22702   4.631  13.256   3.010 -0.2551  0.1681  0.0415
 7234W        W22703  15.632   4.313   0.403 -0.0649 -0.1674 -0.1238
 7235W        W22704   0.046   3.059  11.770 -0.1645 -0.0206  0.0051
 7236W        W22705   4.083  16.215   2.178  0.1379 -0.4073 -0.0231
 7237W        W22706   1.514   5.242  14.749 -0.1286 -0.5689 -0.1538
 7238W        W22707   3.238  15.531   4.943 -0.1950 -0.0621 -0.0022
 7239W        W22708   3.626  10.015  13.290  0.0438 -0.2182 -0.2089
 7240W        W22709   8.878  15.983   2.694 -0.1868  0.2405  0.2865
 7241W        W22710  15.548  11.513   4.391 -0.0787  0.0793 -0.1365
 7242W        W22711   8.273  10.974  10.736  0.0001  0.0856  0.3442
 7243W        W22712   9.138   6.437  12.188  0.0185  0.1491  0.2795
 7244W        W22713   9.051   5.293  14.934  0.0759 -0.4872  0.4179
 7245W        W22714   5.722   8.134   2.606 -0.0042 -0.1802 -0.1706
 7246W        W22715  16.987  12.394   3.492  0.1050 -0.2073  0.0965
 7247W        W22716  17.003   7.004  15.438 -0.0447 -0.0150 -0.0775
 7248W        W22717  11.549  14.849  11.677 -0.1569 -0.2560 -0.0498
 7249W        W22718   2.096   8.642  13.189  0.2913 -0.2342  0.0630
 7250W        W22719   7.004   2.906  15.589 -0.0526  0.2586 -0.0313
 7251W        W22720  11.771  17.620   2.822 -0.1061  0.0330 -0.2016
 7252W        W22721  17.909  16.159  12.526 -0.0237 -0.0486 -0.0511
 7253W        W22722   9.673   0.664  12.792  0.1805  0.1261  0.1951
 7254W        W22723   0.222   1.591   4.842 -0.0111  0.0655  0.1243
 7255W        W22724   6.388   3.577   5.646  0.0097  0.3206 -0.0125
 7256W        W22725  12.748  13.182  11.646 -0.3178  0.1632 -0.1553
 7257W        W22726   5.156   9.770   3.861  0.0627  0.0916  0.3978
 7258W        W22727   0.375   5.450  14.369  0.0278 -0.0319  0.1364
 7259W        W22728  18.427  15.202  15.258 -0.1084 -0.1073  0.1967
 7260W        W22729   0.682   8.581  10.816  0.0849  0.1071  0.3643
 7261W        W22730   2.244  18.042   4.811  0.1381 -0.1947 -0.3586
 7262W        W22731   3.195  18.305  11.189  0.1377 -0.1987  0.0803
 7263W        W22732   0.235  17.975   1.159 -0.0818 -0.0183  0.0291
 7264W        W22733  13.865   5.231   6.101  0.2089 -0.0682 -0.1764
 7265W        W22734  15.196   0.110   3.274  0.0175 -0.0898  0.1182
 7266W        W22735  16.560   5.994  11.454  0.0434 -0.0336  0.1145
 7267W        W22736   2.618  11.329   3.322 -0.0426  0.1665 -0.2576
 7268W        W22737   7.250   5.074  15.787 -0.1469 -0.0697 -0.3374
 7269W        W22738   7.400  10.466   3.493 -0.2748 -0.0605 -0.2742
 7270W        W22739  14.297   9.755   4.827  0.1949  0.0776  0.3569
 7271W        W22740   2.709  10.009  15.686 -0.3100  0.0914  0.0800
 7272W        W22741  10.382   5.397  13.594  0.2187  0.0926 -0.0264
 7273W        W22742  17.773   5.859  15.475 -0.0844  0.0149 -0.0273
 7274W        W22743   0.573  17.118  13.202 -0.1159  0.1932 -0.1253
 7275W        W22744  17.943  16.616  12.316 -0.1846  0.0612 -0.0573
 7276W        W22745   2.581  11.416   6.326  0.0044  0.0534 -0.1113
 7277W        W22746  13.783   4.225   2.967 -0.0401  0.2535  0.2167
 7278W        W22747   9.986   0.579  15.496  0.3461 -0.3148  0.1989
 7279W        W22748   5.039   1.555  12.667 -0.1134 -0.1164 -0.2335
 7280W        W22749   9.955   2.051   3.748  0.1641  0.2414  0.1000
 7281W        W22750  17.905  13.910   0.319 -0.1136 -0.0059 -0.1102
 7282W        W22751   7.217   7.081  13.630  0.2992 -0.4420  0.1667
 7283W        W22752   7.698  11.616  12.849  0.3436  0.2712 -0.2215
 7284W        W22753  16.642  15.839   1.895  0.0001 -0.0659  0.3488
 7285W        W22754   4.359  11.964   4.254 -0.1115 -0.1932  0.1196
 7286W        W22755   1.936   0.006  13.766  0.0129 -0.1059  0.2529
 7287W        W22756  11.433  14.513  12.102 -0.2230  0.0638  0.1343
 7288W        W22757   2.615   0.418   2.941 -0.1902 -0.0376  0.4211
 7289W        W22758   1.713   5.593   1.533  0.0936  0.1831  0.2013
 7290W        W22759   9.037  11.083  11.496  0.1055  0.1297  0.1752
 7291W        W22760  13.726   6.340   4.121 -0.1186 -0.1739  0.2880
 7292W        W22761   6.675   7.406  10.304  0.0447  0.0779  0.3513
 7293W        W22762  18.114   4.936  13.819  0.2368  0.0320 -0.1171
 7294W        W22763  10.218   5.185  13.167  0.4228  0.0747 -0.0444
 7295W        W22764  10.619   5.408   9.990 -0.0600 -0.1015  0.0313
 7296W        W22765   8.314   4.803  14.710 -0.1713  0.0148 -0.0507
 7297W        W22766  16.933  18.056  15.954  0.1059  0.6333 -0.0909
 7298W        W22767   9.751  18.192  13.987 -0.3153 -0.2145  0.0553
 7299W        W22768   3.335   6.421   1.554 -0.4431  0.0884  0.1236
 7300W        W22769   6.583  17.472   2.452  0.0217  0.1870  0.2767
 7301W        W22770  16.492   7.133   5.909  0.0198 -0.1344 -0.2676
 7302W        W22771   7.499   4.185   0.205 -0.2199 -0.2651  0.2470
 7303W        W22772  18.115  14.096  15.205  0.1153  0.0709  0.0418
 7304W        W22773  12.157   7.118  12.942  0.2203  0.1652  0.1042
 7305W        W22774   3.326  15.869   0.866 -0.0420 -0.0971 -0.1937
 7306W        W22775  15.584   3.043  15.672  0.2461 -0.2165 -0.0962
 7307W        W22776   6.692  14.846   2.229  0.1493 -0.1248 -0.0153
 7308W        W22777  16.702   6.766   5.385  0.2179  0.0658  0.2136
 7309W        W22778  14.136  11.992   1.149  0.0168 -0.2555  0.1105
 7310W        W22779  12.208   6.711   0.860  0.1533 -0.2336  0.0784
 7311W        W22780  10.643  17.494   1.169 -0.1638 -0.2791 -0.0717
 7312W        W22781   5.116   2.643  11.298  0.2503 -0.0199  0.0727
 7313W        W22782  15.987  13.709   2.786  0.1707 -0.0659 -0.0335
 7314W        W22783  18.444  16.856  15.191  0.1652  0.3202 -0.0888
 7315W        W22784  10.214   5.113   1.106  0.3925 -0.1701 -0.1351
 7316W        W22785  10.815  16.916   4.293 -0.1320  0.0721  0.1238
 7317W        W22786   5.356   9.637   5.055 -0.3058 -0.0090  0.0667
 7318W        W22787   6.318   6.481  14.726 -0.1195  0.1691 -0.0268
 7319W        W22788  17.241  12.448   4.789  0.0083  0.1727  0.0903
 7320W        W22789   0.946   2.026  11.722 -0.1143  0.0565  0.2728
 7321W        W22790   5.716  13.799   3.538  0.2105  0.1706  0.1193
 7322W        W22791  15.230  12.665  11.611  0.2865  0.0923 -0.2400
 7323W        W22792   4.561  13.600  15.164 -0.4995  0.0535  0.1940
 7324W        W22793   3.091   2.491  14.874 -0.1941  0.2249  0.2822
 7325W        W22794  12.960  12.180  13.815  0.1233 -0.0956  0.0075
 7326W        W22795   0.560  15.374   0.081  0.0858 -0.1904  0.1806
 7327W        W22796   3.106   1.018   4.141 -0.0312 -0.0592 -0.1259
 7328W        W22797   5.680   1.186  14.446  0.2054  0.2140  0.0239
 7329W        W22798  15.124  12.182   3.183 -0.1106  0.1282 -0.1832
 7330W        W22799  13.033   0.015   2.470 -0.5367 -0.1418  0.3925
 7331W        W22800  11.172  12.216  13.927  0.1118  0.1871 -0.0636
 7332W        W22801   2.461  13.350   2.194  0.1560  0.4623  0.2959
 7333W        W22802   4.301  13.990  14.885 -0.1609  0.3804 -0.1354
 7334W        W22803  11.537  13.475  12.118  0.1808  0.3188 -0.1361
 7335W        W22804   3.943  11.130  12.661  0.2131  0.0973 -0.3114
 7336W        W22805   9.214   6.940  12.241  0.3077  0.0733  0.2472
 7337W        W22806  11.705  16.809   5.880 -0.0193 -0.2504  0.0054
 7338W        W22807   3.586  11.320  11.461 -0.0235  0.0933 -0.1519
 7339W        W22808   7.262   5.975   3.273 -0.4274 -0.0783  0.1272
 7340W        W22809  13.176  16.165   2.708 -0.1393  0.5101 -0.2848
 7341W        W22810  15.256   9.054   3.764 -0.1384 -0.3887  0.3509
 7342W        W22811   2.399   9.722  12.394 -0.0624  0.2562  0.0064
 7343W        W22812   5.404   2.750   5.385  0.1248 -0.1897 -0.0557
 7344W        W22813   4.476  16.387   0.577  0.2789  0.1667 -0.0407
 7345W        W22814   2.568   7.944   3.235  0.2050 -0.1036 -0.1127
 7346W        W22815   8.332  14.820   4.612  0.1712 -0.2606 -0.3247
 7347W        W22816   9.933  13.860  14.923  0.1158 -0.0845  0.1550
 7348W        W22817  13.757  13.351  13.872 -0.0730 -0.0233 -0.1710
 7349W        W22818   7.123   7.511   4.450 -0.2977  0.1310  0.0281
 7350W        W22819  14.501  10.805   0.623 -0.1769  0.1993 -0.4327
 7351W        W22820   5.771   0.880  11.031  0.1375 -0.0137  0.0221
 7352W        W22821  10.089   7.952  15.498  0.0523  0.1147  0.1021
 7353W        W22822   9.788   6.612   1.070 -0.0209 -0.1263 -0.2070
 7354W        W22823  17.444  12.387   2.031 -0.2741  0.2122 -0.4148
 7355W        W22824   2.067   0.495   1.497 -0.1237  0.2904 -0.0381
 7356W        W22825   8.099   7.032   5.848  0.0493  0.1018  0.2577
 7357W        W22826   0.577   9.386  12.221  0.3431  0.2459 -0.2165
 7358W        W22827  16.685  14.473  13.098 -0.0723  0.0323  0.0235
 7359W        W22828  13.380   7.178  15.308 -0.3190 -0.1599  0.1003
 7360W        W22829   6.213   1.566  12.986 -0.0645 -0.2130 -0.0632
 7361W        W22830  16.890  13.255  11.700 -0.0922  0.0174 -0.0701
 7362W        W22831   4.052  12.992  14.666  0.1960 -0.1005 -0.0755
 7363W        W22832   9.065  15.239   4.080  0.0297 -0.4355  0.4560
 7364W        W22833  12.636   6.874  13.085 -0.2587  0.2368 -0.1596
 7365W        W22834  14.783   0.643  13.584  0.2205  0.0025  0.0835
 7366W        W22835  11.803   4.858  11.333 -0.2612  0.2151 -0.0477
 7367W        W22836   9.910  10.297   0.580  0.0719  0.0495  0.0238
 7368W        W22837  13.192   6.414   3.866 -0.0843  0.0354  0.3842
 7369W        W22838   9.520   5.692   2.335  0.2462  0.1823 -0.1000
 7370W        W22839  15.418   4.345   0.852 -0.0400  0.2843 -0.1379
 7371W        W22840  17.969  11.601  15.317  0.0887 -0.0335 -0.0840
 7372W        W22841  14.515   9.560  15.602  0.1553  0.0402 -0.0378
 7373W        W22842   0.908  13.816   2.960 -0.0827 -0.0761 -0.3107
 7374W        W22843  13.924   0.832   2.987 -0.1298 -0.0214  0.0262
 7375W        W22844  15.743  13.463  13.513 -0.1665  0.1847 -0.0248
 7376W        W22845   9.603   5.180   2.275  0.0052  0.4481 -0.1910
 7377W        W22846  16.970   6.505   3.537  0.0447  0.2057  0.0604
 7378W        W22847   7.009  11.718  14.017  0.0944  0.3732 -0.0736
 7379W        W22848  13.292  10.370  12.232 -0.2067  0.1697 -0.1927
 7380W        W22849   8.230   6.734  11.925 -0.0005 -0.1683  0.0878
 7381W        W22850  16.852   7.518   2.640  0.1092  0.2013  0.1666
 7382W        W22851   4.758  10.396  11.194 -0.2664 -0.0760  0.0786
 7383W        W22852   3.155   5.426  13.414 -0.0626  0.2280 -0.0498
 7384W        W22853   8.332  12.041   0.099 -0.4361  0.0012 -0.1546
 7385W        W22854  10.582   1.113  10.616 -0.1267  0.0389 -0.0715
 7386W        W22855  12.235  18.216   1.505  0.0744 -0.0586  0.2220
 7387W        W22856  17.869  12.308  15.362 -0.1165 -0.1587  0.2679
 7388W        W22857   0.962   7.776  11.656  0.2170 -0.1098  0.0900
 7389W        W22858  12.740  12.121   2.896  0.0817  0.2270  0.1471
 7390W        W22859  17.030   6.322   3.106 -0.4708 -0.0370  0.4336
 7391W        W22860  10.628  11.197  12.611 -0.1280  0.0745 -0.1371
 7392W        W22861  15.354  12.136   3.854 -0.1342  0.0715 -0.0088
 7393W        W22862  15.990   5.338   3.113  0.2625  0.0103  0.2953
 7394W        W22863   7.149  17.650   3.836  0.0923  0.2681 -0.0259
 7395W        W22864   0.856   0.485   3.824  0.0561 -0.0076 -0.1851
 7396W        W22865   2.308  14.086   1.455 -0.2269  0.0568 -0.1190
 7397W        W22866  16.415  14.481  15.960  0.1683 -0.2731 -0.1512
 7398W        W22867   3.105   5.512   6.180 -0.1228  0.1004  0.0005
 7399W        W22868  11.414  17.596   4.819  0.0053  0.3501 -0.2265
 7400W        W22869  10.592  17.864  15.660 -0.2857 -0.0004 -0.0763
 7401W        W22870  16.433   8.013   4.967  0.1868 -0.0140  0.0190
 7402W        W22871  14.199   5.185  13.774  0.0619 -0.0367 -0.0258
 7403W        W22872   1.058   1.632   3.438  0.2578 -0.3445 -0.1876
 7404W        W22873   6.585   1.437  12.169  0.0971 -0.1005  0.0372
 7405W        W22874   4.366  16.553  11.727  0.1488  0.2381  0.0780
 7406W        W22875   0.486  16.831  10.642  0.1350  0.0320 -0.0365
 7407W        W22876   0.399   0.875  13.494  0.1468 -0.1588 -0.2082
 7408W        W22877   6.646   1.257   2.543  0.0173  0.1526  0.4595
 7409W        W22878  15.600  17.959   5.174  0.0765 -0.1505  0.0223
 7410W        W22879  15.281  14.150   3.237  0.1732 -0.0119  0.0935
 7411W        W22880   5.911   2.764  16.008 -0.0795  0.0614  0.1108
 7412W        W22881   9.394  16.178  14.794  0.1388  0.4457 -0.2474
 7413W        W22882  17.017  13.642  14.504  0.2121 -0.0627 -0.2352
 7414W        W22883  16.355   3.013  12.328 -0.0854 -0.1648 -0.0489
 7415W        W22884  10.331  16.948   4.503 -0.1200  0.0999  0.1650
 7416W        W22885   5.724  17.331  12.455 -0.0634 -0.1002  0.1974
 7417W        W22886   7.545   6.205   0.600  0.0811  0.1023  0.3089
 7418W        W22887   9.056   5.687   0.233 -0.0103  0.1481 -0.1379
 7419W        W22888   2.812  16.632   3.208 -0.1996  0.1468 -0.0536
 7420W        W22889  18.155   9.275   5.352  0.0367  0.1674  0.1282
 7421W        W22890   0.763  10.430   4.976  0.0340 -0.4679 -0.1302
 7422W        W22891  13.569   2.092  12.785  0.1428  0.3849  0.0269
 7423W        W22892  15.221   4.362  14.691 -0.2392 -0.1221 -0.0542
 7424W        W22893   8.341   3.782   2.657 -0.1705 -0.1298 -0.0778
 7425W        W22894   0.898   3.428  16.024 -0.3675  0.0991  0.2922
 7426W        W22895   3.683   9.072   1.765 -0.0010  0.1348 -0.0041
 7427W        W22896   1.786   0.753   3.257  0.1871  0.1498  0.2349
 7428W        W22897  14.361   5.829   3.130 -0.2385  0.3341  0.1948
 7429W        W22898  16.402  10.069  14.788  0.3030 -0.0001 -0.1745
 7430W        W22899  12.608  15.886   4.326  0.0738 -0.0483  0.1875
 7431W        W22900  15.226  16.921   3.748 -0.1088 -0.2366  0.0895
 7432W        W22901  11.735  15.726  14.595  0.2327 -0.2566  0.0128
 7433W        W22902  13.704  14.805   4.324 -0.1108 -0.0652  0.1074
 7434W        W22903  15.873  14.733   3.883  0.0904  0.1048  0.1894
 7435W        W22904   7.139  13.894   2.747 -0.2597 -0.0117  0.2316
 7436W        W22905   1.490  11.345  11.291  0.1044 -0.1320  0.0458
 7437W        W22906   2.645   7.254   3.835 -0.1069 -0.0990 -0.0966
 7438W        W22907   7.585  14.717   1.179 -0.2117 -0.0108 -0.0519
 7439W        W22908  18.259   9.120   3.059  0.0422 -0.0654  0.0101
 7440W        W22909   0.471   2.492  11.590 -0.1837 -0.2640 -0.0637
 7441W        W22910   2.155  18.164   0.988  0.2448  0.2366 -0.1124
 7442W        W22911   9.680  16.537   4.579 -0.1215 -0.0934 -0.2075
 7443W        W22912   0.225   9.194  12.600 -0.0985  0.1038 -0.1925
 7444W        W22913  14.365   8.416  12.780  0.4158 -0.3660 -0.0252
 7445W        W22914  10.996   9.111  15.399 -0.3561 -0.1637  0.1518
 7446W        W22915  10.195   6.676   2.660 -0.2435 -0.0911 -0.2764
 7447W        W22916  15.275   5.533   1.241 -0.3129  0.2025 -0.1267
 7448W        W22917  16.941   4.991   1.496  0.0941 -0.0672  0.2217
 7449W        W22918  13.725  13.846  10.882  0.2752  0.1147  0.0304
 7450W        W22919   5.694  12.879  11.723  0.2751 -0.0721 -0.0359
 7451W        W22920   0.034  17.048  13.477  0.0740 -0.0560 -0.2885
 7452W        W22921   4.355   4.723  13.463 -0.0209 -0.2183 -0.2037
 7453W        W22922  10.152  14.220   0.443 -0.0493 -0.1926  0.0905
 7454W        W22923  13.516  11.023   0.473 -0.0959  0.1536  0.3822
 7455W        W22924   1.939   5.913   6.137 -0.3417 -0.0737  0.0549
 7456W        W22925   6.836  11.914  10.811 -0.0612  0.1167 -0.2667
 7457W        W22926   9.487  17.142   5.454 -0.0030  0.0077  0.2382
 7458W        W22927   3.355   6.280  15.595  0.1324 -0.0108 -0.1416
 7459W        W22928   7.983   7.622  15.759 -0.0752 -0.1302 -0.0707
 7460W        W22929   3.635  16.845  14.686 -0.0101  0.1360 -0.0140
 7461W        W22930   6.250  11.249  14.333  0.1013 -0.3174 -0.1976
 7462W        W22931   5.561   1.658  12.985  0.0564 -0.0559 -0.1675
 7463W        W22932   2.419   1.324   4.676 -0.0268  0.1908  0.0725
 7464W        W22933  10.361   3.323  11.107 -0.0779  0.2542  0.3889
 7465W        W22934  11.242   2.420  11.641 -0.0957  0.2744  0.1536
 7466W        W22935   9.007  10.448   5.679 -0.4064 -0.1070 -0.1353
 7467W        W22936   8.521  18.092   1.570 -0.0784 -0.0092  0.2956
 7468W        W22937   2.978   5.015  10.676 -0.3593 -0.1089 -0.0483
 7469W        W22938   6.943   3.541   5.749 -0.0169  0.1269 -0.1908
 7470W        W22939   3.547  16.650   0.831  0.0404  0.1553  0.1853
 7471W        W22940   9.134   3.483  11.460  0.1476  0.0980  0.1528
 7472W        W22941   5.104  10.528  13.684  0.1901 -0.0114  0.1550
 7473W        W22942  13.502  10.762  11.045 -0.0479 -0.0316 -0.0271
 7474W        W22943   2.147  11.694  15.261 -0.0912 -0.0042  0.0144
 7475W        W22944   7.011  18.118  13.638  0.1164 -0.2891  0.1338
 7476W        W22945  17.180  10.753  14.070 -0.3573 -0.2481  0.1148
 7477W        W22946   0.253  11.151  14.087 -0.0308 -0.2711  0.0466
 7478W        W22947   0.191  16.989  13.963 -0.0834  0.0621  0.1350
 7479W        W22948   3.640  11.823  11.352 -0.0391  0.2669  0.1100
 7480W        W22949   7.122  13.552   4.326  0.3178 -0.3396 -0.1329
 7481W        W22950  12.278  12.585   0.430 -0.4854 -0.0804 -0.3716
 7482W        W22951   3.300   6.521   5.335  0.0338  0.1075  0.1807
 7483W        W22952   1.151  12.477  12.052  0.2888 -0.0328  0.1146
 7484W        W22953  12.019  14.769  11.803 -0.1314 -0.3085  0.0725
 7485W        W22954  16.809   0.439  13.939 -0.3706  0.1435  0.0496
 7486W        W22955   0.822  12.155  13.417  0.1169 -0.1453 -0.2804
 7487W        W22956   4.191  10.120  13.444 -0.0570  0.0006  0.0210
 7488W        W22957   2.371  14.593  15.355 -0.2702 -0.0554  0.5362
 7489W        W22958   7.243  13.093   4.507  0.0682  0.2346  0.1967
 7490W        W22959   4.786  11.588  15.515 -0.2617 -0.2296 -0.1010
 7491W        W22960   5.425   6.168  14.408  0.0661 -0.1324  0.1541
 7492W        W22961   5.193  16.798  12.993  0.0632  0.0551  0.1103
 7493W        W22962  17.902  13.066  15.987  0.3156  0.0750  0.0734
 7494W        W22963  16.888   0.601  13.152  0.1153 -0.1383 -0.1242
 7495W        W22964   6.072   1.041   4.781  0.0035  0.1758  0.3832
 7496W        W22965  10.513   5.900  12.734  0.2253 -0.2241  0.0998
 7497W        W22966   4.702   9.760  12.295  0.3530  0.2260  0.1183
 7498W        W22967   0.654   7.996  13.862 -0.0447 -0.1810 -0.1377
 7499W        W22968   8.517   8.203  15.516  0.1227  0.2962  0.0014
 7500W        W22969   3.024  15.847   2.712 -0.1217 -0.0189  0.0612
 7501W        W22970   1.120   0.648   3.249 -0.3516  0.1832 -0.2818
 7502W        W22971   1.405   0.221   2.598  0.1724  0.0759 -0.0210
 7503W        W22972  11.553   9.576  14.879  0.0018  0.1841 -0.0197
 7504W        W22973  16.484  16.741   4.627 -0.0946 -0.2036 -0.2108
 7505W        W22974  16.396  13.182   2.253 -0.0877  0.3205 -0.0532
 7506W        W22975   3.104   6.361  12.225  0.1416 -0.2325 -0.1203
 7507W        W22976  14.722   5.549   1.241 -0.1308 -0.1820  0.0080
 7508W        W22977   6.669  12.019  11.423  0.1424 -0.2100  0.2798
 7509W        W22978   1.864  15.935  12.577  0.0739  0.3589  0.0532
 7510W        W22979  18.271   2.096  15.761  0.2006  0.1278  0.1316
 7511W        W22980   9.895  15.359  14.726  0.1429  0.1748 -0.0947
 7512W        W22981  14.146  15.607  14.466  0.1332  0.0432 -0.2718
 7513W        W22982   9.945   5.747   0.494 -0.1084 -0.2313 -0.0171
 7514W        W22983   0.929  18.309  11.484 -0.3418  0.3337 -0.1096
 7515W        W22984  11.890  13.369   2.005 -0.0022  0.0393 -0.1308
 7516W        W22985  17.648  16.152  13.606 -0.0103  0.0165 -0.1213
 7517W        W22986   4.524  14.864  14.262  0.0737  0.0159 -0.0645
 7518W        W22987   3.680  14.008  12.024  0.2399 -0.1950  0.1466
 7519W        W22988   6.338   0.324  14.095 -0.1574 -0.1511  0.2046
 7520W        W22989  16.188  16.902   1.339  0.1097  0.0134  0.1108
 7521W        W22990  10.729  12.440   5.425  0.0859 -0.0408 -0.1256
 7522W        W22991  13.485   4.002  15.862 -0.2973  0.1578 -0.3156
 7523W        W22992  16.301   6.118   4.834  0.0635 -0.1048  0.1304
 7524W        W22993   1.562   7.385   5.157  0.0670  0.0063 -0.1071
 7525W        W22994   2.793  15.806  13.755 -0.3529  0.0843  0.1152
 7526W        W22995   0.500  13.469   2.999  0.4146  0.1898 -0.1048
 7527W        W22996  15.215   7.014   1.107  0.1228 -0.1312  0.0710
 7528W        W22997   1.951  10.049  14.222 -0.0081  0.3566 -0.2769
 7529W        W22998   8.707  11.378  13.999 -0.2089 -0.0300  0.0521
 7530W        W22999  12.966   5.486   2.145  0.0745 -0.0204 -0.0601
 7531W        W23000  14.781   4.805   4.436 -0.0028  0.0517 -0.0779
 7532W        W23001  16.156  17.033   4.413 -0.1865 -0.0830 -0.0769
 7533W        W23002   6.393   8.331   0.825  0.1749  0.0359 -0.3828
 7534W        W23003  15.582   5.677  15.485  0.2136 -0.1108 -0.0369
 7535W        W23004   9.571   7.202  14.780  0.1557  0.0331 -0.0467
 7536W        W23005   0.786   1.166   2.715  0.0919 -0.1587  0.0579
 7537W        W23006   4.605  18.312  13.361 -0.4379 -0.3280  0.1950
 7538W        W23007   5.157   5.130  14.136  0.3523  0.4947  0.1833
 7539W        W23008   3.798   7.279  13.162  0.2610  0.1925  0.1063
 7540W        W23009  17.008  15.055  15.484 -0.2451 -0.1871  0.1205
 7541W        W23010   3.934  13.766   2.678  0.0869  0.2457 -0.0656
 7542W        W23011  10.756  15.896  11.172  0.0932 -0.2284 -0.0044
 7543W        W23012  10.321   9.436   2.431 -0.0941 -0.3502 -0.2733
 7544W        W23013   7.273  14.001  12.324 -0.2482  0.1035 -0.1742
 7545W        W23014   4.409  11.092   0.540  0.0215  0.0830 -0.0475
 7546W        W23015   4.632  15.118  11.702  0.0171 -0.3043  0.0612
 7547W        W23016   0.603  14.674   4.722  0.1137  0.2619  0.1395
 7548W        W23017   1.335  17.406  13.241 -0.2207 -0.1089 -0.3043
 7549W        W23018   4.551  12.732   1.612  0.1566  0.1313 -0.0890
 7550W        W23019  10.879  11.545  10.572 -0.3454  0.0266 -0.1751
 7551W        W23020  12.456  10.016   2.602 -0.1022 -0.3282  0.0703
 7552W        W23021  13.928   8.721  12.850 -0.3924  0.1547  0.0313
 7553W        W23022   3.210  18.033  11.956  0.2588  0.0711  0.0708
 7554W        W23023   4.601   5.391   1.757  0.0445  0.1745 -0.0658
 7555W        W23024   8.493   4.130  13.344 -0.2330  0.2564  0.1175
 7556W        W23025   9.713  18.298  15.382  0.1962 -0.5276 -0.0027
 7557W        W23026  10.750   3.630  12.133  0.1667 -0.1821  0.1205
 7558W        W23027   9.846   0.860  11.809  0.1668 -0.3527  0.2374
 7559W        W23028   1.554  16.642  12.927  0.1149  0.0180  0.0501
 7560W        W23029   9.550   9.720  15.747  0.1308  0.0594 -0.3278
 7561W        W23030  17.061   6.676   2.742  0.1107  0.0840 -0.1182
 7562W        W23031   4.505   2.561   1.451 -0.3636  0.0684 -0.0511
 7563W        W23032  15.094   7.184   4.267 -0.0982 -0.3948 -0.1173
 7564W        W23033   5.482   7.728   2.359 -0.0738 -0.2594 -0.1820
 7565W        W23034  16.623  17.135  14.502 -0.0845  0.1582  0.0263
 7566W        W23035   6.772  17.201  11.673  0.0149  0.2157  0.0353
 7567W        W23036   3.800  18.340  14.653 -0.0085 -0.1666  0.3013
 7568W        W23037   9.604   0.025  12.865  0.1479 -0.1652 -0.0621
 7569W        W23038   1.065   8.520   2.015  0.1144 -0.0442  0.1987
 7570W        W23039   0.068  17.254  12.470 -0.1806 -0.4318  0.0656
 7571W        W23040  17.715   1.734  13.580  0.2054  0.0001 -0.0088
 7572W        W23041   1.240  17.835   0.152  0.1764 -0.1347 -0.0187
 7573W        W23042   9.890  14.290   4.456 -0.2090 -0.1293  0.2514
 7574W        W23043   5.659   7.582   0.885  0.2994 -0.1596 -0.1667
 7575W        W23044   6.018  13.782   0.870 -0.0850 -0.0384 -0.1870
 7576W        W23045  14.512   6.665   1.976 -0.0288  0.1722  0.1139
 7577W        W23046  17.686  12.892  12.466 -0.1924 -0.1442  0.3506
 7578W        W23047  16.974  11.353  10.995 -0.0112 -0.3313 -0.0572
 7579W        W23048  17.466   9.470   0.835  0.3560  0.1658  0.1084
 7580W        W23049  11.867  13.365  12.498 -0.0183  0.1524  0.0992
 7581W        W23050   7.918   2.336   5.077 -0.1500  0.0855  0.0347
 7582W        W23051  15.077  15.256  13.236  0.0823 -0.1561 -0.0059
 7583W        W23052  15.269  12.945   5.733  0.2376  0.0409 -0.0552
 7584W        W23053   4.184   7.310  12.860 -0.0241  0.0023  0.0054
 7585W        W23054   5.383  16.534   2.478  0.0521  0.0208  0.2048
 7586W        W23055   6.771  11.151   4.114 -0.0309  0.1483 -0.1151
 7587W        W23056   4.943   0.229   4.982 -0.1406 -0.0234 -0.2061
 7588W        W23057   5.735   0.908  15.429  0.3403  0.0793 -0.0386
 7589W        W23058   5.513   5.813  13.781  0.1433 -0.0299 -0.4187
 7590W        W23059   9.097  14.405  11.536 -0.0316  0.1227  0.1348
 7591W        W23060  12.941   4.231   0.929  0.0828 -0.1170 -0.2562
 7592W        W23061   2.980  10.126   4.942 -0.0385  0.2933  0.3424
 7593W        W23062   6.638  15.151   4.806 -0.4540  0.0968  0.0501
 7594W        W23063   0.312  15.392  14.089  0.1500 -0.0121  0.1204
 7595W        W23064   5.100   0.008   1.975 -0.2348  0.4222  0.0719
 7596W        W23065   0.401  12.426   1.227  0.0137  0.0438  0.3175
 7597W        W23066   7.229  12.304   1.502  0.0242 -0.0418  0.1525
 7598W        W23067   8.740  11.900   1.284 -0.0994  0.1025  0.0289
 7599W        W23068   3.686   9.378  14.060  0.1468  0.2614  0.0470
 7600W        W23069   5.911  12.547  13.807 -0.0719  0.1151  0.0081
 7601W        W23070  13.464  12.549  11.662  0.1227  0.1260 -0.1769
 7602W        W23071  13.323   0.330   2.119 -0.1000 -0.0051  0.3367
 7603W        W23072   9.603   6.213  12.486  0.2859  0.0829  0.0537
 7604W        W23073   0.926  13.638   4.260  0.1179  0.1458 -0.3826
 7605W        W23074  14.386  16.486  13.603 -0.2610  0.2144 -0.1395
 7606W        W23075   3.828   1.580   1.536  0.1219  0.1239 -0.0388
 7607W        W23076  18.408   8.891   4.942 -0.1399 -0.0680 -0.0124
 7608W        W23077  11.626  17.707   0.746 -0.1944  0.1262  0.2252
 7609W        W23078   6.222  17.724   1.889  0.3644  0.5227  0.2107
 7610W        W23079   1.277   4.378   0.656  0.0130  0.0689 -0.2189
 7611W        W23080   5.893  18.028  10.955  0.3554  0.2804 -0.1802
 7612W        W23081   9.924  11.059   1.479  0.0356  0.1776  0.2123
 7613W        W23082  13.169   7.072  10.718 -0.3805  0.2098 -0.1090
 7614W        W23083   0.301   6.001  12.322 -0.1425 -0.3123  0.0207
 7615W        W23084  17.011   1.367  12.750  0.0334 -0.1729 -0.1367
 7616W        W23085   3.695   2.468  11.096 -0.0163  0.0849 -0.3230
 7617W        W23086  15.831   9.054   2.589 -0.2610  0.1512  0.0147
 7618W        W23087   9.107  13.690  14.483  0.1999 -0.1998  0.0119
 7619W        W23088  16.174  13.092   3.562 -0.4825  0.2408  0.0191
 7620W        W23089   7.342   6.115  14.105 -0.0750  0.0241  0.1803
 7621W        W23090  13.876  11.073   2.131 -0.2857  0.1651 -0.0221
 7622W        W23091   1.142   1.787  10.395  0.1157 -0.2025  0.0742
 7623W        W23092   8.588   8.087  11.516 -0.0347  0.1229  0.1759
 7624W        W23093   4.558   9.517   0.078 -0.2934  0.2271  0.2952
 7625W        W23094  12.793  10.163  15.135  0.0799  0.0542 -0.0169
 7626W        W23095  15.195   0.650  14.259  0.0016 -0.3546 -0.0089
 7627W        W23096  11.524   8.232  11.415 -0.1741  0.1371 -0.2778
 7628W        W23097  15.533  10.704   5.028 -0.0539  0.0959  0.0124
 7629W        W23098   5.799   0.158  12.161  0.3851 -0.1432  0.0953
 7630W        W23099  13.257   7.635  13.015  0.0081  0.0987 -0.3210
 7631W        W23100   9.808   8.394  15.519  0.3444 -0.0209  0.0541
 7632W        W23101  13.309  16.846   3.398  0.2784 -0.0131  0.2611
 7633W        W23102  15.707   2.806   0.060 -0.1161 -0.1254 -0.0779
 7634W        W23103   7.723   1.235   3.045 -0.0235 -0.3264  0.2820
 7635W        W23104  17.025  10.482   3.779 -0.0665 -0.2470  0.0884
 7636W        W23105   6.112   2.470   4.194 -0.0751  0.0097 -0.1942
 7637W        W23106  17.164  13.155  13.342 -0.0422  0.2849  0.0580
 7638W        W23107  15.943   7.703  10.287 -0.0094  0.1134 -0.0899
 7639W        W23108  12.151   5.004  12.846 -0.0055  0.1406 -0.0757
 7640W        W23109   8.794  10.179   0.072 -0.0343  0.2640 -0.0145
 7641W        W23110   2.502   1.755   1.340 -0.0803  0.2354 -0.2534
 7642W        W23111   0.362   9.944   4.094  0.0584 -0.0589  0.2139
 7643W        W23112   3.792   1.652   0.571  0.0441  0.3116  0.1922
 7644W        W23113  15.754  16.073   1.110  0.1209 -0.2794  0.0217
 7645W        W23114  14.585   5.373   2.774 -0.0461 -0.0792 -0.0563
 7646W        W23115  13.041  10.824  12.114  0.2165 -0.0092  0.1426
 7647W        W23116   1.130  13.690   3.776 -0.0117 -0.0629  0.3230
 7648W        W23117  11.576   9.580  10.822 -0.1003 -0.0865 -0.0146
 7649W        W23118   4.430  11.197   3.521  0.1361 -0.1493  0.0043
 7650W        W23119   8.381   9.487  12.899 -0.2038  0.1615  0.1095
 7651W        W23120   4.688  13.421  12.809 -0.1687  0.0621 -0.2401
 7652W        W23121   1.024  12.685  15.369 -0.1098 -0.0356  0.1082
 7653W        W23122   8.285   4.520  13.108  0.1828  0.0250  0.1106
 7654W        W23123  10.089   8.491  10.296  0.2682 -0.2369 -0.0906
 7655W        W23124   0.653  12.967  10.909 -0.1142 -0.0533  0.2143
 7656W        W23125  16.221   7.450   4.359 -0.1141  0.1454 -0.1911
 7657W        W23126  13.121   5.498   4.504  0.0493  0.0658  0.2175
 7658W        W23127  11.814  13.377  12.979  0.0739 -0.0277  0.0393
 7659W        W23128  15.410  17.391  13.214  0.0461 -0.0596 -0.5257
 7660W        W23129   3.243   3.811   4.557 -0.0193 -0.2050  0.0867
 7661W        W23130   8.171   9.617   2.640 -0.0797 -0.0983  0.3864
 7662W        W23131   4.290   6.951  11.826 -0.1668 -0.0851  0.1168
 7663W        W23132  16.410   3.009   0.603 -0.2921  0.1338 -0.0693
 7664W        W23133   2.150  13.406   0.327  0.0546  0.1055 -0.0809
 7665W        W23134   8.558   0.401   3.935  0.1878 -0.1050 -0.0354
 7666W        W23135   4.726  14.130  10.105 -0.2957 -0.1542 -0.3169
 7667W        W23136  18.330  18.227  10.862  0.1144 -0.1970  0.3564
 7668W        W23137  10.064  11.356  11.913  0.0954 -0.1828 -0.0368
 7669W        W23138  15.043  14.020  15.810  0.0683 -0.3011  0.1097
 7670W        W23139  18.453   0.924   4.468  0.0517  0.2018  0.1614
 7671W        W23140  10.531   6.581   0.366  0.0704 -0.1112 -0.0820
 7672W        W23141   3.177   6.958  12.368 -0.1500  0.2287 -0.0140
 7673W        W23142   3.404  16.127  14.423 -0.2075  0.2463  0.3579
 7674W        W23143   8.596  15.961  15.625 -0.2320  0.0895  0.1691
 7675W        W23144   9.515   5.822   5.434  0.6081  0.1525  0.2051
 7676W        W23145   1.716   4.339   5.223  0.1291  0.0487 -0.1401
 7677W        W23146   9.783   8.619  14.966 -0.0867  0.0997 -0.1260
 7678W        W23147  17.263  15.283  13.181 -0.2152 -0.1501 -0.2374
 7679W        W23148  10.790   2.940  15.642  0.3200  0.0720  0.4061
 7680W        W23149  15.670  17.037   4.599 -0.2661  0.2314  0.0386
 7681W        W23150   2.733   7.440   4.435 -0.0044 -0.0481 -0.0027
 7682W        W23151  14.112   6.610   2.275 -0.1113 -0.4640 -0.1226
 7683W        W23152   1.596  14.883  15.816 -0.0552 -0.3604  0.1556
 7684W        W23153  10.663  11.628   1.430 -0.2941 -0.0863 -0.1577
 7685W        W23154  16.464  13.572  15.149  0.3381  0.0217  0.0839
 7686W        W23155  14.914   5.174  15.156 -0.0369  0.0013 -0.0883
 7687W        W23156  15.343  12.262  12.879  0.7586 -0.1621  0.1785
 7688W        W23157  17.154   2.371   2.572 -0.5205 -0.2424  0.3835
 7689W        W23158   1.040  15.261  14.329  0.2508  0.0950  0.0740
 7690W        W23159   2.789  10.340   3.309 -0.1886 -0.2054 -0.1041
 7691W        W23160  14.972  13.075  11.714 -0.0867 -0.0829 -0.0920
 7692W        W23161   1.353   6.207  12.561 -0.0808 -0.1178  0.0568
 7693W        W23162   3.108   4.053  12.324 -0.1885  0.2496  0.4133
 7694W        W23163  13.634   1.685   1.885  0.0837 -0.2528 -0.0918
 7695W        W23164  15.148   3.536  15.861  0.1365 -0.2955  0.1668
 7696W        W23165   7.370   9.972   4.191 -0.4772 -0.0635  0.0752
 7697W        W23166  15.511   2.055  14.822  0.1352  0.0950 -0.2367
 7698W        W23167  16.353  13.899   0.532 -0.1467 -0.2889  0.2062
 7699W        W23168  17.602  16.424  14.653  0.0568  0.1072  0.0027
 7700W        W23169   6.790   4.172  12.262 -0.2494  0.0301 -0.4782
 7701W        W23170   7.157   6.997   0.431  0.0705  0.0836 -0.0093
 7702W        W23171   0.828   9.842  15.736 -0.2462 -0.1395 -0.0499
 7703W        W23172  15.633   0.646  11.085  0.1706 -0.3017  0.4251
 7704W        W23173   2.976  11.715  10.683 -0.1512 -0.1903 -0.0258
 7705W        W23174  10.394   3.288   4.380 -0.0553 -0.2300  0.0214
 7706W        W23175  11.560   5.696   0.729  0.0299 -0.1349 -0.2227
 7707W        W23176  17.699   7.488   5.353 -0.2534  0.1300 -0.2698
 7708W        W23177  16.825   3.887   5.224 -0.1268  0.0838 -0.3472
 7709W        W23178  12.642   3.369  12.125  0.2417  0.1796  0.0810
 7710W        W23179  15.641   3.660   1.542  0.2745  0.0491 -0.2344
 7711W        W23180  10.483   4.726  12.250 -0.0181 -0.1333  0.1360
 7712W        W23181   4.313  11.904   1.032 -0.5771  0.1109  0.1675
 7713W        W23182   1.868   2.319  12.410  0.0233  0.2732 -0.4634
 7714W        W23183   4.381   1.867  11.165 -0.0747  0.1238  0.2166
 7715W        W23184   1.275   1.734   5.601  0.2156  0.1831  0.0800
 7716W        W23185  10.180  17.335  12.173  0.1771 -0.0504 -0.0771
 7717W        W23186   0.097  14.104   0.971  0.0140 -0.3229  0.1904
 7718W        W23187   2.312   2.292  11.443 -0.3907  0.1052 -0.1695
 7719W        W23188   6.989  14.493  14.684 -0.2981  0.0611  0.0452
 7720W        W23189  10.830  15.640   4.306 -0.1422 -0.0558 -0.1088
 7721W        W23190  15.742   6.918   0.861  0.0871  0.0118 -0.0136
 7722W        W23191   5.887  15.787  14.009 -0.2445  0.0265  0.1968
 7723W        W23192  13.444   1.891   0.881 -0.1682  0.0425  0.0605
 7724W        W23193  13.572   0.286   3.662  0.0095 -0.0853  0.2457
 7725W        W23194   9.289   5.473   0.824 -0.3624  0.3046 -0.3592
 7726W        W23195   9.672   0.772   3.031  0.0155  0.0602 -0.2188
 7727W        W23196  14.521   6.246  13.281 -0.1626 -0.2013 -0.0072
 7728W        W23197   9.795   4.576  14.720  0.2625  0.2198  0.0075
 7729W        W23198  16.666  16.998   9.635  0.0025 -0.1704 -0.2018
 7730W        W23199   2.746  14.732  11.204 -0.1645 -0.1166  0.1032
 7731W        W23200  17.524  15.703  13.838  0.0592 -0.0682  0.2040
 7732W        W23201  15.460  11.177   5.350 -0.1314  0.0816 -0.1310
 7733W        W23202  17.812  11.888  10.678 -0.0627 -0.0723  0.4006
 7734W        W23203   5.587  17.696   5.410  0.0472  0.0267  0.5788
 7735W        W23204  13.837  13.421  10.588 -0.3734  0.0704 -0.1284
 7736W        W23205   8.903   7.048   2.157  0.0246 -0.2463 -0.0015
 7737W        W23206  14.647  13.764  14.211 -0.2035  0.0156 -0.0765
 7738W        W23207  18.144  13.753  14.130 -0.0551  0.0804  0.2259
 7739W        W23208  13.364  10.122  13.430 -0.3894 -0.1956 -0.2458
 7740W        W23209   8.593   0.212   1.675  0.2283 -0.0703  0.2144
 7741W        W23210   9.671  11.686  11.348 -0.0761  0.0096 -0.1004
 7742W        W23211  16.729   8.778  12.309  0.2246 -0.2214 -0.1014
 7743W        W23212   3.152   0.117   3.765 -0.4742 -0.2480  0.0594
 7744W        W23213  15.534   1.236   3.147  0.3079  0.0989  0.0919
 7745W        W23214  18.371  18.324   3.234 -0.0456  0.2893 -0.1516
 7746W        W23215   9.994   9.332   2.057  0.1646  0.0400  0.1147
 7747W        W23216   8.631   5.654   2.990  0.0597 -0.0236  0.1529
 7748W        W23217  11.208   9.088   9.775  0.1399 -0.0644 -0.0542
 7749W        W23218   9.684   3.444   3.835  0.1675 -0.1121 -0.2005
 7750W        W23219   1.976  16.776  14.547 -0.6772  0.0511  0.2169
 7751W        W23220  14.471  10.352   0.307  0.2524 -0.1166 -0.0703
 7752W        W23221  13.039  12.091   5.563  0.1166 -0.0268  0.2142
 7753W        W23222   6.404  12.074  10.999 -0.1289  0.0921 -0.1473
 7754W        W23223  16.790   9.953   1.337  0.0588  0.1452 -0.0541
 7755W        W23224  16.340   5.792   5.257  0.1083  0.1110  0.1824
 7756W        W23225  11.397  11.997  10.972 -0.0905 -0.1126  0.2003
 7757W        W23226   4.781   5.139  13.246  0.5327  0.0688 -0.1870
 7758W        W23227   0.685   2.496  12.066 -0.0242 -0.0628  0.0807
 7759W        W23228  18.415  12.986  15.676 -0.2788 -0.0176 -0.1095
 7760W        W23229   7.105   5.320   2.157 -0.0118  0.0283  0.1179
 7761W        W23230   8.036  15.922  16.007 -0.3692 -0.0181 -0.0200
 7762W        W23231   4.044  16.243   1.678  0.0375  0.1819  0.2028
 7763W        W23232  10.226   5.469  11.285  0.1345  0.0964 -0.2119
 7764W        W23233  16.170   1.049  12.820 -0.2075 -0.0522  0.1322
 7765W        W23234  16.246   8.015  14.295  0.0093 -0.3231 -0.0495
 7766W        W23235  10.261   8.269   1.245  0.1471  0.0118 -0.3327
 7767W        W23236   3.937   6.298   4.509 -0.1510 -0.0001 -0.1035
 7768W        W23237  12.943   2.902  13.740 -0.0375 -0.0613  0.1046
 7769W        W23238   0.546   8.922  14.893 -0.0625 -0.0464 -0.1109
 7770W        W23239   3.959   0.419   3.258 -0.2470 -0.2499  0.1229
 7771W        W23240   8.975   5.756   2.535  0.0245 -0.1500  0.0107
 7772W        W23241   3.654  13.064  15.114 -0.0112  0.1262 -0.0925
 7773W        W23242  12.032  16.969  11.309  0.0847 -0.2168 -0.3813
 7774W        W23243  18.349  11.473   4.250 -0.4080 -0.0307  0.1412
 7775W        W23244   4.851   4.117   0.080  0.3123 -0.2309  0.1837
 7776W        W23245  11.978  16.180  12.266 -0.5336 -0.1922 -0.1016
 7777W        W23246  11.877   7.033  15.703 -0.6035  0.0958  0.0126
 7778W        W23247  11.477  15.283  11.305  0.1999  0.3958 -0.0214
 7779W        W23248   2.162   7.680   4.445  0.0446 -0.0673 -0.1433
 7780W        W23249   7.801  17.870   2.195  0.0826  0.0411  0.0878
 7781W        W23250   5.161  12.467   1.720  0.0363 -0.0075  0.1376
 7782W        W23251  13.155  14.581  14.322 -0.0372 -0.2290  0.0156
 7783W        W23252   7.389  16.000   4.816  0.1435  0.0407  0.1998
 7784W        W23253   3.182   2.626  13.661  0.0111 -0.0739 -0.0986
 7785W        W23254   6.729   9.563   4.559  0.0315 -0.2029 -0.0574
 7786W        W23255   9.059   1.229   3.148 -0.1821 -0.2920  0.2139
 7787W        W23256   6.157   4.177  13.390 -0.1014  0.0279 -0.0774
 7788W        W23257  17.647   4.805   1.903 -0.1208  0.2118 -0.0249
 7789W        W23258   8.294   2.955  11.934 -0.0762  0.1111  0.1132
 7790W        W23259  16.745  15.442  14.552  0.2002 -0.1298  0.0807
 7791W        W23260   7.966  11.593   9.648  0.2862  0.1696 -0.5054
 7792W        W23261  12.807   9.209   3.791  0.3496  0.0071  0.0779
 7793W        W23262   2.530   1.748  12.765 -0.0332 -0.0181  0.0824
 7794W        W23263   4.040   5.110  13.671 -0.0124 -0.2183  0.0128
 7795W        W23264   0.545   8.660   3.577  0.1912 -0.2804  0.0508
 7796W        W23265  17.710   3.932  15.294  0.0360 -0.1221  0.1640
 7797W        W23266   5.257  17.539  15.215 -0.1092  0.1390  0.2503
 7798W        W23267  18.279  12.291   1.475  0.3228  0.0149 -0.0366
 7799W        W23268  10.466   2.555  14.857 -0.0774  0.0983  0.1209
 7800W        W23269  15.163   0.492  11.567  0.1771 -0.0763 -0.1254
 7801W        W23270   4.668   4.295   3.577 -0.0707 -0.1058  0.0430
 7802W        W23271   1.727  18.211   4.773 -0.0772 -0.0231 -0.1276
 7803W        W23272  11.412  11.213  11.903  0.0594  0.4251  0.2312
 7804W        W23273   9.117   4.357  10.719 -0.4583  0.1547 -0.2235
 7805W        W23274  16.305  15.677   3.686  0.2275  0.0426  0.1650
 7806W        W23275   6.588  13.259  10.616  0.0187 -0.0591  0.2506
 7807W        W23276   1.677   2.921   0.902 -0.0916  0.0747  0.0223
 7808W        W23277  15.090  11.293  14.700  0.2072 -0.0774 -0.0386
 7809W        W23278  12.173  10.013  12.907 -0.2525  0.2848 -0.1614
 7810W        W23279   5.587  15.475   4.081 -0.2613  0.1564 -0.0420
 7811W        W23280   4.536   7.270   5.135  0.0318  0.1059  0.4546
 7812W        W23281   3.212   2.880  11.048 -0.1776 -0.1174  0.2336
 7813W        W23282   0.424   3.728  13.251 -0.3158 -0.2279 -0.4091
 7814W        W23283  17.652   6.874  10.762  0.1688 -0.0916  0.1824
 7815W        W23284   2.045   0.407   3.542  0.2232 -0.2610  0.2282
 7816W        W23285   0.922   3.096   1.910 -0.1264 -0.0395  0.0404
 7817W        W23286  10.636   6.045  10.560  0.1026 -0.1169 -0.1350
 7818W        W23287  12.350   5.499  13.343  0.3833 -0.1920  0.2548
 7819W        W23288  16.892  10.419   4.998 -0.0171 -0.1615  0.1465
 7820W        W23289  11.366  14.764  13.233  0.0297 -0.5029  0.3783
 7821W        W23290   9.671  10.110  15.476 -0.0385 -0.0831  0.3713
 7822W        W23291   8.069   9.005  15.255 -0.1074 -0.0747 -0.1426
 7823W        W23292   3.369  12.295   2.225 -0.0586 -0.1457 -0.0828
 7824W        W23293   5.888   4.281   1.212 -0.4223 -0.0370  0.0571
 7825W        W23294   0.004  12.463   2.378  0.3873  0.2284 -0.1334
 7826W        W23295   3.034  15.570   3.981  0.0812  0.2172 -0.0569
 7827W        W23296  11.898   8.118   2.991  0.2293 -0.0264 -0.4440
 7828W        W23297  14.470  11.949  15.464  0.2375  0.1225  0.0977
 7829W        W23298   9.385  12.436  12.275 -0.0796 -0.1409  0.0598
 7830W        W23299   9.464   2.028  12.477 -0.0479 -0.1627  0.1597
 7831W        W23300  13.314  16.306  14.379  0.2593  0.1660 -0.3045
 7832W        W23301   9.303   3.647  13.482  0.1871  0.0181 -0.0901
 7833W        W23302  12.306   9.814   1.650  0.2350 -0.2060 -0.0887
 7834W        W23303  11.664   4.463  11.012 -0.1224  0.2338  0.1726
 7835W        W23304   2.887   3.920   3.495 -0.1191 -0.1884 -0.0280
 7836W        W23305  16.475  17.364   4.665 -0.3983  0.0725  0.0290
 7837W        W23306   0.609   8.809   4.321 -0.2451 -0.0281 -0.1652
 7838W        W23307  14.169   9.244   1.887 -0.0216  0.0387 -0.2212
 7839W        W23308  13.164   4.099  11.228 -0.2226 -0.1473 -0.4640
 7840W        W23309   5.824  12.547   0.323  0.0443 -0.0167  0.0859
 7841W        W23310   1.926   5.472   3.846  0.2243  0.0727  0.1645
 7842W        W23311   8.278   3.800  15.294  0.3790  0.1782 -0.2366
 7843W        W23312  14.319  10.667  12.123  0.2753 -0.0846 -0.1607
 7844W        W23313   4.519  15.301   4.615 -0.0388  0.1268  0.0953
 7845W        W23314   9.293   1.284  10.587  0.3703 -0.1349 -0.1089
 7846W        W23315  16.129  10.439   4.304 -0.0752  0.1099  0.1497
 7847W        W23316   8.816   8.055  10.783  0.1743  0.1970  0.1675
 7848W        W23317   4.880   3.621  15.941 -0.1120  0.0888  0.0334
 7849W        W23318  12.384  16.631  11.374  0.2035 -0.0095 -0.0324
 7850W        W23319  13.228  15.044  15.571  0.1919 -0.0189  0.2890
 7851W        W23320   5.514   3.960  12.004  0.4428 -0.1532  0.0519
 7852W        W23321   5.621  10.493  11.475 -0.2003 -0.1107  0.0958
 7853W        W23322   2.601  16.293  14.068 -0.1269  0.1470 -0.3314
 7854W        W23323   3.133   3.639  12.625 -0.1023  0.1950  0.1893
 7855W        W23324  13.143  12.035  11.050  0.0659 -0.1709  0.0481
 7856W        W23325   9.861  13.173  11.661 -0.0355 -0.0391 -0.3011
 7857W        W23326  14.046  13.212  12.806  0.0232  0.1366 -0.3355
 7858W        W23327   2.635   5.738   1.623  0.0896 -0.3063 -0.0033
 7859W        W23328   2.061   8.130   2.517  0.1386 -0.0617 -0.2240
 7860W        W23329  17.487  16.036   4.242  0.0695 -0.2518  0.0780
 7861W        W23330   5.228  10.260  11.265 -0.1215  0.2350  0.0078
 7862W        W23331  18.291   4.219  11.482  0.4602  0.2718 -0.0911
 7863W        W23332  10.948   8.569   2.222  0.0656 -0.1932 -0.2522
 7864W        W23333   0.626  15.717  12.921  0.0163  0.1339 -0.1095
 7865W        W23334  14.613   2.917  10.680  0.1727 -0.1348  0.0371
 7866W        W23335   1.361  17.499   1.803 -0.2771 -0.2898 -0.0643
 7867W        W23336  14.016  16.569  15.468  0.0380 -0.1175 -0.4625
 7868W        W23337  16.949  15.243  11.862 -0.0438  0.0110  0.0586
 7869W        W23338   2.957   3.388   4.685  0.0972 -0.2338  0.0048
 7870W        W23339  12.108   3.764   5.376  0.0172  0.0144 -0.2100
 7871W        W23340  13.210   8.489   4.007  0.0543  0.0899 -0.0548
 7872W        W23341  15.876   0.172   0.127  0.2056  0.1682 -0.2552
 7873W        W23342  16.138   6.701   1.118  0.0442  0.4148  0.1656
 7874W        W23343  14.744   0.810   4.267 -0.0123  0.1162  0.1895
 7875W        W23344   1.302   6.110   2.708 -0.1040 -0.1607  0.2767
 7876W        W23345  16.475   7.843   2.613  0.1372  0.1846  0.0369
 7877W        W23346   2.776   3.665  11.465  0.2275 -0.3150 -0.2241
 7878W        W23347  13.176   3.372   1.947  0.4434 -0.0381  0.4386
 7879W        W23348  15.381   5.222   4.936  0.2077  0.0932 -0.0333
 7880W        W23349   9.165   9.110   2.175  0.1333 -0.1068 -0.0505
 7881W        W23350  13.338   3.217   4.442 -0.0732 -0.2275  0.2793
 7882W        W23351   6.133   7.716  12.351  0.0928 -0.0320 -0.4110
 7883W        W23352  11.985   9.053   1.017 -0.0653  0.2259 -0.2363
 7884W        W23353  14.103  17.621  12.471 -0.0077 -0.0754 -0.0837
 7885W        W23354   2.703   6.536   2.648  0.2526  0.0880  0.1492
 7886W        W23355  10.570  10.033   0.145 -0.0691 -0.0414  0.1652
 7887W        W23356   6.629  14.707   1.538  0.0829  0.0004  0.1521
 7888W        W23357   1.201   8.606  13.357  0.1274 -0.2550 -0.0768
 7889W        W23358   5.316   6.439   2.770 -0.2442 -0.1369 -0.0027
 7890W        W23359   0.206   5.851   1.285  0.0768  0.1861  0.4060
 7891W        W23360   1.393  14.222   3.189  0.1909  0.1503 -0.3186
 7892W        W23361   4.215  15.594   4.867  0.1205  0.0606 -0.1489
 7893W        W23362   5.913  16.923   1.862 -0.0235  0.1851 -0.1614
 7894W        W23363   1.807  17.684   2.103  0.1131 -0.2260 -0.0489
 7895W        W23364   6.799   6.326   1.252 -0.1244  0.0222 -0.1047
 7896W        W23365   9.323  11.892  15.111  0.2907  0.0594  0.0336
 7897W        W23366   4.033   4.126   5.101  0.1776 -0.0640 -0.2272
 7898W        W23367  15.966  16.201   2.442  0.0003  0.0474  0.2507
 7899W        W23368   7.575  16.732   4.346 -0.0839  0.0642  0.0349
 7900W        W23369   6.606  17.847  14.917  0.2445  0.2262 -0.1764
 7901W        W23370   3.782   1.796   2.723  0.0401 -0.1977  0.0593
 7902W        W23371  10.041  10.126   4.747  0.0432 -0.0995  0.2928
 7903W        W23372   1.654   5.707   4.370 -0.2091  0.1475 -0.0614
 7904W        W23373  17.986  17.366  12.176 -0.1125 -0.0840  0.0643
 7905W        W23374   2.023   5.795  11.935 -0.0155 -0.1139 -0.1942
 7906W        W23375   4.889   4.986  10.910  0.1319 -0.4069  0.0903
 7907W        W23376  12.791   7.058   0.127  0.0667 -0.2882  0.1050
 7908W        W23377  12.400  17.677  11.873  0.0485  0.0152 -0.1443
 7909W        W23378  18.428   8.880   6.085 -0.0326  0.1272 -0.0198
 7910W        W23379   4.274   4.002   3.341 -0.2225  0.1976  0.0642
 7911W        W23380   9.407   7.735  12.763  0.0623  0.2541 -0.1919
 7912W        W23381  10.872  11.697  11.455 -0.0111 -0.1463 -0.0749
 7913W        W23382   1.301   7.156   3.659 -0.4695 -0.1254  0.0239
 7914W        W23383   6.918  18.103   2.210  0.1729  0.3401 -0.0200
 7915W        W23384  11.267   2.613  15.626 -0.0933  0.0640 -0.0383
 7916W        W23385  13.730   8.922  13.240 -0.1662 -0.1553  0.1561
 7917W        W23386  18.386  17.767   3.568 -0.3861 -0.1383  0.0687
 7918W        W23387  18.007   7.303   1.721 -0.0957  0.0988  0.2023
 7919W        W23388   3.395   3.959   1.678  0.1705 -0.2670 -0.1437
 7920W        W23389  16.670  12.299  11.326  0.1097 -0.0649 -0.1574
 7921W        W23390  17.561  11.918  14.404  0.2726 -0.3992  0.0396
 7922W        W23391   3.621  12.543  13.600  0.3304  0.1119  0.0662
 7923W        W23392   4.229  13.655   3.060 -0.2048  0.0998  0.1481
 7924W        W23393   0.191   8.247   4.797  0.2262 -0.0064 -0.2493
 7925W        W23394  14.112   0.096   5.382 -0.1122 -0.4604  0.1853
 7926W        W23395  11.149   0.472   2.859 -0.1735  0.2502 -0.1438
 7927W        W23396  18.273  16.589  13.335  0.1639 -0.3834  0.0442
 7928W        W23397  15.109   3.367  14.635 -0.1180  0.1099 -0.0805
 7929W        W23398  14.153   9.684   4.245  0.0557 -0.1440  0.0480
 7930W        W23399   7.641  10.351   4.494  0.2094  0.0276  0.0328
 7931W        W23400  14.819  14.829  15.766 -0.1920 -0.1160  0.1903
 7932W        W23401  18.385  12.047   1.061 -0.1058 -0.0161  0.0591
 7933W        W23402   3.396  12.320  14.559  0.1720  0.1763  0.1366
 7934W        W23403   3.504   0.947   1.929  0.2620 -0.0306  0.1705
 7935W        W23404   4.541  13.935  10.521 -0.1159 -0.1491 -0.2677
 7936W        W23405  16.491   6.291   0.572  0.2329  0.0178  0.4774
 7937W        W23406   5.649   7.623   1.855 -0.2265  0.0799  0.1511
 7938W        W23407   3.434  15.607  11.570  0.1868 -0.0279  0.0183
 7939W        W23408   3.458   6.883  14.571  0.1552 -0.3503 -0.0598
 7940W        W23409  15.743   6.671   3.996  0.1042 -0.2540 -0.1865
 7941W        W23410   8.027   2.885   5.260 -0.3877 -0.2278  0.0355
 7942W        W23411   5.552  15.538   1.403  0.2562  0.2646  0.0786
 7943W        W23412  10.626  16.795   2.476  0.0091  0.1011 -0.1351
 7944W        W23413   3.002  17.408   4.519  0.3563 -0.0101 -0.2402
 7945W        W23414  15.327   6.142  12.792 -0.1149  0.2245 -0.2414
 7946W        W23415  12.275  14.457   3.494  0.0246  0.3778  0.1257
 7947W        W23416   1.174   2.914  15.108  0.2458  0.0044  0.0146
 7948W        W23417  17.316  11.243  14.201 -0.1001  0.1261 -0.0100
 7949W        W23418   9.082   9.326  11.598 -0.1014  0.0203  0.1073
 7950W        W23419  16.099  15.808  14.414 -0.4482  0.2123 -0.1761
 7951W        W23420  12.563  14.424  15.862  0.0121 -0.0145  0.0339
 7952W        W23421  12.492  13.608   2.049 -0.1239  0.0070 -0.0751
 7953W        W23422  18.421   0.247   2.584 -0.2917 -0.2193 -0.2595
 7954W        W23423  14.951  12.616   5.070 -0.0374 -0.2362 -0.3365
 7955W        W23424  13.636  18.129  10.495 -0.2782 -0.0532  0.1100
 7956W        W23425  18.424   3.426  13.320 -0.3095  0.0141  0.1056
 7957W        W23426  12.311   4.183   1.143  0.1957 -0.1652  0.1357
 7958W        W23427   7.222   9.233  14.233  0.5184  0.0122  0.0675
 7959W        W23428  12.478  13.347   3.329  0.0041 -0.2637 -0.0953
 7960W        W23429   0.594  14.493  12.333  0.3034 -0.6068  0.2152
 7961W        W23430   2.860  11.552  14.681  0.1220 -0.0154  0.0476
 7962W        W23431   7.158   2.917   1.545 -0.0623 -0.1922 -0.0758
 7963W        W23432  12.656   0.156  12.036  0.0751 -0.1427  0.1168
 7964W        W23433   1.851  17.145   2.234  0.0676  0.1814 -0.0445
 7965W        W23434  16.189   0.611  11.843 -0.0846  0.0177 -0.1242
 7966W        W23435   5.528  11.156  11.476 -0.0879  0.2346 -0.0130
 7967W        W23436   3.936  10.028   0.094  0.0181  0.2070 -0.0575
 7968W        W23437   2.779   8.961   3.447 -0.0814 -0.2452  0.0728
 7969W        W23438  15.445   8.410   1.924 -0.1945 -0.0151 -0.1722
 7970W        W23439  11.368   5.807   4.716  0.3318 -0.4048  0.0543
 7971W        W23440  15.692  16.933  11.544  0.0651  0.0573 -0.1573
 7972W        W23441   5.713  13.976  13.731  0.0948 -0.1430  0.0580
 7973W        W23442   5.150   4.245   0.996 -0.1110 -0.2394  0.1483
 7974W        W23443  11.052   8.461  11.194  0.2745 -0.0456  0.0259
 7975W        W23444  15.493   9.959  14.768  0.1141 -0.1034  0.2764
 7976W        W23445  13.175   9.147   1.096  0.0996  0.1612 -0.1225
 7977W        W23446  13.541   7.577   0.013 -0.2008 -0.0583 -0.1814
 7978W        W23447  14.225  14.396   2.063 -0.1097  0.2099  0.0283
 7979W        W23448   9.326   5.230   3.450  0.0735  0.1421 -0.0355
 7980W        W23449  14.807  11.862   4.548 -0.1232  0.0673  0.1234
 7981W        W23450  11.992  11.417   0.098  0.0968 -0.1928  0.0285
 7982W        W23451   4.057   8.747  11.242 -0.0993 -0.2117 -0.1299
 7983W        W23452  12.364   4.525  11.636 -0.0964  0.2161  0.5399
 7984W        W23453  15.846   1.860  12.213  0.1495  0.2737  0.2016
 7985W        W23454   8.004   9.316  11.815 -0.0144  0.5565 -0.4997
 7986W        W23455  17.012  11.545   1.749  0.3392 -0.1222 -0.0127
 7987W        W23456   6.504   4.851   2.683 -0.0629  0.0528 -0.3044
 7988W        W23457   9.005   9.863   4.082  0.2006  0.2025  0.1057
 7989W        W23458   2.886   0.203  11.312  0.2945 -0.3620  0.1449
 7990W        W23459  15.216   0.083   0.698  0.3695 -0.0043  0.1841
 7991W        W23460   2.387  12.162   4.489  0.0694 -0.0080 -0.0314
 7992W        W23461  15.067   5.966  12.394 -0.2258  0.1316  0.0936
 7993W        W23462   7.109  14.499   4.406 -0.3170  0.1121  0.0880
 7994W        W23463   9.809   3.682  13.453  0.0579  0.1659  0.1125
 7995W        W23464   3.822  14.959   0.217 -0.3654 -0.1291 -0.3265
 7996W        W23465   3.901   2.503  14.988  0.0112 -0.0965 -0.1413
 7997W        W23466   9.909   9.242   2.621 -0.0279 -0.0476 -0.1363
 7998W        W23467  17.090   6.550   5.247 -0.2624  0.2501 -0.0312
 7999W        W23468   0.750   8.116  15.743  0.1120 -0.3356 -0.2295
 8000W        W23469   1.581  17.667   1.327 -0.1914  0.0047 -0.2507
 8001W        W23470  13.247   0.838  11.975 -0.0859 -0.1641 -0.0157
 8002W        W23471  10.596   5.111  14.976 -0.1728 -0.1167 -0.0345
 8003W        W23472   8.020   6.624  13.437  0.3258  0.0723  0.2113
 8004W        W23473  10.364  16.740  13.348 -0.1466  0.0902 -0.0945
 8005W        W23474   3.710  11.972   3.474  0.2115  0.1638  0.3201
 8006W        W23475  17.757  13.520  14.363  0.1574  0.0707  0.4597
 8007W        W23476  12.384  15.555  11.627  0.0062  0.0638  0.2178
 8008W        W23477   0.429   1.916   5.761  0.2470 -0.0942 -0.2385
 8009W        W23478   0.938   4.351  13.903 -0.0676  0.1091  0.2580
 8010W        W23479  17.379   9.885   0.070 -0.1917 -0.0642  0.1616
 8011W        W23480  18.196   8.911   2.107  0.2175 -0.1847  0.1942
 8012W        W23481  16.119  15.477   1.903 -0.1264  0.0130  0.1302
 8013W        W23482   4.925  11.231   0.643  0.1437 -0.1166  0.2010
 8014W        W23483   3.515   0.636  15.668 -0.1025 -0.3079  0.1258
 8015W        W23484  14.538   9.680   0.981  0.0856 -0.0929  0.0153
 8016W        W23485   2.815   6.570   5.379  0.2566  0.3404 -0.0463
 8017W        W23486   6.807   0.200   0.294 -0.2933  0.1970 -0.2830
 8018W        W23487  17.099  12.206  12.789  0.0833 -0.0232 -0.1609
 8019W        W23488  15.803  15.793   0.168  0.0198 -0.2700 -0.3681
 8020W        W23489   1.448  11.498   3.144 -0.0207  0.2970  0.0095
 8021W        W23490   2.916  18.231   1.731  0.1566  0.0921  0.1755
 8022W        W23491   9.213   2.295   0.661 -0.1225 -0.1080 -0.0824
 8023W        W23492  17.655  15.798   0.006  0.0984 -0.2047  0.2217
 8024W        W23493  10.374  10.751   1.209  0.1878  0.1596 -0.0368
 8025W        W23494  11.939  13.664   9.835  0.0370  0.4190  0.1950
 8026W        W23495  16.338  10.198  16.004 -0.2388  0.1208  0.1999
 8027W        W23496   6.018  13.390   3.602  0.0401  0.0543 -0.0143
 8028W        W23497   1.630   3.923   0.569  0.0030 -0.3382 -0.1665
 8029W        W23498   1.788   5.056   3.478 -0.1869  0.0006  0.4503
 8030W        W23499   9.883   2.388   5.093  0.1621 -0.1034 -0.1869
 8031W        W23500   5.992  17.097  15.119  0.1066 -0.1526 -0.1285
 8032W        W23501   9.912   2.301   2.733 -0.2304  0.1449 -0.1475
 8033W        W23502  10.850   1.340  12.451  0.3224  0.0830 -0.2574
 8034W        W23503  17.353  12.941   4.078 -0.0403 -0.0012 -0.3535
 8035W        W23504  12.687   2.064   4.765 -0.1271  0.2465 -0.2127
 8036W        W23505   8.835  16.957  13.768 -0.1711 -0.1475 -0.0931
 8037W        W23506   9.345  12.219  15.473 -0.0945  0.0748 -0.0321
 8038W        W23507   1.649  14.707   5.071 -0.0216  0.3723 -0.1002
 8039W        W23508   5.100   4.687   3.251 -0.1385 -0.0812 -0.3906
 8040W        W23509  14.327  16.289  15.779 -0.1229 -0.3221 -0.0807
 8041W        W23510   8.168   3.976   3.968 -0.1669  0.0269 -0.0341
 8042W        W23511   2.053  16.781   0.504  0.2009  0.0031 -0.0941
 8043W        W23512   4.175  12.951  12.057  0.0307  0.0837  0.1150
 8044W        W23513  10.173  17.414   0.452  0.0640 -0.0503 -0.0333
 8045W        W23514  14.599  11.032   4.345  0.0820  0.0977 -0.0486
 8046W        W23515  14.546   1.572   3.706  0.2166  0.2947  0.1129
 8047W        W23516  14.457   5.642   4.316  0.4768 -0.1116 -0.1211
 8048W        W23517  15.453   5.786  11.960 -0.0897  0.2924  0.2439
 8049W        W23518  16.996   0.190  14.669  0.1017  0.1154 -0.0224
 8050W        W23519  11.329  12.735  14.638 -0.1326 -0.1011  0.1500
 8051W        W23520   6.233  17.595  14.128 -0.1069  0.0540 -0.0700
 8052W        W23521   3.174  16.903  13.913 -0.1509 -0.2722 -0.0379
 8053W        W23522  11.156   1.932  13.870  0.0917  0.4713 -0.0310
 8054W        W23523   4.402  15.470  10.927  0.2229  0.0929 -0.3710
 8055W        W23524  15.886  14.245   4.002  0.1184 -0.0650 -0.1100
 8056W        W23525  16.533  12.832  15.626  0.4296 -0.1664  0.0685
 8057W        W23526  15.311   5.711  11.094  0.0298 -0.0995  0.1995
 8058W        W23527  14.248   6.933  11.604 -0.0286  0.1024 -0.3157
 8059W        W23528   3.258   2.149  12.396 -0.3093  0.1051  0.1721
 8060W        W23529   3.105  14.023   6.481  0.0684  0.0073 -0.0882
 8061W        W23530   2.448   8.494   4.009  0.0943 -0.2381  0.0437
 8062W        W23531  17.801   7.076  15.938 -0.0422 -0.2392 -0.2895
 8063W        W23532   5.196  16.960   0.306  0.0517 -0.1969  0.1131
 8064W        W23533   2.076   8.885   0.356  0.4310 -0.0757  0.0656
 8065W        W23534   5.989  13.571   2.262 -0.0068 -0.0664  0.0790
 8066W        W23535   2.560   2.169   2.941 -0.1693  0.0565 -0.0689
 8067W        W23536  16.329   4.571  15.690 -0.1085  0.3124 -0.0090
 8068W        W23537   4.954  11.525   5.616 -0.0069  0.0024  0.0662
 8069W        W23538  10.100  15.190   2.256  0.4229 -0.1691 -0.0971
 8070W        W23539  11.512   1.541   4.258  0.1421  0.0045 -0.0402
 8071W        W23540   7.968   6.072   1.628 -0.1351 -0.0637  0.0444
 8072W        W23541  15.097  18.455  12.391 -0.0199  0.3145  0.0165
 8073W        W23542   9.184   1.144  12.098  0.1483 -0.2026  0.0438
 8074W        W23543   9.426  13.802   3.596 -0.2738  0.1949  0.0859
 8075W        W23544  15.215   2.912  13.828  0.3640  0.3720  0.0899
 8076W        W23545   0.247   9.941   3.047  0.1754 -0.3361  0.2692
 8077W        W23546  13.536  12.305  15.494 -0.0292  0.3359  0.1997
 8078W        W23547  17.050   7.130  13.582  0.0929 -0.0388  0.5888
 8079W        W23548  12.756   3.933  14.280 -0.0481  0.2484  0.0815
 8080W        W23549   6.411  15.610  15.325  0.2272  0.0010 -0.4493
 8081W        W23550  11.123  15.229  10.743  0.0362 -0.0334  0.0077
 8082W        W23551   1.491   4.341   5.750 -0.0420  0.0039 -0.0707
 8083W        W23552   4.525   8.272   0.702  0.1091 -0.0130 -0.1322
 8084W        W23553  17.820   3.097  14.987 -0.3039 -0.1981 -0.0804
 8085W        W23554  13.679   9.148   2.688 -0.4334 -0.0041 -0.2371
 8086W        W23555  10.429  14.056  12.868 -0.0885 -0.6878 -0.0327
 8087W        W23556   4.563  10.134  12.600  0.0248  0.1571 -0.0925
 8088W        W23557  14.925   8.729  13.646 -0.1877  0.0290 -0.1406
 8089W        W23558  13.605  18.400   4.414  0.2317 -0.0774 -0.2060
 8090W        W23559   4.859  16.078  14.567  0.1977  0.0233  0.0562
 8091W        W23560  16.048  12.822   3.989  0.1410 -0.0079 -0.1244
 8092W        W23561  16.958  16.802  11.874 -0.1135  0.2519 -0.0818
 8093W        W23562  12.087  12.239  10.280 -0.2506 -0.1746  0.0676
 8094W        W23563  13.958  15.741   2.543 -0.1570  0.0445 -0.2907
 8095W        W23564  11.818   9.317   2.558 -0.1058  0.2049  0.0078
 8096W        W23565   9.528   6.042  11.418 -0.2906 -0.0234 -0.0592
 8097W        W23566  16.285  10.050   1.078  0.0355 -0.0269  0.1360
 8098W        W23567   6.054  17.723   1.414  0.1330  0.2068  0.0569
 8099W        W23568   2.844  16.369  10.899 -0.4638 -0.0109 -0.1434
 8100W        W23569   0.065   2.416  13.794  0.2178  0.2399  0.0812
 8101W        W23570  10.813   1.521  13.424  0.2013  0.0319  0.2226
 8102W        W23571  15.640  12.669  12.452  0.4189  0.2469  0.2238
 8103W        W23572   3.609   0.478   1.832  0.1742  0.0069 -0.1113
 8104W        W23573   0.024   5.357  14.821 -0.1270  0.1371 -0.3663
 8105W        W23574  16.683  17.410  12.869  0.2212  0.1493  0.1565
 8106W        W23575  13.926   2.898  11.398 -0.0298 -0.0161  0.0143
 8107W        W23576   1.463   0.486  14.979 -0.1726  0.2664 -0.1810
 8108W        W23577   2.297  12.512   4.837 -0.3865  0.4157 -0.0493
 8109W        W23578  15.807  11.013  13.650  0.0574 -0.0017  0.2535
 8110W        W23579  13.337   2.383   0.888 -0.0867  0.1488 -0.1010
 8111W        W23580   4.605   7.584  12.984  0.0064 -0.2649 -0.1768
 8112W        W23581   7.230   6.308   4.402 -0.3577 -0.1608  0.1383
 8113W        W23582  10.584   9.768   1.591  0.0982 -0.3454 -0.4234
 8114W        W23583   6.288  11.400  15.170  0.2609  0.3351  0.0775
 8115W        W23584   3.635  11.111   1.213  0.0443  0.1019  0.1927
 8116W        W23585  15.246  17.546   1.155 -0.0284  0.3017 -0.2144
 8117W        W23586   2.012  13.007  13.846 -0.0616  0.0639 -0.1694
 8118W        W23587   7.567   2.910  13.513  0.4951  0.2775  0.1075
 8119W        W23588   9.483   8.484  15.909 -0.0166  0.2263  0.0358
 8120W        W23589  15.295  15.536  13.573 -0.1131 -0.1948 -0.0491
 8121W        W23590  15.110   6.755   0.664  0.1236  0.0550  0.2045
 8122W        W23591  14.666  13.894  14.687  0.1472 -0.4020  0.1144
 8123W        W23592   9.294   9.878   2.027  0.1721 -0.0145 -0.5221
 8124W        W23593   2.077   6.025   2.999  0.2860  0.3847 -0.1725
 8125W        W23594  13.564   8.834   3.017 -0.0082 -0.1841  0.0567
 8126W        W23595   7.815   8.325  14.144 -0.0892 -0.1805  0.2213
 8127W        W23596   3.795  10.874  15.330 -0.3919  0.0224  0.1788
 8128W        W23597   7.730   7.195  13.567  0.0627 -0.1451  0.1210
 8129W        W23598  10.784   1.026  13.791  0.0718  0.0257 -0.2120
 8130W        W23599   3.156  10.317  15.598 -0.0724 -0.1219 -0.1413
 8131W        W23600   8.277   6.271  12.098 -0.1637 -0.0651  0.1231
 8132W        W23601  14.794  16.451   1.783  0.1956  0.0514 -0.0684
 8133W        W23602   7.207   3.248  11.684 -0.2986  0.3604 -0.0809
 8134W        W23603   8.462  12.896   3.688 -0.0678 -0.4239 -0.0241
 8135W        W23604  10.277  13.134  12.573 -0.0515  0.1463  0.0178
 8136W        W23605   7.492   4.648  15.810 -0.4217 -0.1276  0.2443
 8137W        W23606   4.506  14.682  13.825 -0.2424 -0.2174 -0.0615
 8138W        W23607  16.949   9.454   1.014  0.0035  0.0128  0.1567
 8139W        W23608  14.736   6.085   1.945 -0.0861  0.0972 -0.0483
 8140W        W23609   9.827   9.855   2.137  0.1679 -0.2321  0.0798
 8141W        W23610  11.613  12.527   4.408 -0.1704  0.3018  0.0705
 8142W        W23611  10.095  17.186   5.049  0.3084 -0.0291 -0.1136
 8143W        W23612   3.097   4.630  15.329  0.1455 -0.3824 -0.0618
 8144W        W23613  15.154   8.741  10.492 -0.0748 -0.1835  0.1068
 8145W        W23614  10.137   6.446   4.782 -0.1630  0.2242  0.0815
 8146W        W23615   1.306   2.294  13.837  0.1826  0.0279  0.3624
 8147W        W23616   4.055  11.642   2.183 -0.0749 -0.1609 -0.0123
 8148W        W23617   2.649  17.351   4.836  0.0987 -0.1703 -0.1206
 8149W        W23618   9.600   5.911   4.533  0.0894  0.2656  0.0676
 8150W        W23619   8.735  11.659   4.392 -0.2447 -0.1389 -0.0242
 8151W        W23620   6.357   9.884  12.330  0.2041  0.2197 -0.0620
 8152W        W23621   3.926  12.716  13.159 -0.1424  0.0252 -0.1165
 8153W        W23622  14.916  12.930  12.764  0.4763  0.0289  0.0745
 8154W        W23623  12.925   7.570  12.129 -0.0572 -0.1744  0.2414
 8155W        W23624  14.491  16.591   5.074 -0.0499 -0.0357 -0.1956
 8156W        W23625  14.223   4.159   0.303  0.0436  0.2333 -0.0079
 8157W        W23626  11.874  11.885   0.744 -0.1687  0.0940 -0.0107
 8158W        W23627   8.744  16.381  11.371 -0.0397 -0.1392  0.0692
 8159W        W23628   6.278  15.836  12.930 -0.0026 -0.1822  0.1025
 8160W        W23629  11.000   2.271   4.722 -0.1059 -0.1445  0.3240
 8161W        W23630   7.044  16.024   0.382 -0.2563 -0.0794  0.1183
 8162W        W23631   8.377  13.151   5.192 -0.0792 -0.1978 -0.0049
 8163W        W23632   0.360  15.755   0.881  0.1207 -0.5150  0.3371
 8164W        W23633   4.855   2.756   3.806 -0.1401  0.2679  0.0407
 8165W        W23634   0.943  12.869  15.896 -0.0638  0.1566  0.0388
 8166W        W23635   6.320   2.107  15.747 -0.2615 -0.0972  0.0240
 8167W        W23636   6.481  17.311  13.774  0.0151  0.0944  0.0013
 8168W        W23637   7.573  15.771   3.025  0.0620 -0.1568  0.1286
 8169W        W23638   0.970   4.569  15.938 -0.0914  0.0374  0.2275
 8170W        W23639  15.897  10.266  14.162  0.1725  0.0039  0.0156
 8171W        W23640   7.779   6.988   3.951 -0.0918  0.1410 -0.0309
 8172W        W23641   2.475   7.048   0.323 -0.2612 -0.3675  0.1991
 8173W        W23642   6.043  17.157   4.532 -0.0020 -0.0058 -0.4068
 8174W        W23643   1.466   4.676  12.540 -0.1275  0.0004 -0.0229
 8175W        W23644   9.650  13.081   0.904  0.0801 -0.0426 -0.2907
 8176W        W23645   0.647  16.873   1.502 -0.2736  0.0493 -0.0624
 8177W        W23646   4.789   9.720   4.342 -0.0915 -0.3842  0.0698
 8178W        W23647  13.607  10.365  11.371  0.1299 -0.2580 -0.0242
 8179W        W23648  17.501   8.273   4.096  0.1032  0.0421  0.0479
 8180W        W23649   0.772   2.013  15.122  0.1326 -0.0998 -0.0560
 8181W        W23650   0.274   1.974  15.491 -0.4574  0.2245 -0.1311
 8182W        W23651  16.420  15.795  13.336 -0.2197  0.1966 -0.2162
 8183W        W23652   4.071   9.412  10.283 -0.0920  0.2339  0.2675
 8184W        W23653  17.337  13.824  15.092  0.2874  0.0320  0.3964
 8185W        W23654   7.946  18.256  10.401 -0.2894 -0.0828  0.0104
 8186W        W23655   9.432  15.907  11.044  0.0808  0.0478 -0.0130
 8187W        W23656  11.365   0.941  11.231  0.4795 -0.4832 -0.0596
 8188W        W23657   3.604   4.193   4.676  0.1688  0.0084 -0.3071
 8189W        W23658   0.041  13.205  12.782 -0.0709 -0.2290  0.0516
 8190W        W23659  16.843   7.730   4.064 -0.1132  0.1477 -0.0676
 8191W        W23660   3.233   4.531  13.663  0.0761  0.3442  0.1064
 8192W        W23661   7.012  11.609  15.045 -0.2459  0.1591 -0.0164
 8193W        W23662   6.282  10.943   3.959 -0.1517 -0.0725  0.1319
 8194W        W23663   3.750   8.920   3.807  0.0969  0.0722 -0.0809
 8195W        W23664  15.329   1.717   0.721  0.1169  0.0793 -0.1797
 8196W        W23665   1.137   1.940  15.977 -0.1276 -0.1055  0.0783
 8197W        W23666  12.149   7.763   1.788  0.1236 -0.2248  0.0609
 8198W        W23667  11.401  12.659   3.476  0.2810  0.2755  0.0095
 8199W        W23668  17.571  15.682  11.245  0.3488  0.0594 -0.3500
 8200W        W23669  14.840  17.184  13.099  0.0119  0.0395  0.4294
 8201W        W23670   6.530  12.581  11.398  0.2527  0.3480 -0.2690
 8202W        W23671  17.717   5.654  11.625 -0.0170 -0.0476 -0.0540
 8203W        W23672   8.563  14.283   2.708 -0.0032  0.0739 -0.2330
 8204W        W23673   6.462   2.084   3.909 -0.1926  0.1563  0.0773
 8205W        W23674   5.775   6.228  15.433  0.3199  0.1103  0.3671
 8206W        W23675   0.064   0.750  10.932 -0.0211 -0.4668  0.0390
 8207W        W23676   3.298   1.434   2.140  0.2042  0.0936 -0.2153
 8208W        W23677   0.631  17.595  11.199  0.1134 -0.1860  0.4152
 8209W        W23678   4.621   6.307  14.726 -0.1775  0.3074  0.1408
 8210W        W23679   0.707   0.612  12.218  0.1257 -0.0446  0.1688
 8211W        W23680   5.706   3.732   2.784 -0.0536  0.0373  0.1179
 8212W        W23681  11.788   2.992   1.606  0.0414 -0.1429  0.0422
 8213W        W23682  13.195   4.210   4.558  0.0142  0.3106 -0.3107
 8214W        W23683   1.721  11.530  15.843  0.2677  0.1809 -0.3025
 8215W        W23684   3.506  15.805  13.355 -0.0105  0.4016  0.0919
 8216W        W23685  12.976  13.621  14.548  0.1227 -0.1095 -0.0366
 8217W        W23686  15.331  11.959   0.485 -0.2536 -0.1348  0.0088
 8218W        W23687   5.886  11.288   4.514  0.0100  0.2280  0.2360
 8219W        W23688  10.319   2.868   2.142  0.3521  0.1699  0.0027
 8220W        W23689  14.375   4.242  13.191 -0.2153  0.0932 -0.2165
 8221W        W23690  17.728   6.314  15.685  0.0413 -0.3650 -0.1683
 8222W        W23691  16.024  13.608   4.541  0.2555 -0.0561  0.0075
 8223W        W23692  17.045  15.683  14.209 -0.1059 -0.1282  0.1651
 8224W        W23693   6.476  18.136   1.869 -0.2253 -0.1914 -0.2831
 8225W        W23694  13.898  15.658  14.043  0.1980  0.4291 -0.2072
 8226W        W23695   2.369  17.160   9.813  0.0542 -0.0566  0.0609
 8227W        W23696   1.548   4.048  11.953 -0.0237 -0.0542 -0.2080
 8228W        W23697  15.689  16.190   4.295 -0.4620  0.1838  0.0446
 8229W        W23698  17.430   2.695   0.986 -0.0922 -0.2660 -0.1749
 8230W        W23699   3.282   7.720   1.197 -0.1115  0.1099 -0.0407
 8231W        W23700   0.522   9.420  14.926 -0.0743  0.2486 -0.0281
 8232W        W23701  10.497   0.055   4.734 -0.0296  0.1399  0.0175
 8233W        W23702   7.792  14.251  14.072  0.0150 -0.2149  0.3262
 8234W        W23703  15.774  17.400   3.380 -0.4005 -0.2727  0.0476
 8235W        W23704  14.243  13.016  15.506 -0.0311  0.0789 -0.2660
 8236W        W23705  11.387  17.327   2.689  0.0229  0.2936  0.2441
 8237W        W23706  10.015  14.763  15.199  0.2768 -0.1054 -0.1406
 8238W        W23707   1.145   8.986   4.195  0.2132 -0.0371 -0.2404
 8239W        W23708  12.871   3.869   4.321  0.0195 -0.1730  0.1972
 8240W        W23709   9.509   9.888   2.541  0.1553 -0.0495 -0.1969
 8241W        W23710  10.778  12.889   4.232  0.4958  0.2933 -0.0343
 8242W        W23711   7.172  15.464  12.652  0.2201  0.1232 -0.0672
 8243W        W23712  13.213  16.158  16.004  0.0217  0.0905  0.2295
 8244W        W23713   6.621  11.118   5.071  0.1255 -0.0030  0.2129
 8245W        W23714   1.072  17.957   4.588 -0.0549 -0.0138  0.2412
 8246W        W23715  12.067  10.900  15.510 -0.2632 -0.1699 -0.0068
 8247W        W23716   2.864  10.024   1.995  0.0351  0.2251 -0.3939
 8248W        W23717  14.905  14.771   0.275  0.0332 -0.0010 -0.1031
 8249W        W23718   4.615  13.866   2.097 -0.4769  0.0339 -0.0563
 8250W        W23719   6.224   7.264  13.989 -0.1732 -0.0318 -0.0762
 8251W        W23720   8.648   7.247  14.853  0.3443 -0.4349  0.0383
 8252W        W23721  15.063   4.816  13.300  0.0144 -0.0923  0.4691
 8253W        W23722   9.358   1.379   0.932 -0.0512 -0.0774 -0.0310
 8254W        W23723   2.869   1.868  13.237 -0.2257 -0.0562 -0.2866
 8255W        W23724  14.199   5.008   6.414 -0.2092 -0.1350 -0.2870
 8256W        W23725  17.449  10.363  14.188 -0.1036  0.1497  0.1182
 8257W        W23726  12.857   9.749   2.773  0.1504 -0.0705 -0.0699
 8258W        W23727  11.210  12.147   1.335  0.0650 -0.0676  0.1245
 8259W        W23728   2.138  18.330  15.529  0.0202 -0.0325 -0.0299
 8260W        W23729   4.319  11.852   1.801  0.0165 -0.2102 -0.0707
 8261W        W23730  11.246   8.809  15.743  0.0311  0.1574  0.2574
 8262W        W23731   8.896   5.206  10.995 -0.2153 -0.3776 -0.0787
 8263W        W23732  15.951  12.108  14.688 -0.2588 -0.0393 -0.1831
 8264W        W23733  11.902  17.546  13.122  0.0462  0.3086 -0.3087
 8265W        W23734  17.052   1.763   0.743  0.0170 -0.0049 -0.0788
 8266W        W23735  17.762   6.082   0.916  0.0599 -0.0766  0.0182
 8267W        W23736  13.050   0.716  15.427  0.0408 -0.1213 -0.2296
 8268W        W23737   8.548  17.289   0.492 -0.1388 -0.1205 -0.2189
 8269W        W23738   2.689   0.192  14.694  0.1526 -0.2928  0.0929
 8270W        W23739   2.015  11.295   1.506 -0.2515  0.3373 -0.0640
 8271W        W23740   8.946  13.028  12.959  0.1177  0.4003  0.1200
 8272W        W23741  10.492  14.105  14.086 -0.2123 -0.2354 -0.2022
 8273W        W23742   8.409   4.688  15.303  0.0454 -0.1919 -0.5727
 8274W        W23743  12.383  12.346  14.879  0.1589 -0.2406  0.0662
 8275W        W23744   7.152   8.842  12.688 -0.1180  0.0114  0.0555
 8276W        W23745  17.682   0.236   2.220 -0.1757 -0.1568  0.0216
 8277W        W23746  12.300  13.619  12.908  0.0442 -0.0405 -0.2492
 8278W        W23747   6.077  15.021   2.771 -0.0447 -0.1918  0.2410
 8279W        W23748  15.799  12.316  14.228  0.0226  0.3096  0.1264
 8280W        W23749   6.928   0.164  12.863 -0.1864 -0.0968 -0.0115
 8281W        W23750  17.013   2.230   1.490 -0.0027 -0.1643 -0.3359
 8282W        W23751  12.188   4.049   2.864  0.1360  0.4761  0.1326
 8283W        W23752   9.230  11.914  11.124  0.1051 -0.1462 -0.0053
 8284W        W23753  13.083   4.787   3.550  0.2264  0.0030 -0.0548
 8285W        W23754  17.663  14.897   1.132  0.3048  0.0815 -0.0476
 8286W        W23755   7.898   7.302   2.648 -0.2464 -0.0855  0.1916
 8287W        W23756   4.255  13.735   0.222  0.1955 -0.0784 -0.0057
 8288W        W23757  14.297   4.092   4.199 -0.1002 -0.2473  0.1052
 8289W        W23758  12.408   8.196  12.484 -0.1926 -0.0275  0.0228
 8290W        W23759   5.533  10.880  15.973  0.1234  0.3618 -0.0769
 8291W        W23760  14.234   5.239   5.084  0.0084  0.1334  0.0322
 8292W        W23761  12.007   8.632   2.961  0.0994  0.0216  0.1488
 8293W        W23762  18.297   5.785  15.213 -0.1062  0.0471 -0.2026
 8294W        W23763  13.752   6.046   3.110  0.4352  0.2842  0.2827
 8295W        W23764   1.069  15.584   0.171 -0.2316  0.1908  0.2320
 8296W        W23765   2.247  13.995   0.572 -0.3181  0.1132  0.2110
 8297W        W23766  12.609   3.232  13.572 -0.0859  0.1152  0.0012
 8298W        W23767  13.054  15.425  10.964  0.1402  0.1811 -0.3789
 8299W        W23768   0.508   3.272  15.703 -0.2996 -0.1487  0.1811
 8300W        W23769  13.370  13.204  13.233 -0.2295 -0.4778 -0.0111
 8301W        W23770   4.935   7.162   3.547  0.3116  0.0563 -0.0075
 8302W        W23771   9.504   4.432   2.831  0.0484 -0.2516 -0.1539
 8303W        W23772  15.369   6.572   3.145 -0.2239 -0.1133  0.0154
 8304W        W23773  16.637   0.610   6.020  0.1043 -0.1729  0.3249
 8305W        W23774  13.309  14.494   4.276  0.1123  0.0453  0.1470
 8306W        W23775  17.800   5.744   4.518  0.1752  0.1272 -0.2255
 8307W        W23776   5.490  10.563   1.889  0.0352 -0.3199 -0.3525
 8308W        W23777  11.865   8.142   0.778  0.0217  0.0018 -0.0333
 8309W        W23778  17.140   8.383   2.068 -0.0302 -0.0452 -0.1110
 8310W        W23779  12.713   4.443   4.857 -0.0278  0.2263 -0.1631
 8311W        W23780   4.276   1.582   2.044  0.0187 -0.4684  0.0489
 8312W        W23781  13.358  18.075   4.766 -0.0938 -0.3358 -0.2822
 8313W        W23782   9.973   3.447   5.198 -0.3457 -0.0239  0.1382
 8314W        W23783   2.192   9.946  15.422 -0.1580  0.1047  0.0235
 8315W        W23784   0.298   6.812   0.245 -0.0033 -0.2334 -0.0897
 8316W        W23785   8.373   9.316   1.783 -0.0904 -0.1892  0.3948
 8317W        W23786  10.227  17.259   0.965  0.0024 -0.3570  0.0343
 8318W        W23787  17.228  15.914  15.746 -0.2241 -0.3666 -0.1247
 8319W        W23788  14.583   4.698  15.436 -0.1741  0.3473  0.0152
 8320W        W23789  12.428  13.563   3.804 -0.1318  0.2717 -0.5393
 8321W        W23790   9.183  13.105   2.597  0.3448 -0.4298  0.3803
 8322W        W23791   5.452  14.469   0.832 -0.1025  0.0134  0.0297
 8323W        W23792   9.956   0.777   2.357  0.1635 -0.1069 -0.2072
 8324W        W23793   3.465  10.203   5.085 -0.2973 -0.2644 -0.0811
 8325W        W23794   8.326   7.152   2.492  0.0455  0.0241 -0.3137
 8326W        W23795   8.827   4.244  12.253 -0.2738 -0.0036 -0.2774
 8327W        W23796  10.808   4.861   3.482  0.1335  0.1918 -0.0653
 8328W        W23797  11.624  11.963   0.114 -0.3908 -0.2647 -0.2802
 8329W        W23798   1.036   6.353   2.379 -0.1185  0.2434  0.1202
 8330W        W23799   7.755  15.965   3.638  0.1196  0.2213  0.1042
 8331W        W23800   2.993  17.718  12.517  0.0269  0.3382 -0.1554
 8332W        W23801   2.396   9.438  11.873  0.0798  0.0491 -0.2171
 8333W        W23802   5.813  17.974   3.793 -0.0279 -0.0530 -0.5900
 8334W        W23803  17.816   7.572  15.696  0.0570 -0.3127  0.0371
 8335W        W23804  12.441   5.807   3.626  0.1159 -0.0385 -0.0142
 8336W        W23805  12.935   3.389  10.482 -0.0739  0.0754  0.0459
 8337W        W23806   5.424  11.400   0.054  0.0778  0.2220 -0.3250
 8338W        W23807  18.016   2.114   3.987  0.2518 -0.0796 -0.2035
 8339W        W23808  10.352   0.778   0.564 -0.2721  0.3028  0.2177
 8340W        W23809  18.288   8.604   0.443 -0.0085  0.3978  0.0590
 8341W        W23810   8.654   0.642   0.188 -0.0255  0.1959  0.0647
 8342W        W23811   6.088  12.167   4.182  0.1030  0.3463 -0.0616
 8343W        W23812  14.383  14.057   3.002 -0.1043  0.1044 -0.1004
 8344W        W23813  12.698   2.742   5.651 -0.1802  0.1206  0.1096
 8345W        W23814   0.979   7.798   3.257 -0.1776  0.0476  0.1686
 8346W        W23815   7.185  16.906   3.941  0.0478 -0.1300 -0.0449
 8347W        W23816   7.342   0.589  13.972  0.4542  0.0959  0.0579
 8348W        W23817  15.714  10.124   4.083  0.1137  0.1604  0.0828
 8349W        W23818   7.229   1.943  13.450 -0.0267 -0.0323 -0.1118
 8350W        W23819   2.881   6.425  11.662  0.1949 -0.2641 -0.0086
 8351W        W23820  10.573   8.316  14.031 -0.2200 -0.0438  0.0153
 8352W        W23821   5.665   8.565  12.446 -0.3288  0.2021  0.1888
 8353W        W23822  13.305   9.693   1.762  0.3091  0.1716 -0.0699
 8354W        W23823  13.165   7.900   2.181  0.1554  0.0320 -0.0963
 8355W        W23824  13.448   5.526   0.967  0.0261  0.4038 -0.2818
 8356W        W23825  13.468  15.998  15.607 -0.0720 -0.0462 -0.2826
 8357W        W23826  15.631   4.857   0.927  0.1905  0.3695  0.1614
 8358W        W23827   5.113  10.547  14.502  0.0751 -0.2947  0.1674
 8359W        W23828   8.450  10.482  14.036 -0.1700  0.0591  0.1010
 8360W        W23829  11.899   1.776  13.350 -0.0841 -0.0693 -0.0231
 8361W        W23830  16.533   1.254   4.502 -0.0881 -0.1664 -0.0537
 8362W        W23831   8.297  17.764  11.230  0.2479 -0.0875  0.0748
 8363W        W23832  10.921  10.232   1.526 -0.1616 -0.1360  0.0740
 8364W        W23833  10.006   6.549  13.017 -0.0821  0.0082 -0.1107
 8365W        W23834  15.851  13.433  15.455 -0.2750 -0.1902  0.2197
 8366W        W23835   9.617   3.466   1.271 -0.0271 -0.2369 -0.0941
 8367W        W23836  14.628   6.773  12.026 -0.1195 -0.1635  0.0893
 8368W        W23837  17.944   8.407   0.049 -0.2170  0.0846  0.2671
 8369W        W23838   7.410  11.761   2.385 -0.1321  0.0151  0.1136
 8370W        W23839   9.999   9.313   0.161  0.0536  0.1224  0.1294
 8371W        W23840   2.732  17.381   1.979 -0.1703 -0.0937  0.0305
 8372W        W23841   0.292  15.963  12.171 -0.1480 -0.1560 -0.2324
 8373W        W23842  17.073  12.672  15.535 -0.0316 -0.0169 -0.0266
 8374W        W23843  11.316   2.084  14.352 -0.0092 -0.2050  0.0244
 8375W        W23844  13.757  10.022   4.178  0.1265 -0.2768 -0.0793
 8376W        W23845   8.041  12.127  12.347 -0.0871 -0.1255 -0.1888
 8377W        W23846  12.905  14.146   1.290 -0.0531  0.1711 -0.1145
 8378W        W23847  13.153   7.398   5.925  0.2172 -0.1030 -0.0938
 8379W        W23848   1.147  14.600  13.097  0.0590 -0.0047 -0.3097
 8380W        W23849   7.996   6.711  13.933 -0.2354  0.0898 -0.2892
 8381W        W23850   2.613   8.193   4.713 -0.0654 -0.0305 -0.0241
 8382W        W23851  11.560   0.035   0.163  0.1839 -0.1085  0.0644
 8383W        W23852  10.511   3.356  15.561  0.3642  0.0887 -0.0499
 8384W        W23853   4.697   0.489  10.758 -0.0740  0.4923 -0.0068
 8385W        W23854  15.805  12.447  15.063  0.0573  0.3107 -0.0812
 8386W        W23855  16.335  12.191  15.079  0.1274 -0.4638  0.1648
 8387W        W23856  17.462  10.754  14.551 -0.2222  0.1175 -0.2801
 8388W        W23857  15.525   0.170  11.469 -0.0357  0.0888  0.0428
 8389W        W23858   9.579  16.074  12.795  0.1310  0.1618 -0.2590
 8390W        W23859  16.185  16.838  15.537  0.0445  0.0974 -0.1739
 8391W        W23860   7.424   1.236   5.110 -0.2558  0.2210 -0.0631
 8392W        W23861   3.362  13.838  12.661 -0.2048  0.0283 -0.0800
 8393W        W23862   4.294  14.609  15.025  0.1693 -0.3346  0.0875
 8394W        W23863  18.425  13.629   1.006 -0.1927  0.0107  0.3739
 8395W        W23864   5.246  16.951   3.919  0.1882  0.0954 -0.1244
 8396W        W23865   7.294  11.084  15.831 -0.0161  0.1157  0.1328
 8397W        W23866  10.162   3.064   2.979 -0.0829  0.0563  0.1757
 8398W        W23867  13.744  14.913  11.359 -0.0622 -0.2108 -0.2231
 8399W        W23868   2.480  14.988  12.607  0.1124 -0.2185 -0.4233
 8400W        W23869  18.292   5.045   3.403  0.0612  0.0956  0.1739
 8401W        W23870  12.317   6.191   2.292  0.0306 -0.0666  0.1710
 8402W        W23871   1.093   4.975   5.448 -0.0521 -0.5781  0.0394
 8403W        W23872   5.392  16.557  12.195 -0.1517 -0.0158  0.2467
 8404W        W23873   0.399   0.339   2.930 -0.2201 -0.0536  0.0736
 8405W        W23874   6.936  17.805   2.629  0.1377 -0.0675  0.1765
 8406W        W23875   5.502   5.781  14.710 -0.1743 -0.0073 -0.1204
 8407W        W23876  10.081   0.793   1.089 -0.2930 -0.3731 -0.2545
 8408W        W23877  10.772  16.230   1.395 -0.1384  0.2320 -0.1520
 8409W        W23878   1.000  17.864  15.368 -0.3981 -0.0928 -0.2080
 8410W        W23879   3.815  10.625   1.196  0.1951  0.0871 -0.0534
 8411W        W23880  14.831  10.221   4.084 -0.0295  0.0806 -0.0242
 8412W        W23881   3.867  16.065   3.796  0.4057 -0.2694 -0.1688
 8413W        W23882  18.387  14.864   0.531  0.0568  0.1933 -0.2887
 8414W        W23883   8.977  14.204  13.320 -0.2294 -0.1544 -0.1911
 8415W        W23884   7.947  15.753   0.440 -0.1846 -0.2208  0.1048
 8416W        W23885   2.329   2.706   0.893  0.0939  0.0353  0.0279
 8417W        W23886   6.731   1.013  10.926  0.2740  0.2730  0.0744
 8418W        W23887  18.159   4.759  12.968 -0.0905  0.0509 -0.1294
 8419W        W23888   5.158  15.750   9.557  0.0086 -0.0938 -0.1456
 8420W        W23889  10.649   3.730   5.657 -0.0895 -0.0494 -0.1973
 8421W        W23890   0.713   9.628   5.478  0.2801 -0.1132 -0.1024
 8422W        W23891  14.132   5.736  12.004  0.0692 -0.2479 -0.3322
 8423W        W23892   9.434   1.623   3.128 -0.1224 -0.0015  0.2987
 8424W        W23893   9.993  13.424  14.704 -0.0037 -0.0769  0.0364
 8425W        W23894  14.677   6.286   0.126  0.0016 -0.0652 -0.2131
 8426W        W23895   3.790   6.465  12.969  0.1827  0.0642  0.2463
 8427W        W23896  12.016  15.236  12.511 -0.0152 -0.0666 -0.4509
 8428W        W23897  14.713  17.969   5.521  0.2625 -0.0197  0.2468
 8429W        W23898  12.272   4.682  10.315 -0.0141  0.1474  0.3081
 8430W        W23899   9.785   0.942  11.164  0.4663  0.2632 -0.1034
 8431W        W23900   5.591  15.184  12.825 -0.0130  0.1389  0.0641
 8432W        W23901   5.283   0.765   2.533  0.0720 -0.1511  0.0324
 8433W        W23902   4.859   5.057   2.539  0.0202  0.2390  0.0914
 8434W        W23903  17.093  17.678  12.016  0.0595  0.4829  0.0245
 8435W        W23904  17.620  17.477   2.274 -0.2623  0.1085  0.1083
 8436W        W23905   0.671  15.018  14.059  0.1253  0.2182  0.1823
 8437W        W23906  10.430  10.107   4.467 -0.1769  0.1813  0.4967
 8438W        W23907  18.304   2.859   3.723  0.0322  0.0779  0.0995
 8439W        W23908   4.360   8.820   6.111 -0.1696 -0.2319 -0.1581
 8440W        W23909  18.409   7.599  14.588 -0.0332 -0.0069 -0.1099
 8441W        W23910   0.989   8.568   3.277  0.1208  0.0312  0.1676
 8442W        W23911   4.072  15.637  12.297 -0.3328 -0.4657  0.3007
 8443W        W23912   9.587  13.322  12.157  0.2679 -0.1962 -0.1048
 8444W        W23913  15.153   5.660  15.127  0.0921 -0.0738 -0.3194
 8445W        W23914   7.875   2.064  11.415  0.0463  0.0589 -0.0861
 8446W        W23915   3.743  17.911   1.527  0.0150  0.2896 -0.1677
 8447W        W23916   4.758   2.511  13.663 -0.0637 -0.1362  0.0323
 8448W        W23917   8.012   9.293   1.383 -0.1992 -0.0647  0.0012
 8449W        W23918   6.114  10.734   0.410  0.0177 -0.0730 -0.2900
 8450W        W23919  10.532  14.773  11.705  0.1278  0.0786  0.0909
 8451W        W23920   6.787  14.984  14.719  0.0940 -0.2312 -0.1889
 8452W        W23921   8.613  17.600  12.252  0.2392  0.2042 -0.0005
 8453W        W23922  12.306   6.491  15.307  0.0101 -0.1556  0.0957
 8454W        W23923  10.765   3.942   2.706  0.1940 -0.1527  0.1558
 8455W        W23924   2.988  14.169  14.573  0.0857  0.1264  0.0598
 8456W        W23925   1.450   1.232   4.849 -0.0605  0.0009  0.1535
 8457W        W23926  11.863  13.812   0.407 -0.0762 -0.0685  0.0379
 8458W        W23927   2.738  15.543  12.062 -0.0289 -0.1313 -0.1919
 8459W        W23928  14.192  15.731   5.438 -0.0871 -0.0141  0.2491
 8460W        W23929  14.500  14.881   1.151 -0.0372 -0.1381 -0.0857
 8461W        W23930   1.735   6.072   4.885  0.1220  0.0255 -0.0813
 8462W        W23931  15.426   3.840  11.396 -0.0407  0.1128 -0.4218
 8463W        W23932  10.777   7.593  10.998  0.0084 -0.0230 -0.1557
 8464W        W23933   7.392   2.676   0.061  0.1442 -0.2821 -0.1169
 8465W        W23934  10.657   9.487  13.178  0.0150 -0.1212 -0.1061
 8466W        W23935  14.664  12.186  12.197  0.1166 -0.2798 -0.0984
 8467W        W23936  16.983   4.154   4.427 -0.2151 -0.0780 -0.0458
 8468W        W23937   1.885   7.372   4.182  0.3494 -0.0486  0.4831
 8469W        W23938   5.800   0.162  13.157  0.1396 -0.3115  0.0158
 8470W        W23939  12.281   2.703   3.165 -0.1855 -0.1561  0.0886
 8471W        W23940   1.815  11.354  13.906  0.2821  0.1851 -0.1866
 8472W        W23941  12.419  14.970   3.536  0.1065  0.1007 -0.1047
 8473W        W23942  14.268  11.897  14.502  0.1021  0.2610 -0.1123
 8474W        W23943   0.560   5.996  14.159  0.0842  0.0092  0.1410
 8475W        W23944  12.354   1.091   0.640 -0.0407 -0.0122 -0.2580
 8476W        W23945   1.624  17.189   4.657 -0.0121 -0.0816  0.1304
 8477W        W23946  17.657  17.907  14.375 -0.0991 -0.0064  0.1469
 8478W        W23947   1.489   2.373  14.945  0.1162  0.0555  0.1080
 8479W        W23948   5.884   7.657   3.426  0.0337 -0.0274 -0.2174
 8480W        W23949  12.150   4.142  12.412  0.0842  0.1524  0.0542
 8481W        W23950  15.708  14.431   2.513  0.1864  0.0134 -0.2722
 8482W        W23951  14.607   7.832  13.415  0.4131 -0.0564  0.2478
 8483W        W23952  17.894   7.281   0.537 -0.0580 -0.1377 -0.2294
 8484W        W23953   1.642   7.442  14.644 -0.1936 -0.2328  0.0822
 8485W        W23954  14.100  11.542  14.081  0.2314  0.0494  0.1286
 8486W        W23955   5.258  11.203  15.661 -0.0521  0.0570 -0.0452
 8487W        W23956   3.662   4.855   1.477 -0.0801 -0.0080 -0.0743
 8488W        W23957   0.229   3.789   2.995  0.0194  0.1488  0.0086
 8489W        W23958  14.051  18.187  10.800  0.0324 -0.1417 -0.1119
 8490W        W23959   9.901  14.616   9.913 -0.0479  0.1081 -0.0502
 8491W        W23960   1.307   4.847   4.445 -0.4188  0.1050  0.0285
 8492W        W23961  18.427   3.131   1.860  0.1334 -0.5112 -0.2770
 8493W        W23962   3.057  10.931  12.729 -0.0160  0.2914  0.2325
 8494W        W23963   8.724   5.715   1.758 -0.0709 -0.0051 -0.0342
 8495W        W23964  13.423   9.754  13.750  0.0108  0.0603 -0.2865
 8496W        W23965   8.123  12.210   1.898  0.2145  0.0470 -0.1386
 8497W        W23966   6.431  13.595  11.421  0.2093 -0.2300 -0.0553
 8498W        W23967  15.041  13.723   4.890 -0.0283  0.3252 -0.2243
 8499W        W23968  10.931   2.649  14.989  0.2221 -0.0899 -0.2573
 8500W        W23969   0.076  11.751   2.655  0.2047 -0.0439 -0.0741
 8501W        W23970  17.816  12.723  15.019  0.0731  0.1138  0.2146
 8502W        W23971  12.558   1.414  15.871 -0.1431  0.0814  0.0803
 8503W        W23972   9.983   4.829   4.472 -0.2491 -0.1077 -0.2186
 8504W        W23973  14.749   2.797   0.000  0.0882  0.2118 -0.0902
 8505W        W23974   4.460  18.012  10.534 -0.4154  0.0224 -0.2599
 8506W        W23975   0.322  13.615  13.873  0.1108 -0.1753 -0.0785
 8507W        W23976   6.819   8.867   5.156  0.1024  0.4635 -0.1635
 8508W        W23977  14.527   5.373   3.602  0.5968 -0.1574  0.2417
 8509W        W23978   9.958  10.233   3.020  0.2646  0.0280  0.1081
 8510W        W23979   6.083  17.201  15.870  0.0687  0.0153  0.0382
 8511W        W23980   0.861   3.421   4.743 -0.1399 -0.0802 -0.3587
 8512W        W23981  11.187   4.662   4.421  0.3011  0.0143 -0.0113
 8513W        W23982   2.395  11.794   3.299 -0.0754 -0.1386 -0.2289
 8514W        W23983  14.968   9.106   4.848  0.0564 -0.0429  0.1432
 8515W        W23984  16.351  14.000  14.920 -0.1300  0.2978  0.0238
 8516W        W23985   7.860   4.798   4.626 -0.0392  0.0508  0.1961
 8517W        W23986  15.404  16.321  15.208  0.0329  0.1227  0.2290
 8518W        W23987   2.842   1.721  12.355 -0.0968 -0.0325  0.1591
 8519W        W23988   0.697  14.509  13.268  0.0562  0.2266 -0.0135
 8520W        W23989   9.293  17.039  13.587 -0.1791 -0.0399  0.2462
 8521W        W23990   9.118   4.901  15.702  0.2600 -0.2203 -0.0106
 8522W        W23991  13.014  17.289   1.965  0.0230 -0.1857 -0.0923
 8523W        W23992   3.400  12.985  14.106 -0.2732 -0.0185  0.2706
 8524W        W23993   9.504  13.944   4.511 -0.1133  0.2586 -0.0497
 8525W        W23994  10.254  14.450   3.452  0.1700 -0.1580 -0.1021
 8526W        W23995   0.384   4.481  15.172 -0.0131  0.1904 -0.4316
 8527W        W23996   8.047   3.813   4.937 -0.0646 -0.0987 -0.1834
 8528W        W23997   2.170  15.973  15.861  0.0191  0.0900 -0.1896
 8529W        W23998   4.956   4.886  12.165 -0.1169  0.0101  0.0561
 8530W        W23999   0.357   9.854   1.397 -0.2510 -0.1181  0.1698
 8531W        W24000  15.509   0.437   0.524  0.1178 -0.2416  0.3563
 8532W        W24001   2.139   3.351   4.065  0.1656 -0.1900  0.0899
 8533W        W24002  14.583   9.397  13.045 -0.0569  0.0442  0.2425
 8534W        W24003   0.901   0.299   2.818  0.2889  0.1991 -0.0297
 8535W        W24004   4.089  16.425   3.406  0.3527  0.1440  0.0668
 8536W        W24005  14.955  14.178   2.808 -0.0540  0.2391  0.1360
 8537W        W24006   7.334   0.107  15.779 -0.0582 -0.0605  0.0538
 8538W        W24007   1.948   4.321  11.421 -0.3107  0.2111 -0.5190
 8539W        W24008   9.960   0.129  15.681  0.2862  0.0199 -0.1181
 8540W        W24009  15.471  14.743   1.457 -0.0106  0.3077  0.1072
 8541W        W24010  10.356   7.757   4.902 -0.1219 -0.0031 -0.1488
 8542W        W24011   5.436   6.625   5.091  0.0754 -0.0866  0.3381
 8543W        W24012   9.508  13.852  12.636 -0.2235 -0.0202 -0.2113
 8544W        W24013  18.370  14.462  14.619 -0.1776  0.1111 -0.1377
 8545W        W24014   2.109   0.410   2.995 -0.1220  0.0918  0.0159
 8546W        W24015   6.388  17.497   3.199  0.1887 -0.0859  0.1569
 8547W        W24016   7.282  13.677   1.436  0.0532 -0.1309 -0.2248
 8548W        W24017  11.446   8.971  12.885 -0.1206  0.0969  0.0924
 8549W        W24018  17.374  12.608  14.783 -0.0290  0.2242 -0.1231
 8550W        W24019  13.723  18.120   0.287 -0.0113  0.2404 -0.0736
 8551W        W24020   6.748   4.800   3.683  0.2721 -0.2289  0.0006
 8552W        W24021   6.831  10.329   6.138  0.1683 -0.1047 -0.0817
 8553W        W24022  16.496  16.834  11.623 -0.1647 -0.1484 -0.3053
 8554W        W24023  11.442   5.100   4.259  0.0594  0.0191  0.1541
 8555W        W24024   4.192   8.866   4.028 -0.0007 -0.0447  0.1748
 8556W        W24025   1.156   7.703  15.009 -0.3622  0.1671 -0.0733
 8557W        W24026  13.875   1.922  14.232  0.0944 -0.4173  0.0247
 8558W        W24027   1.850  17.171  11.171  0.0287  0.2826 -0.2202
 8559W        W24028  11.303   9.917   0.659  0.2852  0.0913  0.2816
 8560W        W24029   4.000   8.318   3.279 -0.1154 -0.1051  0.1648
 8561W        W24030   5.830   1.402  15.341 -0.0018 -0.1317 -0.3725
 8562W        W24031  11.092   3.660  13.369  0.2906  0.0827 -0.2390
 8563W        W24032  10.540  10.592  12.698  0.0315  0.0363  0.0039
 8564W        W24033   4.865   9.803   5.175 -0.1027  0.0909  0.2045
 8565W        W24034   4.685   3.555  12.446 -0.0379 -0.3609 -0.2481
 8566W        W24035   6.433  10.040   1.309  0.0307 -0.0506 -0.0976
 8567W        W24036   7.950   2.305   4.014  0.2587 -0.1502 -0.0251
 8568W        W24037  16.742   2.562   4.003 -0.0028 -0.3113  0.1700
 8569W        W24038   3.279   9.943  14.516  0.1209 -0.2968  0.0836
 8570W        W24039   4.448  17.983   1.587  0.0742 -0.1443 -0.0918
 8571W        W24040   8.827  15.676   2.275 -0.2393  0.0636 -0.0431
 8572W        W24041   6.520   0.650   1.919 -0.0174 -0.4523 -0.0389
 8573W        W24042   9.057   0.398  13.492 -0.1634 -0.0116  0.0503
 8574W        W24043  10.010   5.499  12.654 -0.1748 -0.0524  0.2130
 8575W        W24044   7.931  17.080  10.695 -0.0091  0.0274 -0.1258
 8576W        W24045   7.231   1.502   4.720  0.1857  0.0320  0.0385
 8577W        W24046   3.691  15.567  12.673 -0.1145 -0.0221  0.1014
 8578W        W24047  10.426  11.951  11.737 -0.0931  0.0204  0.0403
 8579W        W24048  13.209   4.074   5.685  0.2935  0.2328 -0.1312
 8580W        W24049  15.258   4.790   1.232  0.3032  0.1997 -0.2200
 8581W        W24050   0.611  10.260   2.879  0.2534 -0.1187 -0.1834
 8582W        W24051   7.632   4.765   1.877  0.0428  0.3904 -0.0241
 8583W        W24052   7.729  10.843  14.109  0.0810  0.0496 -0.0212
 8584W        W24053  16.500  13.778  10.118 -0.2790 -0.0260 -0.0358
 8585W        W24054  10.897   1.412   0.387 -0.0836  0.1216 -0.2064
 8586W        W24055   7.276   8.235   1.862 -0.1801  0.2910 -0.2045
 8587W        W24056  10.834   5.141   2.255  0.1347  0.2608  0.2341
 8588W        W24057   3.537   7.029  15.075 -0.0623  0.3241  0.1391
 8589W        W24058   1.893   8.678  12.436  0.1330 -0.0355  0.0103
 8590W        W24059  15.159  11.982  12.303  0.1789  0.0317 -0.2493
 8591W        W24060   3.992   4.458   3.334  0.0929 -0.2068 -0.1369
 8592W        W24061  16.764   6.010   2.158 -0.0088 -0.3448 -0.3016
 8593W        W24062   2.361   5.251  12.404  0.2040 -0.1031  0.0130
 8594W        W24063   1.807  10.445   0.580  0.1263  0.1343  0.0599
 8595W        W24064   1.392   8.444  12.131 -0.2771 -0.2093  0.0297
 8596W        W24065   3.984  10.083   1.744 -0.1275 -0.0061  0.0836
 8597W        W24066   8.859   8.104   4.112  0.1047 -0.1993 -0.0958
 8598W        W24067   8.765  11.809  15.125  0.2074  0.0609  0.0040
 8599W        W24068  11.136   2.523   2.837 -0.0319  0.0394 -0.2656
 8600W        W24069   2.639  13.762   0.829  0.0774  0.1073 -0.0301
 8601W        W24070   9.486   4.564  15.408 -0.4437  0.0746 -0.1038
 8602W        W24071  13.104  17.495   1.507  0.0568  0.2255  0.0370
 8603W        W24072   9.348  12.687   3.402 -0.2039 -0.2317 -0.2442
 8604W        W24073   4.622  12.726   0.781  0.2129  0.1472 -0.0883
 8605W        W24074  18.175   4.519   1.447  0.3372 -0.0075 -0.2048
 8606W        W24075   6.254  16.655   2.182  0.0007  0.0773  0.1195
 8607W        W24076  18.009   8.002  12.485  0.0086  0.2603 -0.0439
 8608W        W24077  12.696   0.667  11.978  0.2540 -0.1337  0.1060
 8609W        W24078   0.399   8.701   4.770  0.2383 -0.3652 -0.0462
 8610W        W24079  10.728   9.323  15.009  0.2074 -0.0403 -0.2023
 8611W        W24080  16.119  11.110  14.535 -0.1116 -0.0816  0.0695
 8612W        W24081   6.170   5.952  15.608  0.1657 -0.0806 -0.3767
 8613W        W24082  11.278   9.345  13.225 -0.3476 -0.4528 -0.0027
 8614W        W24083  16.776   9.268   3.001 -0.0517 -0.3781  0.2784
 8615W        W24084   5.949  17.731   3.016  0.1239  0.0447  0.0237
 8616W        W24085  11.295   6.999  12.206 -0.0958 -0.4366  0.1887
 8617W        W24086   9.287   4.563   4.625  0.2461  0.3121  0.1637
 8618W        W24087   9.478   9.121   4.195 -0.3624 -0.1371  0.3461
 8619W        W24088  17.473   7.412  12.630 -0.1337 -0.0204 -0.0387
 8620W        W24089  14.450  11.959   4.055 -0.0045  0.0141  0.0738
 8621W        W24090   1.031  14.159   5.031  0.3101  0.2718  0.1155
 8622W        W24091   4.499   0.498   4.972  0.3617  0.3209  0.1715
 8623W        W24092  16.221   7.017  15.211 -0.0907 -0.2496 -0.1301
 8624W        W24093   9.320   4.004  12.122  0.1177 -0.0818  0.3368
 8625W        W24094   4.555  13.130  14.909 -0.1810  0.2120  0.0220
 8626W        W24095  15.154  11.258   1.735  0.1945  0.1469  0.0073
 8627W        W24096  12.012   0.017  12.847  0.0905 -0.1472  0.1145
 8628W        W24097  17.462   2.385   0.157  0.0359 -0.1342 -0.2580
 8629W        W24098  13.182   1.623  15.622  0.1155 -0.0006 -0.1633
 8630W        W24099  12.899  17.793  11.569  0.3589 -0.1493 -0.0586
 8631W        W24100   3.741   6.399  14.405  0.3506  0.0422 -0.0828
 8632W        W24101  10.148   2.672  15.199  0.1909 -0.2555 -0.1026
 8633W        W24102   6.724  12.801   3.774  0.0004  0.0810  0.1526
 8634W        W24103   0.182  10.047   2.031  0.0670 -0.2596  0.0662
 8635W        W24104   5.703   2.179  12.313  0.4842  0.0160 -0.1193
 8636W        W24105  18.248   3.957   2.770  0.4593 -0.0951 -0.2037
 8637W        W24106   6.018  10.536   1.463  0.2404  0.3267  0.0757
 8638W        W24107   1.698  17.815   5.399 -0.3451  0.0382 -0.0151
 8639W        W24108  11.838  14.679   6.156  0.0021 -0.0680  0.0405
 8640W        W24109   9.465  10.761  14.164 -0.2254 -0.0100 -0.1047
 8641W        W24110   5.835   6.339   4.987 -0.1944  0.1593  0.1326
 8642W        W24111   2.477   5.399   0.031  0.1441  0.4434  0.0471
 8643W        W24112   0.937  13.863  11.973 -0.4445  0.0393  0.0040
 8644W        W24113  16.107   3.157   2.821  0.0434  0.0125 -0.1374
 8645W        W24114   3.847   3.082   3.153 -0.1003  0.1209  0.1175
 8646W        W24115   2.943   7.382   5.722  0.1296  0.1208  0.0137
 8647W        W24116   8.110  13.329  14.457  0.1458  0.0947 -0.1637
 8648W        W24117  11.326   9.470   0.437 -0.2690 -0.0841  0.0489
 8649W        W24118  16.685   7.621  10.356 -0.1269 -0.1576 -0.1349
 8650W        W24119  16.550  17.366   1.635  0.2238  0.0994 -0.2007
 8651W        W24120  18.385   6.366  12.960  0.0938 -0.0216 -0.3252
 8652W        W24121  15.224   4.798   3.592  0.1262  0.2091  0.2032
 8653W        W24122   8.150  18.142  13.047 -0.0591  0.0817 -0.1130
 8654W        W24123  17.336  10.810  15.260 -0.3447  0.0537 -0.1182
 8655W        W24124   6.910   6.475   4.092  0.2184  0.0542  0.0008
 8656W        W24125   3.877  11.709  14.991  0.2154 -0.0430  0.0734
 8657W        W24126  12.030   8.426  12.224  0.3951 -0.0296 -0.4985
 8658W        W24127  12.951   1.043  14.886 -0.1318 -0.3521  0.0278
 8659W        W24128  14.527   0.494   3.916  0.0898 -0.0467 -0.3050
 8660W        W24129   3.252  18.403   4.835 -0.1116  0.0599  0.2193
 8661W        W24130   0.668   5.011   5.647  0.0624 -0.0216 -0.1362
 8662W        W24131   4.508   5.260   0.762 -0.0015  0.3436  0.0840
 8663W        W24132   6.925  13.749  10.221  0.2554 -0.1106  0.1981
 8664W        W24133  14.582   7.290  14.473 -0.1310 -0.2561 -0.1114
 8665W        W24134  14.610  11.389  12.707 -0.0033 -0.0461 -0.0586
 8666W        W24135   2.275   3.656  11.279  0.0684  0.2851 -0.0446
 8667W        W24136  13.877   4.494  12.492  0.1216  0.0965  0.2758
 8668W        W24137   8.897  14.126  15.206  0.0546  0.1462  0.2166
 8669W        W24138   4.796  13.884  13.197 -0.1553  0.1365 -0.1037
 8670W        W24139  17.830   5.347   1.620 -0.1994  0.1725 -0.3759
 8671W        W24140   9.885  18.010  12.670 -0.1546 -0.0861  0.2302
 8672W        W24141   4.124   9.596  12.290  0.0468 -0.1574  0.0365
 8673W        W24142   9.656  10.667   0.928  0.0738 -0.1395  0.0738
 8674W        W24143   2.943   3.596  15.359 -0.0023  0.0764  0.1984
 8675W        W24144   7.035  15.661  11.945  0.1862 -0.0426 -0.0655
 8676W        W24145  16.258   1.751   5.326 -0.1508  0.0732  0.0433
 8677W        W24146  14.955  11.887  10.768  0.0637  0.0648 -0.0425
 8678W        W24147  11.063  12.012  12.446  0.1029 -0.1150  0.0693
 8679W        W24148  10.008   1.962   4.262  0.2118 -0.2686  0.3934
 8680W        W24149   9.785  12.888  12.621  0.2107  0.1431 -0.0245
 8681W        W24150  17.929   5.397  14.156 -0.0588  0.0291  0.1326
 8682W        W24151  10.968  12.748   3.674  0.1670 -0.1446 -0.0786
 8683W        W24152   3.874   1.810   3.254  0.0144 -0.1880 -0.0096
 8684W        W24153   6.729  10.293  15.830  0.3052 -0.0939 -0.1934
 8685W        W24154  10.800   5.432  13.295 -0.2736 -0.3675 -0.1137
 8686W        W24155   5.921   9.050   3.575  0.2757  0.2687  0.0488
 8687W        W24156  12.347   8.213   4.237  0.3630  0.1759  0.2965
 8688W        W24157  10.732   9.024   2.212 -0.1795  0.1607 -0.1451
 8689W        W24158  11.426   2.192  10.633 -0.2702  0.2717  0.3329
 8690W        W24159   4.172  16.059   0.379 -0.0385  0.1603 -0.1340
 8691W        W24160   3.137   5.744   4.891  0.1546  0.0562  0.0346
 8692W        W24161   8.680  11.396  14.669 -0.0787 -0.2419 -0.0183
 8693W        W24162  15.981  13.843   1.661  0.1179 -0.2012  0.2012
 8694W        W24163  11.317   6.434   2.033 -0.3019 -0.0046  0.0434
 8695W        W24164   9.041   0.523   1.738  0.1425  0.3810 -0.1656
 8696W        W24165   5.923  14.931  13.243 -0.2910  0.2823  0.4554
 8697W        W24166   0.463   7.449   3.057 -0.1248 -0.1321 -0.0743
 8698W        W24167  11.154  12.005   0.230  0.0133  0.1210 -0.1847
 8699W        W24168  11.815  12.827   3.328  0.3612 -0.1498  0.0429
 8700W        W24169  16.642   1.865   0.241 -0.1708  0.1827  0.0217
 8701W        W24170   4.868   7.762  13.493 -0.1114 -0.1098 -0.0490
 8702W        W24171   1.915   6.236  11.029  0.1424 -0.1276 -0.2222
 8703W        W24172  12.655   9.148   0.240 -0.1190  0.3398 -0.0125
 8704W        W24173   7.370   9.430   0.701 -0.3072 -0.2174  0.2418
 8705W        W24174   2.093   1.066   4.998 -0.0021  0.1579  0.2390
 8706W        W24175   0.486   3.751  12.222  0.0114 -0.3254 -0.0149
 8707W        W24176  11.504   7.825   1.066  0.0988  0.1540  0.0792
 8708W        W24177  14.903  11.228  14.267  0.3586 -0.2712  0.4527
 8709W        W24178   9.962  13.835   2.615  0.4086 -0.2201  0.2013
 8710W        W24179  12.179   5.954  14.532 -0.1968 -0.0521  0.0487
 8711W        W24180  12.205   8.088  14.658 -0.1422  0.0744  0.0856
 8712W        W24181  15.049  17.720   3.631 -0.1211 -0.0939  0.0946
 8713W        W24182  15.617   9.530  13.698 -0.3448 -0.2087 -0.0832
 8714W        W24183   7.247   8.649   0.942 -0.1464 -0.1165 -0.1218
 8715W        W24184   2.824  10.140   0.373 -0.2794  0.0002 -0.3458
 8716W        W24185  15.041   4.919  12.712 -0.0395  0.3200  0.0796
 8717W        W24186   9.223  17.768  15.290 -0.1462 -0.0634 -0.4326
 8718W        W24187   5.652   6.463   3.748 -0.0744  0.0032 -0.0594
 8719W        W24188  12.345  12.187   0.838 -0.2473 -0.0932  0.2179
 8720W        W24189   5.953   4.535   5.935  0.0776  0.1039 -0.2601
 8721W        W24190   9.697  13.516   1.834 -0.0597 -0.0276 -0.0798
 8722W        W24191   4.961  11.859  14.822 -0.2137  0.0692 -0.1164
 8723W        W24192   8.585   3.698   5.783 -0.0653 -0.0734 -0.0328
 8724W        W24193   8.767  14.746  13.456 -0.0199 -0.1006 -0.4609
 8725W        W24194   9.435  17.257  15.125 -0.1884 -0.2889 -0.4287
 8726W        W24195  12.982   0.262   5.202  0.2610  0.1835 -0.0824
 8727W        W24196   6.257  13.885   4.774  0.1025  0.1513 -0.3833
 8728W        W24197   2.607   3.822  13.264  0.0613 -0.0271  0.0758
 8729W        W24198   0.930  14.272   4.567 -0.2003  0.0658 -0.0670
 8730W        W24199   1.342  14.584   1.372  0.1355 -0.0604  0.0026
 8731W        W24200   3.185   8.254   2.007  0.1370 -0.1083  0.1620
 8732W        W24201  11.774   9.277   0.289 -0.0250  0.2693  0.3100
 8733W        W24202   7.010  18.209  15.012 -0.2049 -0.0672  0.1940
 8734W        W24203   0.586   5.709   3.421 -0.0721  0.1234 -0.0975
 8735W        W24204   6.871   0.990   0.156  0.3188 -0.0972 -0.0195
 8736W        W24205  11.976  15.688  14.164 -0.1172 -0.5416  0.0001
 8737W        W24206  13.789   2.547  15.615 -0.1554  0.0980 -0.0960
 8738W        W24207   8.296   6.363  13.741  0.2496 -0.2123  0.1890
 8739W        W24208   8.353  16.348   1.095 -0.0663  0.1915  0.2541
 8740W        W24209  17.363  15.340  10.892 -0.0536  0.1962  0.0218
 8741W        W24210  10.229   8.739  14.097 -0.1782  0.0105 -0.2405
 8742W        W24211   5.925  13.817   1.828 -0.0704 -0.3970 -0.1844
 8743W        W24212   4.429  13.060  13.061  0.1905 -0.0690  0.2750
 8744W        W24213  17.203   1.007  15.755  0.0815 -0.3191  0.1407
 8745W        W24214   3.327   0.043   2.077  0.1555  0.1753 -0.0237
 8746W        W24215   1.125   2.902   0.865 -0.0366 -0.1477  0.0780
 8747W        W24216   1.094  13.209   1.313 -0.1731 -0.0021  0.0566
 8748W        W24217  11.505   9.013   2.948 -0.2289 -0.0092 -0.1533
 8749W        W24218   1.185  15.591   3.329 -0.0160  0.3824  0.0115
 8750W        W24219   5.019  13.148   3.310  0.0230 -0.1000  0.2204
 8751W        W24220   0.071  12.447  13.195 -0.1381  0.2939  0.2263
 8752W        W24221  11.848   9.489  15.780 -0.3730 -0.0190 -0.0311
 8753W        W24222   9.132   6.780  11.791  0.2397  0.0387  0.2643
 8754W        W24223   4.583  16.773   1.008 -0.2512 -0.1107 -0.0222
 8755W        W24224   0.626   0.625   2.008  0.1535 -0.4795 -0.1376
 8756W        W24225   9.822   2.567  14.093 -0.1376 -0.1406 -0.1811
 8757W        W24226   7.853   0.256  10.605 -0.1161  0.0479  0.0349
 8758W        W24227  17.164   0.557   3.847 -0.0741 -0.2291  0.2665
 8759W        W24228  13.026   8.137   2.968 -0.0493  0.2612  0.1069
 8760W        W24229  12.958   2.064   2.722 -0.0862 -0.1105  0.0898
 8761W        W24230  10.953  12.919   4.713 -0.2315  0.0761 -0.1726
 8762W        W24231  11.557  10.517  15.929 -0.2400 -0.0159  0.1524
 8763W        W24232  14.697  11.551   0.997  0.0189 -0.1004  0.4380
 8764W        W24233   3.044  17.251  12.398  0.1098  0.2772 -0.0423
 8765W        W24234  17.182   9.833   0.801  0.0114 -0.1454 -0.1465
 8766W        W24235   1.459  10.678   3.083 -0.0262 -0.1150  0.2211
 8767W        W24236   2.567   3.318   5.077 -0.2016  0.1203  0.1879
 8768W        W24237   4.788   6.574  11.222 -0.0974  0.2403 -0.1912
 8769W        W24238  13.211   1.109   2.587 -0.0088  0.2670  0.0039
 8770W        W24239   6.254   0.819  14.766 -0.1893  0.1315 -0.4128
 8771W        W24240  17.195  17.697   4.462 -0.4405 -0.2548 -0.0527
 8772W        W24241  18.311   0.303  13.024  0.0731 -0.0057  0.3179
 8773W        W24242   6.818   7.924   1.317  0.1076 -0.0202 -0.0181
 8774W        W24243  17.392  15.307  12.670 -0.2489 -0.2297 -0.0622
 8775W        W24244  11.404  16.243   4.286 -0.0234 -0.0058 -0.1336
 8776W        W24245   7.066   4.066  11.223  0.2707  0.0621 -0.3333
 8777W        W24246   7.708   1.410   1.255  0.0588  0.1499  0.0818
 8778W        W24247   4.236   3.842   1.891  0.1194 -0.2639  0.2285
 8779W        W24248   2.125   7.385   6.263  0.0471 -0.2477  0.2413
 8780W        W24249   4.400   2.945  15.424 -0.0051  0.5198 -0.2112
 8781W        W24250  15.588   5.891  13.192  0.0236  0.0340 -0.0580
 8782W        W24251   2.308  13.856   4.986  0.2073  0.2254  0.1329
 8783W        W24252   1.245   2.023   1.990 -0.0816  0.0604  0.4565
 8784W        W24253  14.325   3.486   2.678  0.0525  0.0863  0.2348
 8785W        W24254  11.256   6.092   0.572 -0.1472 -0.1132 -0.0791
 8786W        W24255  17.233  16.542   0.528 -0.0298 -0.2171  0.1820
 8787W        W24256  15.080  13.618  15.470 -0.0479  0.2210  0.2404
 8788W        W24257   9.910   4.219   2.555  0.0549  0.1649  0.1989
 8789W        W24258   3.046   9.604  14.864 -0.0895  0.3389  0.0276
 8790W        W24259  10.349  13.814  15.616  0.0431 -0.2729  0.1420
 8791W        W24260   5.791   2.209   0.787  0.2004  0.2131 -0.1594
 8792W        W24261  13.284  17.989  13.180  0.0084 -0.4108 -0.0592
 8793W        W24262   1.276  16.341   2.322 -0.4257  0.3000  0.1484
 8794W        W24263   8.563   5.978   1.203  0.2342 -0.0635 -0.0969
 8795W        W24264   7.927  12.332  14.319  0.2103 -0.2999  0.0246
 8796W        W24265   8.834  15.958  13.189  0.1649  0.0424 -0.0174
 8797W        W24266   7.461  12.714   1.646 -0.0051 -0.4437  0.0249
 8798W        W24267   3.523   4.640   1.928 -0.0762 -0.1232 -0.0433
 8799W        W24268   4.722   1.668   1.048  0.0380  0.0588  0.0818
 8800W        W24269  16.493  16.728  14.101 -0.2686 -0.1913 -0.1255
 8801W        W24270  16.465   0.218  12.695 -0.2134 -0.0008  0.4247
 8802W        W24271  14.130   2.757   1.815 -0.1812 -0.2432  0.0023
 8803W        W24272  16.365  16.838  12.160 -0.1550  0.0575  0.0102
 8804W        W24273   7.084   8.941   2.241  0.0398 -0.1027  0.1993
 8805W        W24274   2.897   9.679  13.486 -0.1158 -0.2335  0.0742
 8806W        W24275   1.546   4.725  14.603 -0.3859 -0.1368  0.0429
 8807W        W24276   7.318   1.518   1.893  0.1400  0.1434 -0.5492
 8808W        W24277   2.686   1.247   4.234  0.3503  0.2790  0.0724
 8809W        W24278  10.540  14.827   0.346 -0.1382 -0.0618 -0.3595
 8810W        W24279   1.988  10.215   3.986  0.0792  0.2675  0.0258
 8811W        W24280   4.821  12.159   4.960  0.0549  0.2876  0.1047
 8812W        W24281  17.804   2.631  15.083 -0.0162  0.2609 -0.0760
 8813W        W24282   6.563   5.390   0.339  0.0429  0.2533  0.1543
 8814W        W24283  12.155   5.333   5.317  0.0145  0.0921 -0.1858
 8815W        W24284  15.796  13.145   4.670  0.0290  0.1046 -0.5827
 8816W        W24285  13.905  16.379   2.977  0.1110 -0.1634 -0.2641
 8817W        W24286   5.871   9.169  11.736 -0.0995 -0.2174 -0.3491
 8818W        W24287  13.298  10.280  12.894  0.1186 -0.0877  0.1116
 8819W        W24288   6.046   5.320  15.821  0.3281  0.1156 -0.2614
 8820W        W24289   9.666   1.146  12.158 -0.0602  0.4260  0.0870
 8821W        W24290  12.818   0.766   4.008 -0.0030 -0.1042 -0.0377
 8822W        W24291   2.246  15.592   3.310 -0.1006  0.2049  0.0092
 8823W        W24292   8.958  12.009   3.383 -0.4017 -0.1837 -0.3191
 8824W        W24293  11.224  17.283   1.208 -0.0580  0.0663  0.1367
 8825W        W24294   0.975  10.068  15.277  0.0783  0.2110 -0.0193
 8826W        W24295   7.783   4.726  13.018  0.1276 -0.0030 -0.3450
 8827W        W24296   4.684  16.931   2.471  0.2443  0.2237 -0.0677
 8828W        W24297  10.914   1.617   3.999 -0.1546 -0.1646  0.0185
 8829W        W24298   9.333   7.844   2.925  0.0702  0.1075  0.0938
 8830W        W24299  15.160   2.201  12.636 -0.2896  0.4691  0.2111
 8831W        W24300   3.628   2.246  13.053  0.0712  0.0460  0.3120
 8832W        W24301  14.648   2.471  15.577  0.0100  0.1834  0.3812
 8833W        W24302  15.097   6.252  15.035  0.2046  0.3200  0.0317
 8834W        W24303  12.401  13.197   4.164 -0.0541  0.2351  0.3005
 8835W        W24304   4.260   3.245   4.119 -0.0297  0.0474  0.0158
 8836W        W24305  16.357   0.564  14.018  0.3120 -0.0113 -0.1091
 8837W        W24306   5.261  12.915  11.261  0.0510  0.2436  0.2757
 8838W        W24307  16.234   5.343   4.127 -0.0391 -0.0729  0.0494
 8839W        W24308  13.427  17.919   5.812 -0.1550  0.1456 -0.2650
 8840W        W24309   0.322  17.387   0.530 -0.1786 -0.0864  0.2434
 8841W        W24310   2.607   0.827   1.448  0.1300  0.2042  0.0638
 8842W        W24311   4.189  13.917  12.141  0.0174 -0.1403  0.0659
 8843W        W24312   5.195   9.880   2.361 -0.1963 -0.1194 -0.1505
 8844W        W24313   8.494  11.466  13.506  0.1456  0.1395 -0.1280
 8845W        W24314   7.083   0.927  10.443 -0.0568  0.1593  0.0862
 8846W        W24315  13.562   6.963   2.744 -0.0505  0.0683 -0.3022
 8847W        W24316   4.681  11.976   0.168  0.2059 -0.0388  0.2381
 8848W        W24317   8.057  13.147   3.730 -0.2077 -0.2799 -0.2303
 8849W        W24318  10.457   5.839   2.180 -0.2340  0.2166  0.0338
 8850W        W24319   9.103   3.409   0.250  0.1383 -0.0910  0.1318
 8851W        W24320   3.826  11.365  15.382 -0.1539  0.1305  0.1701
 8852W        W24321  14.252   3.671   0.196  0.0971 -0.4367 -0.1775
 8853W        W24322  13.673  13.242   4.602 -0.2173 -0.0415  0.0467
 8854W        W24323   4.219   7.914   2.868 -0.1438 -0.0044  0.2538
 8855W        W24324   1.042  11.356  13.586  0.0559 -0.2133  0.2277
 8856W        W24325  12.753   7.436  12.938 -0.0063  0.0644  0.0862
 8857W        W24326  11.407   0.421  12.219 -0.0788  0.1585  0.2020
 8858W        W24327  11.407  15.864   4.641  0.1713  0.0619  0.0890
 8859W        W24328   6.014  17.490  11.348  0.2671  0.1552 -0.3446
 8860W        W24329   6.995   7.825   5.440 -0.1947  0.2410  0.1442
 8861W        W24330   4.218  16.823  13.561  0.0663 -0.0620 -0.0929
 8862W        W24331  17.541   4.830  12.128 -0.1090 -0.4133 -0.1063
 8863W        W24332  18.356   3.153   2.375  0.2058 -0.0277  0.5425
 8864W        W24333   1.450  15.620  11.909  0.1978  0.3216 -0.1349
 8865W        W24334   5.662   1.445  10.994 -0.1818  0.2354 -0.1578
 8866W        W24335   4.386   9.249  13.817  0.0341 -0.1164  0.1928
 8867W        W24336   2.761   0.790  13.447 -0.2349 -0.1432  0.4848
 8868W        W24337  15.734   8.530   2.376 -0.0017  0.2646 -0.0718
 8869W        W24338   4.092   6.112  12.495  0.0693  0.0715  0.2170
 8870W        W24339  18.036   3.063  10.787  0.1345  0.2194  0.1920
 8871W        W24340  11.622   6.349  14.855  0.0490 -0.2800  0.0406
 8872W        W24341  15.511  14.327  15.682  0.0411 -0.3653 -0.1534
 8873W        W24342   1.480  11.492   0.651  0.3472 -0.1695  0.1294
 8874W        W24343  17.097  14.032   3.197  0.1960  0.1244  0.1517
 8875W        W24344   5.939  15.832  14.506 -0.3149 -0.2333 -0.0370
 8876W        W24345   9.573   1.953   1.014 -0.1658 -0.1461 -0.0147
 8877W        W24346   0.230   9.674  13.581  0.0023  0.0563  0.2098
 8878W        W24347   1.824   7.922  14.387 -0.0017  0.2485  0.2308
 8879W        W24348   4.916   0.970  10.954  0.1169  0.0274 -0.0276
 8880W        W24349  18.432  16.044  15.457  0.1036 -0.1386  0.0917
 8881W        W24350   7.032   0.071  13.337  0.1388  0.1705 -0.1499
 8882W        W24351  13.420   9.753  15.855  0.0788  0.0173  0.1257
 8883W        W24352  16.274   2.686   3.749  0.1556 -0.0818 -0.1431
 8884W        W24353   6.974   5.670   2.994 -0.0597  0.3322 -0.2366
 8885W        W24354   5.942   5.706   3.583 -0.1255 -0.0972  0.0771
 8886W        W24355   9.760  11.843  13.081  0.3193  0.1776 -0.0342
 8887W        W24356   7.855  16.987   3.904 -0.1079  0.0061  0.1016
 8888W        W24357   9.271   6.472  13.620 -0.0900  0.1481  0.0853
 8889W        W24358  14.919  14.714   2.689  0.0823 -0.1633 -0.0925
 8890W        W24359   9.919   1.469  11.902 -0.1751 -0.0561  0.3078
 8891W        W24360   3.875   0.335  14.377 -0.2248 -0.0211  0.2336
 8892W        W24361  13.424  15.166   3.077 -0.2300 -0.0172  0.2168
 8893W        W24362  15.148   6.469  12.458  0.0609  0.0435 -0.0608
 8894W        W24363  14.210   6.316  12.839 -0.2405  0.0306 -0.1845
 8895W        W24364   4.117   9.593  15.868  0.1688  0.1840 -0.0502
 8896W        W24365   2.410   0.579  11.810 -0.1926 -0.1877  0.0295
 8897W        W24366  15.904  17.074   2.903 -0.3216  0.3862 -0.0017
 8898W        W24367   6.915  16.748   9.964 -0.0325  0.1626 -0.3562
 8899W        W24368   0.129  15.715  14.433  0.1473 -0.2444 -0.0820
 8900W        W24369   3.563  15.203  15.488 -0.1464  0.0685  0.1218
 8901W        W24370   4.732   5.491   0.349 -0.3256 -0.0858 -0.0526
 8902W        W24371   1.537  11.080  14.865 -0.0251 -0.3054 -0.1356
 8903W        W24372  13.452  13.443  12.175 -0.0262 -0.1029  0.0575
 8904W        W24373   5.305   0.644  10.914 -0.2473 -0.1227 -0.0956
 8905W        W24374  10.069  12.563   5.536  0.1291  0.1076 -0.2729
 8906W        W24375  10.030  11.724  10.157  0.0182  0.1666 -0.3514
 8907W        W24376  15.765  17.796  11.552  0.0225  0.0070 -0.0251
 8908W        W24377   5.462  12.075   9.807 -0.0468  0.1153  0.2175
 8909W        W24378   2.783   0.749  11.386  0.0304 -0.0151  0.1840
 8910W        W24379   8.796   1.766   4.148  0.0712 -0.1218 -0.0433
 8911W        W24380   1.658   7.337   1.158  0.3047  0.2704  0.0155
 8912W        W24381   2.464  16.473  14.549 -0.0483 -0.2736  0.0411
 8913W        W24382  13.533   2.243  14.381 -0.1359  0.2594  0.2049
 8914W        W24383  16.183  11.101   0.962  0.0829  0.0412 -0.0235
 8915W        W24384   1.076  10.077   1.822 -0.2157  0.2518  0.0888
 8916W        W24385   0.461   5.603  13.385  0.1379 -0.1137  0.1050
 8917W        W24386  13.205  13.569  14.116  0.0394  0.0203  0.0320
 8918W        W24387   5.409  17.144   1.627 -0.3091  0.1235  0.1792
 8919W        W24388  16.208  15.186   9.805 -0.0301  0.1209  0.0372
 8920W        W24389   2.075   8.694  15.581 -0.1749 -0.4712 -0.0787
 8921W        W24390  14.119   8.389  12.327 -0.0012 -0.2427  0.3506
 8922W        W24391   5.189   4.038   2.012  0.4129 -0.0528  0.1822
 8923W        W24392  10.176  15.027   4.855 -0.0017  0.0130  0.0635
 8924W        W24393  16.305  11.675   0.469  0.0713  0.4352  0.2241
 8925W        W24394   9.936  12.962   1.964 -0.3298 -0.1398  0.1453
 8926W        W24395   5.260   5.005   1.087  0.2240  0.3910  0.4486
 8927W        W24396  18.076   4.186  13.687  0.2881 -0.3771  0.0008
 8928W        W24397   3.385   8.440   3.021 -0.0320  0.1763  0.0443
 8929W        W24398  14.333   9.363  13.813 -0.1720  0.2270 -0.0352
 8930W        W24399   7.043   6.390  14.379  0.0872 -0.2649 -0.1448
 8931W        W24400  17.897   5.145  11.812 -0.3672 -0.0215 -0.0103
 8932W        W24401   6.081  10.261   3.084  0.4223 -0.1314 -0.1273
 8933W        W24402   9.929  17.490   5.506  0.3009  0.1867 -0.1515
 8934W        W24403   3.827   0.450   0.957  0.1717  0.0466  0.1127
 8935W        W24404  12.814   8.012  15.727 -0.2429 -0.3201 -0.4393
 8936W        W24405  12.121   1.068  13.982  0.1561 -0.2300  0.0560
 8937W        W24406   1.628  16.296   2.700 -0.1050 -0.0109  0.1408
 8938W        W24407  12.242  15.349   1.072  0.0673  0.0764  0.0540
 8939W        W24408  14.156   8.791   4.337 -0.0557 -0.1792  0.3421
 8940W        W24409   5.341   1.765  11.408  0.0454 -0.2192 -0.0588
 8941W        W24410   5.371  15.704   4.568  0.0295  0.0529 -0.0427
 8942W        W24411  17.924   5.010  11.300 -0.0138  0.0466  0.0555
 8943W        W24412   5.874   2.091  12.810 -0.4943  0.2127  0.0217
 8944W        W24413   9.347   3.919  13.077  0.0400 -0.2258  0.1726
 8945W        W24414   8.243   3.034  10.422  0.1442  0.0567  0.1249
 8946W        W24415   0.733   7.105  15.838 -0.1305  0.0932  0.0500
 8947W        W24416   3.172  13.445  13.028  0.0979 -0.0777  0.2357
 8948W        W24417  17.395  11.589   2.522  0.4042  0.2416 -0.0146
 8949W        W24418  15.891   0.233   4.132 -0.0022  0.2707 -0.0975
 8950W        W24419  17.501  14.841  14.617 -0.2845  0.0756  0.2177
 8951W        W24420   1.791  18.232  12.049 -0.0390  0.0193  0.1937
 8952W        W24421   0.817   9.289   2.899  0.2104  0.0282  0.2329
 8953W        W24422   6.524  15.683   1.482  0.0239  0.2720 -0.2272
 8954W        W24423  14.445  15.156  14.452  0.0191  0.0123  0.1375
 8955W        W24424  12.935  17.178  12.093  0.0935  0.2938 -0.0628
 8956W        W24425   3.502  17.747   0.062 -0.3077 -0.0061 -0.2589
 8957W        W24426   1.730   0.213   0.317  0.2306  0.0290  0.0697
 8958W        W24427   2.586   7.473  14.210  0.0834  0.0110  0.1488
 8959W        W24428  15.501   3.801  15.450  0.2748 -0.1131 -0.0645
 8960W        W24429  14.118   6.259   1.408  0.0982 -0.1943  0.1952
 8961W        W24430  12.890  11.588  10.811 -0.1184  0.1072  0.1583
 8962W        W24431  11.703   5.668  13.868  0.0804 -0.0698  0.2055
 8963W        W24432  17.576  14.640   2.370  0.1197  0.3807  0.1592
 8964W        W24433   0.455   3.198   1.718  0.0127 -0.0057  0.1332
 8965W        W24434   8.134  12.575  13.097 -0.3716 -0.0839  0.0313
 8966W        W24435   1.264  17.921  12.215 -0.1079  0.1805  0.2756
 8967W        W24436  11.121  15.393  13.979 -0.2230  0.1616  0.0438
 8968W        W24437  17.641   1.797   5.332 -0.0058 -0.0502  0.0373
 8969W        W24438  16.395   1.379  13.608  0.2867  0.0652  0.0107
 8970W        W24439   1.923  14.342  10.610  0.1724  0.2249 -0.0078
 8971W        W24440  13.209  14.527   1.606 -0.0854 -0.1150  0.0083
 8972W        W24441  14.096   0.899  13.528 -0.3160 -0.2644 -0.1612
 8973W        W24442   8.388  10.049  14.302  0.0700  0.2917  0.1714
 8974W        W24443   5.354   7.244  15.908  0.0071 -0.3069 -0.3333
 8975W        W24444   2.402   9.967   2.004  0.0014  0.1830  0.0507
 8976W        W24445  10.321   5.963   4.549  0.2003 -0.1635  0.0079
 8977W        W24446   0.451   1.029   5.095  0.1572  0.1153 -0.0080
 8978W        W24447  12.676  11.680   0.788  0.3824  0.1753  0.2673
 8979W        W24448   3.792  15.482   4.530  0.2199  0.0184  0.0309
 8980W        W24449  11.679   2.159  11.125  0.0951  0.4308  0.2097
 8981W        W24450   6.269   6.432  13.586 -0.1824 -0.0139 -0.3464
 8982W        W24451   6.644   9.285   3.000 -0.2319  0.0484  0.0628
 8983W        W24452   4.489   5.019   0.355  0.1590  0.0968 -0.0229
 8984W        W24453  18.369   9.632  12.348 -0.0556 -0.0610 -0.1023
 8985W        W24454  18.274  17.885  14.254  0.1443 -0.3742 -0.1451
 8986W        W24455  12.936   1.070   5.802  0.0256 -0.1124  0.0699
 8987W        W24456   3.104  11.282   1.000  0.0133  0.1698  0.3920
 8988W        W24457   7.299   9.758  14.246  0.2981  0.0611  0.0405
 8989W        W24458   4.083  15.693  11.234  0.0744 -0.2088 -0.0360
 8990W        W24459  14.829  13.290   3.319 -0.3330  0.1449  0.2590
 8991W        W24460  17.993  15.667  13.641  0.0891 -0.1751  0.2513
 8992W        W24461  12.991   2.135   3.916 -0.3004 -0.5045 -0.1991
 8993W        W24462  10.575  15.283   4.662  0.1516  0.0531  0.2453
 8994W        W24463  18.113   9.892   0.793 -0.2405 -0.1172 -0.1579
 8995W        W24464   3.678   0.148   3.617 -0.3256 -0.2230  0.1124
 8996W        W24465   0.194  14.373   3.179 -0.2875  0.3666 -0.1586
 8997W        W24466  16.592  15.455   0.734  0.1967  0.0993 -0.1226
 8998W        W24467  12.079  12.747   4.237 -0.0758 -0.2884  0.1538
 8999W        W24468   5.294   7.315   1.550  0.0405  0.0728  0.0102
 9000W        W24469  11.883  12.954  11.869  0.0853 -0.1178  0.1530
 9001W        W24470  13.375  10.118   1.025  0.0723 -0.0250 -0.2960
 9002W        W24471  11.265   2.953   5.351  0.1432 -0.2552 -0.3185
 9003W        W24472  18.165  13.763  12.142  0.0162 -0.1898  0.1132
 9004W        W24473  12.559  17.476   3.369  0.1496  0.0289  0.0143
 9005W        W24474   4.584   8.775  11.415 -0.2125  0.0907 -0.2698
 9006W        W24475   4.719  11.126   1.361  0.0617  0.0448  0.0776
 9007W        W24476  16.846  13.879  14.959  0.4596 -0.0170  0.0845
 9008W        W24477  17.693   8.539   4.789  0.0035  0.1400  0.0853
 9009W        W24478  11.775  18.400   4.525  0.0830 -0.0152  0.1584
 9010W        W24479  12.356   2.621   2.318 -0.3685  0.2492  0.3148
 9011W        W24480  14.603   4.715  14.614  0.2131  0.0174 -0.1383
 9012W        W24481  16.066  10.279  15.587  0.2973 -0.2852 -0.0680
 9013W        W24482  13.141  14.116  14.038  0.1945 -0.1355 -0.0864
 9014W        W24483   9.222   0.623  13.084  0.1327  0.4241  0.0287
 9015W        W24484   7.760   4.221   4.782  0.0849  0.3469  0.0080
 9016W        W24485  16.422  11.662   2.077 -0.1496  0.0794 -0.1994
 9017W        W24486  16.237  12.665  13.331 -0.1824 -0.0541  0.3683
 9018W        W24487  11.757   0.509  12.991 -0.0387  0.4494 -0.3873
 9019W        W24488   5.468  12.017   1.805  0.1008  0.0537  0.0299
 9020W        W24489  13.187   9.446  11.067  0.1618  0.4432 -0.0094
 9021W        W24490   5.244   2.755  12.354 -0.1046  0.0610  0.2576
 9022W        W24491  12.501  15.422   2.442  0.0937 -0.0314  0.1057
 9023W        W24492   8.610  10.029  12.189  0.0799  0.3241  0.0255
 9024W        W24493   3.350   9.799   4.751  0.3510  0.0907 -0.1397
 9025W        W24494  16.030   6.012  15.911  0.0845 -0.0539 -0.0730
 9026W        W24495  17.375   7.766   4.049  0.3403  0.3151 -0.0378
 9027W        W24496  10.256  10.947  14.357  0.0747  0.3471 -0.2450
 9028W        W24497  12.923   5.058   2.454  0.0366  0.1766 -0.1464
 9029W        W24498  16.054   8.318  13.313 -0.1623  0.1681 -0.1259
 9030W        W24499  13.720  17.018   2.659 -0.0383  0.1951  0.1389
 9031W        W24500   9.428  11.898   2.492  0.0040 -0.0988  0.1092
 9032W        W24501   3.248   7.665  11.160  0.0356 -0.0128 -0.0309
 9033W        W24502  13.911   7.149  15.176  0.0842 -0.2145 -0.1138
 9034W        W24503  12.930  13.517   3.258 -0.2734 -0.0757 -0.1782
 9035W        W24504   4.608  13.248   4.464  0.1081 -0.1303  0.0979
 9036W        W24505  15.796  15.266   0.056 -0.0850 -0.1651 -0.0562
 9037W        W24506   6.975   3.923  15.986 -0.2118 -0.3556  0.0953
 9038W        W24507   7.542  10.091   4.903 -0.1447 -0.1708 -0.0371
 9039W        W24508   2.417   4.558  14.201 -0.1543 -0.1454 -0.1309
 9040W        W24509  12.895  13.366   4.130  0.1196  0.0725 -0.0441
 9041W        W24510  11.624  17.982  14.189  0.1475  0.0979  0.0738
 9042W        W24511   6.794   0.855   4.386 -0.3881 -0.0546 -0.1693
 9043W        W24512  10.801  15.437   3.818 -0.3155  0.1617  0.0445
 9044W        W24513   9.908   7.812   2.973 -0.1406 -0.3268  0.1323
 9045W        W24514  10.330   1.025   5.139  0.0946 -0.1196  0.0965
 9046W        W24515   8.334   4.398   0.103  0.5447 -0.1590  0.0713
 9047W        W24516   5.778   4.696  10.917 -0.0376  0.0153 -0.0750
 9048W        W24517   8.999   1.820  15.451  0.2579 -0.1035 -0.1015
 9049W        W24518   8.295  11.075   0.091 -0.0822  0.0424 -0.0366
 9050W        W24519   9.154  16.420   2.667 -0.0042 -0.2390  0.3525
 9051W        W24520   9.916  14.714   3.122  0.3475 -0.0321  0.0879
 9052W        W24521  10.676  13.461   4.791  0.3775 -0.3948 -0.3365
 9053W        W24522   5.701   1.461   4.493 -0.3149 -0.1320 -0.1034
 9054W        W24523  15.188  18.294   1.195  0.0583 -0.0128  0.2097
 9055W        W24524   0.104   7.572  13.533  0.0834  0.1938  0.1671
 9056W        W24525   5.625   9.925   1.178  0.1630  0.0829  0.0084
 9057W        W24526  12.619   9.118  13.729  0.1962  0.0710  0.0179
 9058W        W24527   2.964  14.823   3.472  0.1070  0.2076  0.1052
 9059W        W24528  10.007  16.799  11.440 -0.0135 -0.0081 -0.0117
 9060W        W24529  17.527   1.225   1.506  0.0727  0.3327  0.2386
 9061W        W24530  10.761   9.374  11.043 -0.1868 -0.1591  0.2119
 9062W        W24531   6.791   3.798   5.358 -0.3079  0.1308  0.0162
 9063W        W24532  13.699  12.130  11.949 -0.2067 -0.0246 -0.0832
 9064W        W24533  16.034  16.908  13.652  0.1311  0.2029  0.0244
 9065W        W24534   2.259  13.196   1.758  0.3230  0.1388 -0.0420
 9066W        W24535  11.211  15.259  13.002 -0.3371  0.0788 -0.4773
 9067W        W24536  10.298   8.035  11.206  0.2891  0.2931  0.0207
 9068W        W24537   5.901  10.145  14.038 -0.0839  0.0721 -0.1035
 9069W        W24538  18.232   1.685  14.693 -0.1258 -0.0871 -0.0284
 9070W        W24539  17.796  10.141  13.442  0.0946 -0.0853 -0.1551
 9071W        W24540   5.667  17.309   2.700 -0.1053  0.4902 -0.1620
 9072W        W24541   3.787   6.249  11.432  0.2487 -0.0626  0.0257
 9073W        W24542  15.618  18.320   0.440  0.2264 -0.3330 -0.3345
 9074W        W24543   0.042   7.539   4.914  0.0986  0.1043 -0.1957
 9075W        W24544  15.425  11.781  15.275 -0.2804 -0.1121 -0.0330
 9076W        W24545   7.136  18.299  10.641  0.3267 -0.2571  0.2800
 9077W        W24546   2.024   0.252  11.635 -0.0874 -0.0100  0.2005
 9078W        W24547  13.586   1.753  15.892  0.2064  0.1234  0.2011
 9079W        W24548   8.240   9.717  12.008  0.0030  0.0026 -0.2834
 9080W        W24549  11.518  12.800  12.307  0.0484  0.2030  0.0334
 9081W        W24550   1.242   5.403  13.643  0.0721  0.0426 -0.1590
 9082W        W24551  11.459   5.210   0.579 -0.2666 -0.0604  0.1410
 9083W        W24552   7.681   8.303  13.407 -0.0958  0.2576  0.0725
 9084W        W24553   3.310  10.830   0.946  0.0503  0.5059 -0.0370
 9085W        W24554   5.818   2.643  12.499 -0.0159 -0.1656  0.0686
 9086W        W24555   2.039   5.066   4.679  0.2170 -0.0741 -0.2241
 9087W        W24556   2.968   8.525   0.110 -0.1130 -0.0120 -0.1753
 9088W        W24557   4.509   8.005   3.527 -0.2200 -0.0818  0.1607
 9089W        W24558  12.252  10.246   1.007  0.0252  0.0187 -0.0711
 9090W        W24559   0.953   8.079  15.286  0.0134  0.3107  0.1297
 9091W        W24560  13.878   4.433  14.975 -0.1555 -0.0489  0.3964
 9092W        W24561   9.422  10.751   2.211  0.1373 -0.0439 -0.0209
 9093W        W24562   5.143   3.243   0.188 -0.0265 -0.3161 -0.1846
 9094W        W24563   5.522  14.889  15.972 -0.0357 -0.0693 -0.4881
 9095W        W24564  15.635  12.149   1.727 -0.0279 -0.0949 -0.2226
 9096W        W24565  10.045  12.732  11.812 -0.0406 -0.0419 -0.0727
 9097W        W24566  14.923   9.100  11.902  0.0431  0.1774  0.3618
 9098W        W24567  16.606   8.193   2.128 -0.0674  0.1228 -0.0410
 9099W        W24568  11.358   1.966   4.529 -0.1614  0.1166  0.1631
 9100W        W24569   4.389   5.700  13.271  0.0577 -0.0997  0.0517
 9101W        W24570  10.836  13.354   5.461 -0.0308 -0.0642 -0.0472
 9102W        W24571  16.490  18.380   2.501 -0.0769 -0.2724  0.3087
 9103W        W24572  15.319   2.622   3.780  0.1356 -0.0995 -0.0551
 9104W        W24573   2.972   5.000  10.162 -0.0925 -0.3241  0.0134
 9105W        W24574  17.094   1.158  14.762 -0.0456  0.0136  0.1102
 9106W        W24575   6.958   9.361   1.514 -0.1068 -0.0323  0.1998
 9107W        W24576  15.485   4.564   3.148 -0.4194 -0.2290  0.1982
 9108W        W24577   4.264  10.045   2.164  0.1268 -0.2553  0.0677
 9109W        W24578  16.501  12.503  12.215  0.0847 -0.1773 -0.2676
 9110W        W24579  17.541  10.037  10.347  0.2211  0.4914  0.3408
 9111W        W24580  12.226  15.959   3.307 -0.1195  0.2193 -0.1689
 9112W        W24581   9.548  10.916   5.814  0.2898  0.1246  0.1541
 9113W        W24582  12.818   3.258   2.636  0.1203 -0.3132 -0.1207
 9114W        W24583   1.192   1.365  13.349 -0.2872 -0.0662 -0.2579
 9115W        W24584   7.486  16.526  15.522 -0.1719 -0.1756  0.0926
 9116W        W24585  17.994   7.323  12.690  0.0863  0.0749  0.1085
 9117W        W24586   2.538  13.731  15.509  0.0638 -0.0832  0.0567
 9118W        W24587   2.381   1.039  13.089 -0.0362 -0.0734  0.0975
 9119W        W24588   2.007  17.702   0.987  0.0703  0.1800 -0.0030
 9120W        W24589   6.100  13.633   0.427 -0.2668  0.0010  0.2521
 9121W        W24590  14.746   7.794   3.318 -0.0538 -0.1735 -0.4984
 9122W        W24591  14.386   9.274   4.093  0.0614  0.0556  0.0147
 9123W        W24592   2.899   9.355   1.442  0.1420 -0.3480  0.1425
 9124W        W24593   2.372   2.426   0.492  0.1433  0.4197  0.1552
 9125W        W24594   3.029   4.718   4.903  0.3416 -0.2136  0.0235
 9126W        W24595   6.117   4.774  14.175  0.0106 -0.1289 -0.2845
 9127W        W24596   8.317  18.319  15.303  0.1224 -0.0969  0.1544
 9128W        W24597   2.721  16.899   5.171 -0.1336 -0.0363  0.1650
 9129W        W24598  13.514   7.367  12.230 -0.1579 -0.2227  0.1672
 9130W        W24599   1.423   3.143   5.744  0.0176 -0.0429  0.0567
 9131W        W24600  16.013   7.273  13.750 -0.1361 -0.3773 -0.0858
 9132W        W24601   2.001  13.292  14.309  0.0795 -0.0854 -0.1520
 9133W        W24602  12.459   8.837   2.880 -0.2089  0.0141  0.2706
 9134W        W24603  12.612   0.259  11.445  0.1748 -0.0506  0.2661
 9135W        W24604  11.708  10.177  14.184 -0.0476 -0.0840 -0.1478
 9136W        W24605   8.376  17.545   0.903 -0.1898 -0.0223  0.1341
 9137W        W24606   2.913   6.674  14.502 -0.0999  0.1568 -0.2534
 9138W        W24607  13.160   9.755   4.983  0.2921  0.0322  0.1514
 9139W        W24608  16.505   4.044  14.040  0.0354 -0.1441  0.0059
 9140W        W24609  15.641   6.207  15.589 -0.0632 -0.2929 -0.0581
 9141W        W24610   3.512   3.023  13.940  0.2142 -0.0402 -0.0130
 9142W        W24611  10.869   5.711   0.592  0.1666 -0.1318  0.0512
 9143W        W24612   2.229   0.932  15.668  0.0100 -0.2215  0.3164
 9144W        W24613   2.929  15.436  13.212 -0.3532  0.1334  0.1589
 9145W        W24614   6.893   7.066  13.273 -0.0904 -0.0650 -0.2049
 9146W        W24615   3.713   4.123  11.350  0.0059 -0.2999  0.0973
 9147W        W24616   9.658  12.392  11.866 -0.1373 -0.0116  0.2322
 9148W        W24617   6.148  14.290   1.854  0.2333 -0.0712  0.1099
 9149W        W24618   3.787   2.642   3.534 -0.0617 -0.3115  0.3954
 9150W        W24619   0.807  16.389  13.679 -0.1078 -0.0009 -0.4381
 9151W        W24620   8.194   7.852   5.552  0.0581 -0.1718 -0.0197
 9152W        W24621   5.787   3.355  15.854  0.1126 -0.0958  0.0394
 9153W        W24622  15.908   8.962  11.303 -0.1849  0.2937  0.1219
 9154W        W24623  13.434   9.234   1.624  0.1363 -0.0200  0.1289
 9155W        W24624   4.556  14.612   3.153  0.0651 -0.0705 -0.0335
 9156W        W24625  14.548  13.063   4.060  0.2905  0.1197 -0.0231
 9157W        W24626   3.634  16.117   1.970 -0.0808 -0.3353 -0.2422
 9158W        W24627   6.185   1.241  13.427  0.3168 -0.0346 -0.3684
 9159W        W24628   3.673   2.843  10.758 -0.2681 -0.2426  0.4511
 9160W        W24629   8.162   8.885   1.572 -0.0313 -0.1137  0.1571
 9161W        W24630  10.591  17.370   4.281 -0.1846  0.1161 -0.1088
 9162W        W24631   8.272   4.242   1.560  0.0626 -0.0876 -0.0748
 9163W        W24632  12.500  16.394   3.419  0.2196 -0.1108  0.1408
 9164W        W24633   5.132   2.343  12.635  0.0303  0.0472 -0.2019
 9165W        W24634   9.499  13.722   4.967 -0.0964 -0.0829 -0.0900
 9166W        W24635  15.019   7.927  11.048 -0.0820  0.0189 -0.2874
 9167W        W24636  16.655   3.898   4.118 -0.1784 -0.2276  0.1867
 9168W        W24637   5.394  12.378  10.157 -0.0478  0.0842  0.1397
 9169W        W24638   2.013   1.514  14.785 -0.0771 -0.1577 -0.1703
 9170W        W24639   4.697   8.646  12.264  0.1575  0.3908 -0.0303
 9171W        W24640  17.615  16.494  12.740  0.0236 -0.1741 -0.0319
 9172W        W24641   2.529  10.837   2.153 -0.0472  0.0385  0.2799
 9173W        W24642  10.486   0.535  13.174 -0.4200 -0.0593  0.0181
 9174W        W24643   9.315   7.354  15.499  0.2246 -0.0683  0.0502
 9175W        W24644  10.075   6.101  12.724  0.1720  0.0738 -0.5807
 9176W        W24645  16.604   6.173  12.880  0.0680 -0.2213 -0.2224
 9177W        W24646  16.960  15.696   1.119  0.1585 -0.0013  0.3129
 9178W        W24647  16.768   9.468  11.508 -0.2261  0.3069  0.1336
 9179W        W24648   1.681  14.003  11.271  0.3106 -0.6327 -0.1510
 9180W        W24649   1.077   0.661  13.869 -0.0901 -0.2397  0.0935
 9181W        W24650   3.577   8.197   0.714 -0.3286 -0.0765  0.1246
 9182W        W24651  12.548   3.585   4.110  0.1694  0.2896  0.1025
 9183W        W24652  16.106  12.245  10.973 -0.1669 -0.0262  0.3539
 9184W        W24653   1.676  16.764  11.504 -0.0668  0.1870  0.0153
 9185W        W24654  17.114   2.707   1.390 -0.2610  0.1576 -0.1713
 9186W        W24655  12.946  17.320  14.901 -0.2552 -0.0133  0.1002
 9187W        W24656   5.355   6.368   0.001 -0.1466 -0.1082 -0.2252
 9188W        W24657   9.867   1.927   0.415 -0.0495  0.1145  0.1569
 9189W        W24658  14.990   3.380  13.847  0.1945  0.1599  0.0581
 9190W        W24659   3.506   1.024  14.235  0.0136 -0.1944 -0.0875
 9191W        W24660   5.010   3.972  15.614  0.0071  0.0913 -0.0597
 9192W        W24661   8.846   4.951   2.151  0.0972 -0.0853  0.1202
 9193W        W24662   7.279   1.749   1.246  0.2711  0.1219  0.0734
 9194W        W24663  12.788   9.597   0.335 -0.1717  0.0251 -0.1763
 9195W        W24664   2.992  11.679   1.310 -0.2429 -0.2201 -0.4589
 9196W        W24665   5.112   2.029  13.046  0.0825 -0.3266  0.0564
 9197W        W24666  15.752  14.324  15.222 -0.1057  0.0017  0.1957
 9198W        W24667  12.717  11.183   5.867 -0.4192  0.2004 -0.1283
 9199W        W24668   1.670  12.635   2.909 -0.0126 -0.1624  0.0116
 9200W        W24669   6.611   1.679   3.599 -0.0087  0.0102 -0.1671
 9201W        W24670  12.307   8.320  11.167  0.3734  0.0920 -0.0199
 9202W        W24671  12.392   5.032  11.471 -0.0983 -0.0553  0.0488
 9203W        W24672  14.750  10.539   4.462 -0.5755  0.1309  0.0106
 9204W        W24673   5.503   1.166  13.171 -0.1408 -0.1141 -0.1820
 9205W        W24674  10.903  14.993  15.628 -0.0146 -0.1002 -0.0977
 9206W        W24675  12.435   2.208   1.848 -0.1711  0.2326  0.0888
 9207W        W24676   7.783   0.140   0.097 -0.0516  0.0239 -0.3346
 9208W        W24677   8.700  13.207   0.618 -0.3840 -0.0909  0.2739
 9209W        W24678   9.701   0.143   2.325  0.0879 -0.1095  0.0380
 9210W        W24679  10.169  12.303  14.070  0.0364  0.1814 -0.1755
 9211W        W24680  12.577   0.720   2.604 -0.5710  0.1072 -0.1009
 9212W        W24681   7.349  17.768  10.769 -0.4001 -0.2147  0.1640
 9213W        W24682   2.445   4.105  11.538 -0.0991 -0.1154 -0.1833
 9214W        W24683   4.351  12.430   1.199 -0.1184 -0.1574 -0.2023
 9215W        W24684  10.925   0.573  13.508 -0.2086  0.1654  0.0182
 9216W        W24685  17.682   1.200   3.670  0.1639 -0.0933 -0.0555
 9217W        W24686   2.120  14.746  13.758 -0.0802  0.1716 -0.4368
 9218W        W24687   3.618  11.883  12.436  0.1603  0.0346  0.0897
 9219W        W24688  14.857   4.642  15.024 -0.2587 -0.0893  0.3517
 9220W        W24689   0.293  13.443   2.177  0.0429  0.0710  0.1932
 9221W        W24690   6.507  16.813  11.501  0.0128  0.2504 -0.2232
 9222W        W24691   7.252  17.987   0.326 -0.2379  0.0400  0.0963
 9223W        W24692  17.252   1.674  13.918  0.0513  0.2153  0.0580
 9224W        W24693   0.458   6.567   1.216  0.3091 -0.0898 -0.1272
 9225W        W24694   0.764  13.485   1.026  0.3508  0.0919 -0.1669
 9226W        W24695   2.290  12.810   0.952  0.2336 -0.2399 -0.0944
 9227W        W24696  11.580   8.523  13.278  0.0725 -0.1936  0.0390
 9228W        W24697   1.956  14.215  14.366  0.0769 -0.1470 -0.1994
 9229W        W24698  10.998  17.806   1.378 -0.2321 -0.2433  0.0339
 9230W        W24699  10.512  17.662   0.722  0.0820 -0.1710  0.0984
 9231W        W24700   7.732   7.951   2.464 -0.0343 -0.0886 -0.2729
 9232W        W24701  12.967  18.275  10.660  0.0051  0.0518 -0.3062
 9233W        W24702  12.349  12.815  15.636  0.2473 -0.3495 -0.0740
 9234W        W24703   8.935  17.315   3.829 -0.4501  0.0080 -0.2092
 9235W        W24704  15.269   6.267   4.542  0.2451 -0.1727 -0.0954
 9236W        W24705   7.105   8.123   3.067 -0.0295 -0.2310 -0.0913
 9237W        W24706  16.806   5.352   2.029  0.1019 -0.0278 -0.0913
 9238W        W24707   9.591   9.589   3.307 -0.2337  0.1016  0.1070
 9239W        W24708   0.085   1.956  13.001 -0.0518  0.2340  0.2339
 9240W        W24709  14.740  16.712   2.256  0.1642 -0.0892 -0.0059
 9241W        W24710   5.754   8.009  11.729  0.1481  0.1333  0.3184
 9242W        W24711   7.274   8.042  13.478  0.0001 -0.5186  0.0088
 9243W        W24712   4.499   7.159   0.702  0.2615  0.3246  0.0214
 9244W        W24713  13.073   7.375   2.022  0.4051 -0.1231 -0.0353
 9245W        W24714   6.481   9.625   2.652  0.0286  0.3369 -0.1757
 9246W        W24715   3.103   6.310   0.390  0.0379  0.3206  0.0462
 9247W        W24716  12.530   8.638   0.233 -0.1109  0.0568  0.0061
 9248W        W24717   0.223  10.119   2.556 -0.0052 -0.2215  0.0099
 9249W        W24718  15.936  14.662  16.001  0.0083  0.0307  0.3923
 9250W        W24719   4.680   0.874   1.412  0.3622  0.1699 -0.0746
 9251W        W24720   4.610   6.831   3.848 -0.3008 -0.0448  0.1970
 9252W        W24721  15.817   8.572   3.493  0.4066 -0.5022 -0.0693
 9253W        W24722  10.423   1.276  13.996 -0.0373 -0.2973  0.0005
 9254W        W24723  17.266   7.601  14.233  0.1902 -0.2118  0.0296
 9255W        W24724  14.545  12.927   5.062  0.1373 -0.1052 -0.1524
 9256W        W24725  15.299  17.914  14.520  0.0852 -0.0365  0.2617
 9257W        W24726   0.758  18.234   1.891  0.2262  0.0416 -0.1538
 9258W        W24727  13.608  17.598   0.443  0.1448  0.4038 -0.0790
 9259W        W24728  11.416   5.046   1.410 -0.3301  0.0132 -0.0798
 9260W        W24729   6.232   6.304   2.152 -0.0728  0.0704 -0.0850
 9261W        W24730   7.018  13.079  15.405  0.0605  0.2033  0.0486
 9262W        W24731   7.504   7.332   2.920 -0.3255 -0.0271 -0.2560
 9263W        W24732   1.397  16.128   1.502 -0.0915 -0.2255  0.0969
 9264W        W24733  12.687  13.688  11.245 -0.1998 -0.1745  0.0657
 9265W        W24734  14.671  16.715  14.876  0.2294  0.2330  0.2956
 9266W        W24735  11.066  11.091   1.318  0.3602  0.3930 -0.3127
 9267W        W24736   3.988   1.901  12.226 -0.2060  0.1431 -0.1304
 9268W        W24737   9.174  12.827   4.422 -0.0940 -0.3817  0.4594
 9269W        W24738   0.275   3.988   0.458  0.2274 -0.1638  0.0981
 9270W        W24739  14.980   8.636   5.613 -0.1406 -0.0727  0.3454
 9271W        W24740  15.538  13.723   0.658  0.1642  0.2545  0.0384
 9272W        W24741   5.084  18.375  12.688 -0.0498 -0.2811 -0.1793
 9273W        W24742  17.040  10.991   5.397 -0.0838 -0.1170  0.0561
 9274W        W24743   2.161  15.831   0.750 -0.0849  0.3730 -0.1897
 9275W        W24744  18.024   1.909  13.282 -0.1044 -0.1209 -0.2318
 9276W        W24745  14.505   3.378   1.126 -0.0601  0.0163 -0.0546
 9277W        W24746  18.368   6.922   5.975 -0.0754  0.1604 -0.1564
 9278W        W24747  18.021   1.531   1.123 -0.0999  0.1931  0.0934
 9279W        W24748   6.215   9.656   3.087  0.0198  0.0019  0.0050
 9280W        W24749  16.263  17.809  12.637 -0.0474  0.3123  0.0655
 9281W        W24750  18.147   8.517   1.783 -0.1009 -0.5564  0.3029
 9282W        W24751  11.954  17.008   3.978 -0.2952  0.1586 -0.1143
 9283W        W24752  18.052   3.620  11.494  0.0513 -0.2147 -0.2984
 9284W        W24753   9.835   7.157   1.320 -0.0142  0.2706  0.0069
 9285W        W24754  11.352   9.459   2.272 -0.0909  0.0575  0.2005
 9286W        W24755  12.917   4.661   3.024  0.1225  0.1547  0.0638
 9287W        W24756  16.649   4.476   3.632  0.0258 -0.0928  0.0288
 9288W        W24757   9.334   8.125  12.334 -0.0621  0.1785  0.0102
 9289W        W24758   3.866  10.709   3.724 -0.0599 -0.2909  0.4029
 9290W        W24759  13.766   6.725   5.040  0.3312 -0.2163 -0.0608
 9291W        W24760  17.145   7.105   2.511 -0.1383 -0.2548 -0.1054
 9292W        W24761  17.118  14.042   1.201  0.3241  0.1702 -0.2012
 9293W        W24762  12.702  16.642   0.555 -0.3033 -0.2255 -0.0776
 9294W        W24763   8.029  13.715   0.521  0.0798  0.2335  0.1405
 9295W        W24764  12.343  12.863   1.371  0.0540  0.1669 -0.0889
 9296W        W24765  18.294  18.031   1.974  0.3591  0.0550  0.1508
 9297W        W24766  15.526   6.017  15.034  0.0440  0.1279 -0.1667
 9298W        W24767   3.218   5.039   1.860  0.0053 -0.0986  0.1084
 9299W        W24768   0.893   5.114   0.586 -0.3469 -0.2960 -0.1693
 9300W        W24769   6.327   5.996  13.984 -0.0104 -0.2480 -0.2133
 9301W        W24770  10.436   1.286   0.510 -0.0051  0.0975 -0.1610
 9302W        W24771   0.065   7.126   3.052  0.1874 -0.1896 -0.1990
 9303W        W24772  14.273  17.960  12.837 -0.1604  0.2475 -0.0936
 9304W        W24773   2.827   2.739  14.567  0.0717 -0.0430 -0.0860
 9305W        W24774   2.917  13.336   0.725  0.0563  0.0920 -0.0756
 9306W        W24775   2.889  14.965  14.808  0.1146  0.2606 -0.2017
 9307W        W24776   9.742  11.925   0.322 -0.2094 -0.1799  0.2941
 9308W        W24777  15.462  18.325   1.661 -0.0583  0.1172  0.0047
 9309W        W24778  11.254   5.490   5.080  0.0928  0.2864 -0.1437
 9310W        W24779   8.366  17.731   5.520  0.1204 -0.1719  0.2263
 9311W        W24780   9.935  12.405   2.116  0.0606 -0.0892 -0.2934
 9312W        W24781   5.452  16.420  13.514  0.1040  0.4150  0.3990
 9313W        W24782  17.744   1.277  11.565 -0.1688  0.0126  0.1635
 9314W        W24783   4.430   8.025   1.297 -0.0444  0.0991 -0.2542
 9315W        W24784   7.074   9.032   3.811  0.1038  0.0234 -0.0589
 9316W        W24785  17.444   9.549  12.984  0.1940  0.1570 -0.0911
 9317W        W24786  17.728  17.797  11.225 -0.1675 -0.2147  0.0590
 9318W        W24787   3.022   1.545  12.803 -0.3241 -0.0936  0.1367
 9319W        W24788   8.600  15.817  15.119 -0.2026  0.4380  0.1600
 9320W        W24789  10.380   6.979   4.086  0.5544  0.0185  0.2748
 9321W        W24790  16.493   4.379  14.443  0.3459  0.0218  0.0844
 9322W        W24791   9.703  17.899  14.421 -0.2328 -0.0834 -0.2051
 9323W        W24792   8.721  17.183   2.708 -0.2703 -0.4969 -0.0351
 9324W        W24793   9.952  10.812  12.080  0.0277 -0.4028  0.0095
 9325W        W24794  16.508  11.403   4.314 -0.0611  0.3635  0.1384
 9326W        W24795  16.388  10.876   0.550  0.0538 -0.1385  0.3921
 9327W        W24796  11.868  12.101   5.685 -0.2190  0.0004 -0.1139
 9328W        W24797   2.355  16.446   3.256  0.1831 -0.3107 -0.2532
 9329W        W24798  12.558  16.839  15.329  0.1593 -0.0172 -0.0286
 9330W        W24799  18.096   3.336  13.809 -0.4910 -0.1375  0.2865
 9331W        W24800  13.644   7.741  12.570  0.0874 -0.1801 -0.1430
 9332W        W24801   3.250   6.752   3.004 -0.1318  0.0911 -0.0731
 9333W        W24802   4.870  12.733   3.006 -0.1595  0.0329  0.1064
 9334W        W24803   8.301  15.011  13.630 -0.2337  0.1772 -0.1921
 9335W        W24804   7.571  14.831   0.267 -0.1041  0.0846  0.1869
 9336W        W24805   1.419  17.929  15.727  0.1589  0.0697 -0.3784
 9337W        W24806   6.118  16.123  15.818  0.0402 -0.7669 -0.1367
 9338W        W24807  17.240   9.894  13.291  0.0434  0.4823  0.0211
 9339W        W24808  15.676   7.546   4.475 -0.1629 -0.0014  0.2505
 9340W        W24809  10.585   6.715  13.532 -0.1765  0.1120 -0.0244
 9341W        W24810  11.502   2.646   1.842 -0.2413 -0.0987 -0.2434
 9342W        W24811  14.766   5.334  13.902  0.0072  0.0381 -0.3265
 9343W        W24812   4.964   6.009   4.219  0.1997  0.0735  0.1154
 9344W        W24813   0.237   6.245   2.727  0.0227  0.1246  0.3114
 9345W        W24814  17.513   7.149  14.810  0.1678  0.2339 -0.1091
 9346W        W24815  11.819   7.291   3.196  0.2499 -0.0411 -0.0665
 9347W        W24816  16.929  10.900  12.057  0.5026 -0.2036  0.3902
 9348W        W24817   7.987   4.509   6.100 -0.3023 -0.2075 -0.0754
 9349W        W24818  15.931   7.943   0.427 -0.2356  0.0552  0.2106
 9350W        W24819   7.711   7.693   0.165  0.2225 -0.2883  0.0578
 9351W        W24820   0.852   1.632  11.423 -0.1315  0.1007 -0.0745
 9352W        W24821  15.049   2.294  14.632 -0.1260  0.1987 -0.2321
 9353W        W24822   6.012  17.997   4.313  0.2345  0.2205  0.1628
 9354W        W24823   4.689  16.947  13.042 -0.0468 -0.1992  0.2311
 9355W        W24824   1.278  14.138   1.682  0.1246  0.0290  0.2368
 9356W        W24825   0.715   1.000  10.689 -0.1345  0.0614  0.0677
 9357W        W24826   0.935  13.347  11.846  0.0573 -0.0467 -0.1932
 9358W        W24827  18.299  15.383  14.777 -0.0977 -0.0900  0.2605
 9359W        W24828  11.257  15.027  13.622  0.3503 -0.0911 -0.0449
 9360W        W24829   5.392  10.358   1.486 -0.1367  0.3258  0.2433
 9361W        W24830   2.679   9.739  15.262  0.2108  0.3833  0.3627
 9362W        W24831   6.268   1.492  15.540 -0.1201 -0.0888  0.0330
 9363W        W24832  13.483  13.670  14.610  0.0252 -0.1093  0.0756
 9364W        W24833   7.719  10.358   5.773 -0.0269 -0.1548  0.0258
 9365W        W24834  12.947  10.984   4.213 -0.0706 -0.1297  0.1037
 9366W        W24835  10.445   2.422   5.508  0.0988 -0.0488  0.0095
 9367W        W24836  16.500  17.469   5.168 -0.1075  0.0459 -0.0236
 9368W        W24837   2.795  16.855   2.713 -0.0452 -0.1258  0.0225
 9369W        W24838   7.704   7.424   4.202 -0.1709  0.0098  0.2644
 9370W        W24839   0.120   7.396  11.312 -0.0455 -0.2997  0.0696
 9371W        W24840  10.930   0.445  12.470 -0.1484  0.0620 -0.1568
 9372W        W24841  17.645   3.616  13.742 -0.0944  0.1370 -0.2528
 9373W        W24842   0.667  16.588   0.714  0.1490 -0.2236 -0.0510
 9374W        W24843  13.980  10.855  11.180  0.1934  0.0180  0.2666
 9375W        W24844  17.160  17.412   2.074 -0.3106  0.1580  0.1134
 9376W        W24845   7.470  16.575  14.562  0.0467 -0.0974 -0.0579
 9377W        W24846  14.984  13.311  13.974  0.0789  0.1475 -0.2626
 9378W        W24847   4.222  18.445   4.530  0.0169  0.0997 -0.2959
 9379W        W24848  15.945   2.549   0.460  0.2406 -0.0250  0.2454
 9380W        W24849   7.567   2.617   3.336  0.0439 -0.1723 -0.2389
 9381W        W24850   5.012   0.106   3.533  0.0400 -0.1682 -0.3954
 9382W        W24851  13.257   6.970   5.246  0.1321  0.0809 -0.3455
 9383W        W24852   2.569  17.167  12.765 -0.2430  0.0333  0.3721
 9384W        W24853   1.303   0.011   1.868  0.0141 -0.0337  0.4341
 9385W        W24854   4.834   6.518   1.197 -0.2243  0.0661  0.0485
 9386W        W24855  16.030   6.989   5.836 -0.1299  0.0524  0.0803
 9387W        W24856   1.649   9.195   1.570 -0.1543 -0.0830 -0.1243
 9388W        W24857  14.173   5.301   5.600  0.0016 -0.3045  0.0345
 9389W        W24858  16.917  17.421   0.126 -0.0352  0.0438  0.1207
 9390W        W24859   1.371  14.615  12.608  0.1380  0.0259 -0.1074
 9391W        W24860   6.890   7.337  11.777  0.0344  0.2291 -0.3675
 9392W        W24861  11.243   3.286  13.031  0.0555  0.1526  0.0286
 9393W        W24862   8.242   7.129  11.660  0.3384  0.1308  0.1847
 9394W        W24863   2.925   4.039   5.343 -0.0337 -0.4650 -0.2221
 9395W        W24864   1.470  12.401   0.925  0.4105 -0.1796  0.1255
 9396W        W24865   5.508   0.322   1.753  0.2152 -0.1305 -0.0304
 9397W        W24866   8.233   4.431   4.676  0.3615 -0.0465 -0.1512
 9398W        W24867  13.659  14.372  12.062  0.2147  0.0763 -0.1102
 9399W        W24868   4.385  13.000   1.168 -0.1050  0.0334  0.1304
 9400W        W24869   9.026   7.881  15.394  0.3836 -0.0698  0.1315
 9401W        W24870   8.457  13.222  12.038 -0.1176  0.0302  0.2657
 9402W        W24871   7.157   0.707  12.594  0.1627 -0.2786  0.0924
 9403W        W24872  13.370  14.065   1.547 -0.3051 -0.0034 -0.0811
 9404W        W24873  18.115   1.233   4.034 -0.2641 -0.0298 -0.1654
 9405W        W24874   9.418  15.595   0.129  0.0122 -0.2399 -0.1370
 9406W        W24875  10.932   0.871   4.663 -0.0708  0.0926  0.3061
 9407W        W24876   3.078   1.481  15.500 -0.0011  0.1820 -0.0883
 9408W        W24877  10.896   8.411  14.481 -0.0467 -0.0829 -0.1362
 9409W        W24878  15.077   8.428   0.272 -0.1774 -0.0327  0.0003
 9410W        W24879  13.986   2.896   3.843  0.1012  0.1875 -0.0919
 9411W        W24880  13.863  15.850   4.916 -0.1829 -0.0358 -0.0393
 9412W        W24881   3.300  14.947  13.289 -0.0737 -0.1579  0.0180
 9413W        W24882   0.871   1.667   2.511 -0.0795 -0.0855  0.1609
 9414W        W24883   3.914  10.059  12.449  0.1097 -0.1909 -0.0396
 9415W        W24884   0.240   6.241  14.522 -0.0904 -0.1950  0.3689
 9416W        W24885  13.460  17.285   5.201  0.1873  0.0012 -0.3597
 9417W        W24886  12.515   9.825   0.790 -0.4324  0.1438  0.1288
 9418W        W24887  13.244  11.360   4.447 -0.1153 -0.3741  0.0708
 9419W        W24888   5.253   6.223   1.305 -0.2801 -0.2036  0.0398
 9420W        W24889   1.440  10.224   0.234 -0.0747  0.0877 -0.0750
 9421W        W24890   8.647   4.350  14.647  0.2806  0.0273 -0.2269
 9422W        W24891  15.219   3.217   2.390  0.0563  0.2120 -0.0918
 9423W        W24892  18.197   4.583   3.261  0.0110  0.4033 -0.1702
 9424W        W24893  10.966   0.169  15.088 -0.3092  0.1370  0.1932
 9425W        W24894  10.106  17.102  13.061  0.1507  0.1028  0.1519
 9426W        W24895   0.126  10.466  12.881  0.1392  0.0669  0.0167
 9427W        W24896   6.776   6.504  11.902 -0.2833 -0.3701  0.0533
 9428W        W24897   3.579   9.155   2.241 -0.2198 -0.1151  0.2685
 9429W        W24898   1.906   2.565  11.600 -0.3120  0.2203 -0.3214
 9430W        W24899  13.590  11.011   1.676  0.2391 -0.0563  0.2197
 9431W        W24900  16.378   8.417   1.777  0.0288  0.1974  0.1506
 9432W        W24901   3.226   9.545  14.168 -0.2880  0.0402 -0.2403
 9433W        W24902  14.959   3.364   2.019 -0.0548  0.2296  0.1902
 9434W        W24903   7.847  10.202  15.819  0.1898 -0.1687 -0.0298
 9435W        W24904  12.207   9.044  12.294 -0.4814  0.2056  0.0159
 9436W        W24905  17.162   6.388  11.992  0.0867  0.0348 -0.1499
 9437W        W24906   7.681  11.334  11.236  0.1152  0.3107  0.0727
 9438W        W24907   2.269  17.491   4.597  0.3253  0.2449  0.0250
 9439W        W24908   1.892   7.295  12.122  0.0735  0.0478  0.0187
 9440W        W24909  18.287   0.849   3.012 -0.0254  0.1021  0.0473
 9441W        W24910   9.687   0.256   1.055 -0.2657 -0.0312  0.2586
 9442W        W24911  16.154   2.270  12.382 -0.2305  0.0375  0.0880
 9443W        W24912  13.570  14.314  12.536  0.0409  0.2987 -0.3461
 9444W        W24913   5.983   7.702   0.203 -0.2555 -0.1465 -0.0280
 9445W        W24914  11.607  14.366   1.688 -0.2130 -0.0199 -0.0565
 9446W        W24915   0.778  17.283   1.167 -0.1963 -0.0146 -0.2765
 9447W        W24916  15.708  17.086   0.748 -0.0375 -0.3612  0.0916
 9448W        W24917   5.622   5.754   4.051 -0.1335 -0.0450  0.3320
 9449W        W24918   0.003  17.395   2.222 -0.2040  0.0383 -0.3406
 9450W        W24919   9.594   9.964  13.758 -0.0765 -0.2136 -0.3324
 9451W        W24920   6.935  11.244   2.753  0.1015  0.0920 -0.3435
 9452W        W24921  18.199  12.375  14.251  0.1830 -0.1021 -0.0179
 9453W        W24922  16.111  10.322  15.114 -0.3110  0.1961 -0.0407
 9454W        W24923  15.760   1.376   5.636 -0.3696  0.1365 -0.3596
 9455W        W24924  10.550   7.327  15.961  0.2492  0.0841  0.1497
 9456W        W24925   0.810  10.110   1.422  0.0643 -0.0540 -0.0571
 9457W        W24926   3.625  17.018  12.833 -0.2376  0.0523 -0.3001
 9458W        W24927  15.847   2.700   1.437 -0.0780  0.1838  0.0226
 9459W        W24928  13.980  10.091  13.001  0.0219 -0.2243  0.2748
 9460W        W24929   0.299  15.375  13.091  0.2121  0.2425 -0.2054
 9461W        W24930   9.122   3.175  14.378 -0.1481  0.0927  0.3012
 9462W        W24931   1.040  13.085  12.740 -0.1439 -0.1022  0.0289
 9463W        W24932  17.326   4.231  15.460 -0.2129 -0.1176 -0.1422
 9464W        W24933   1.759   7.204   3.383 -0.1265 -0.2088 -0.2097
 9465W        W24934   4.793   7.445  14.335  0.0891  0.0700 -0.0798
 9466W        W24935  14.533   4.269   4.640 -0.1354  0.1760  0.0702
 9467W        W24936   0.389  12.109   3.256 -0.1565 -0.2258 -0.0953
 9468W        W24937   6.045  12.754   0.761 -0.3230 -0.1719  0.0010
 9469W        W24938  10.958  17.744  15.314  0.1261 -0.4005  0.0444
 9470W        W24939   1.360   4.644  13.150 -0.1001  0.0212 -0.0705
 9471W        W24940  13.271  13.962  12.112  0.2291 -0.0672  0.0435
 9472W        W24941   0.830  15.205   0.431 -0.0183 -0.1641  0.2917
 9473W        W24942  14.862   2.296   1.949 -0.4330 -0.2299  0.3228
 9474W        W24943  10.521   3.506   2.522 -0.2604 -0.0145 -0.3297
 9475W        W24944   2.655   9.407   0.141  0.0382 -0.0245  0.1270
 9476W        W24945   0.836   6.731   1.494  0.1894 -0.4043 -0.1973
 9477W        W24946  14.589   7.990  14.424  0.2535  0.3267 -0.1054
 9478W        W24947  14.391   7.975   1.362  0.1541 -0.0122 -0.1820
 9479W        W24948   4.692   2.899   2.801 -0.3178  0.1398  0.2065
 9480W        W24949   5.804   5.099   0.243  0.0894 -0.2032  0.1966
 9481W        W24950   9.206   3.476   2.161 -0.2379 -0.1942  0.0158
 9482W        W24951   3.998   0.751   2.431 -0.2078 -0.3094 -0.0270
 9483W        W24952  10.848   4.592  11.316  0.0622  0.1140 -0.2809
 9484W        W24953  17.970   4.002   0.214 -0.0610 -0.0475  0.0304
 9485W        W24954  15.818  17.361  15.963 -0.2133 -0.3022 -0.1740
 9486W        W24955  16.588  14.277  14.384 -0.2773 -0.0032  0.0711
 9487W        W24956  18.136   3.124  11.321 -0.0239  0.0529 -0.1029
 9488W        W24957  15.020   3.881  12.463  0.2744  0.2264 -0.0871
 9489W        W24958   0.125   2.857   1.521 -0.2359 -0.0238 -0.0015
 9490W        W24959   2.988  10.312  12.682 -0.1168  0.4235 -0.1086
 9491W        W24960   2.858  10.118  14.832 -0.0229  0.2168  0.1126
 9492W        W24961   6.868  14.976   3.475  0.1216  0.0676 -0.1218
 9493W        W24962   7.698   3.885  13.837  0.4389  0.0141 -0.2112
 9494W        W24963   9.887   7.983   1.427  0.1585 -0.2402  0.0587
 9495W        W24964  11.724   5.282  14.679  0.0927  0.2980 -0.3052
 9496W        W24965  10.580   8.942   5.223  0.1667  0.0611  0.0805
 9497W        W24966  18.314  13.916  13.042 -0.1141  0.5649 -0.2662
 9498W        W24967   8.657   0.962  12.139  0.4785  0.0284  0.2425
 9499W        W24968   5.001   2.708   1.097 -0.1483 -0.2063 -0.3223
 9500W        W24969  14.482  18.351  11.794 -0.0179 -0.0742  0.0526
 9501W        W24970   8.458   5.405  15.074  0.1118 -0.0948  0.2996
 9502W        W24971  16.673  13.490  13.082  0.2728  0.0565  0.1749
 9503W        W24972   5.186  10.110   3.048 -0.1825  0.4753 -0.1638
 9504W        W24973  15.854   9.861   2.046  0.1661 -0.2362 -0.1119
 9505W        W24974   6.062  11.071   1.219  0.1036 -0.0102 -0.2705
 9506W        W24975  17.577   7.918   1.167 -0.0781  0.1036  0.0278
 9507W        W24976  13.410   8.264  13.518  0.1713 -0.1348 -0.1517
 9508W        W24977   2.977  17.038   0.101 -0.1636  0.1593 -0.1553
 9509W        W24978  16.492  11.530  10.872  0.0570 -0.2512 -0.1572
 9510W        W24979   4.619   3.184  12.875 -0.2533 -0.2329 -0.1939
 9511W        W24980  13.167  17.667   4.445 -0.0044  0.0167  0.0414
 9512W        W24981   7.811  10.870   2.334  0.1380 -0.0912  0.0737
 9513W        W24982  12.742   2.299   4.293 -0.0549  0.0396 -0.1278
 9514W        W24983   6.770   1.139   1.975  0.1318  0.3331  0.0730
 9515W        W24984   2.725  12.489  12.497 -0.0883  0.1024  0.1367
 9516W        W24985   3.582  16.505   2.508 -0.0638 -0.0009 -0.0530
 9517W        W24986  15.563  10.249   2.240  0.1303 -0.1149  0.0749
 9518W        W24987  17.828  13.215  13.448  0.0059 -0.0982  0.1283
 9519W        W24988   5.702   7.030   1.391  0.2339 -0.2287 -0.0591
 9520W        W24989  15.774  13.807  13.197 -0.3143 -0.2087 -0.0275
 9521W        W24990  12.905   1.781  12.530 -0.1659 -0.0784 -0.1001
 9522W        W24991  13.597  13.788  10.361  0.1094  0.1552  0.0067
 9523W        W24992  16.294  16.263  14.305  0.3095 -0.3344 -0.1226
 9524W        W24993   9.998   5.477  14.060 -0.0004  0.1757  0.2426
 9525W        W24994   7.750  10.346  11.354 -0.5072 -0.1122  0.0613
 9526W        W24995  16.020  11.102  11.649  0.0244  0.0267  0.1942
 9527W        W24996   8.214  18.322   3.277 -0.0539 -0.2644 -0.0865
 9528W        W24997   3.606   7.310   5.238  0.1764 -0.4214  0.0252
 9529W        W24998   8.194   3.461   4.429 -0.2355  0.0254 -0.2276
 9530W        W24999   7.692   2.117  15.461  0.0214 -0.3976 -0.2234
 9531W        W25000   5.389   5.916   2.821 -0.0617 -0.1694  0.1741
 9532W        W25001   0.229   6.777  15.775 -0.3755  0.2102 -0.2155
 9533W        W25002  13.084   0.031  11.046 -0.2231 -0.0785  0.2583
 9534W        W25003  12.928   1.437   5.377  0.1817  0.0898 -0.2421
 9535W        W25004   1.307   3.274  14.665 -0.1692 -0.2409  0.1358
 9536W        W25005   3.705   0.801  11.773  0.0938 -0.0403  0.0952
 9537W        W25006  10.250  13.228   2.606 -0.1434  0.1765 -0.2433
 9538W        W25007   8.796  17.100   1.716 -0.0526 -0.2489  0.0957
 9539W        W25008   8.695   9.982   2.359 -0.0703 -0.1199 -0.3293
 9540W        W25009  15.857   4.142   5.820 -0.0447  0.0163  0.0792
 9541W        W25010   3.128   2.545   1.296  0.2177  0.1148  0.3445
 9542W        W25011  12.901  10.997   4.824  0.0178 -0.3474  0.1467
 9543W        W25012   5.148  12.514  14.041  0.2667 -0.2648  0.1787
 9544W        W25013  17.492  14.975   3.957  0.0679 -0.1124  0.1531
 9545W        W25014   6.641   7.792  11.107  0.1243  0.1349 -0.0287
 9546W        W25015  15.209  17.703  11.236 -0.1533 -0.0130  0.2452
 9547W        W25016   4.748   1.846   5.042 -0.0524 -0.2267  0.2165
 9548W        W25017   4.317  15.805   1.862  0.0294 -0.1019 -0.0314
 9549W        W25018   7.040  12.867   0.951 -0.2756 -0.2812  0.0023
 9550W        W25019   3.108   8.199  14.441  0.3777 -0.1476 -0.0851
 9551W        W25020   1.842  10.813   4.987 -0.1143  0.0107 -0.0747
 9552W        W25021   5.456  16.837   4.961  0.0107  0.3485  0.0291
 9553W        W25022  17.713  17.959   2.051  0.0971  0.2737  0.3130
 9554W        W25023  10.780  14.014   2.812 -0.0425  0.1120 -0.2153
 9555W        W25024   0.876   5.827  13.723  0.0360 -0.2656  0.1269
 9556W        W25025   3.998  13.515  14.438 -0.0826 -0.0210 -0.0840
 9557W        W25026   4.163   5.955  15.977 -0.1028 -0.3000  0.1851
 9558W        W25027   0.854   5.538  14.108 -0.3009 -0.1287  0.5295
 9559W        W25028  10.497   2.010   4.019 -0.0273 -0.0443 -0.3135
 9560W        W25029   9.309   0.362  14.590 -0.0234  0.0789  0.0118
 9561W        W25030  11.482   0.860   1.218 -0.3257 -0.1303  0.0333
 9562W        W25031   2.339  10.844   5.176  0.2601 -0.3967 -0.2019
 9563W        W25032  14.934  15.473  12.450 -0.0080  0.0451  0.2126
 9564W        W25033   3.639   6.965   2.232 -0.1625  0.0049 -0.0854
 9565W        W25034   4.253   3.374  12.643  0.2693  0.0761 -0.0006
 9566W        W25035  13.563  10.072   1.494 -0.0960  0.2121  0.0144
 9567W        W25036  17.193   0.799   5.328  0.0948  0.2671 -0.1613
 9568W        W25037   1.008   3.358   0.961 -0.2401  0.0405 -0.2980
 9569W        W25038   9.076   8.348   0.039  0.2748 -0.0222  0.4033
 9570W        W25039   2.774   9.822   4.030 -0.1583 -0.0587 -0.0223
 9571W        W25040  16.258  14.964   1.884 -0.6018 -0.0567 -0.3079
 9572W        W25041   3.267  15.417   2.343 -0.4066 -0.1536 -0.1566
 9573W        W25042  10.787  12.379   2.727  0.1324  0.2160  0.0080
 9574W        W25043   9.364   0.505   4.600  0.2967 -0.0020 -0.0927
 9575W        W25044   6.111  15.554   4.146  0.2076  0.0436  0.0248
 9576W        W25045  14.423   0.855  10.283  0.0848  0.0196  0.0520
 9577W        W25046   0.093   5.982  13.179  0.1150  0.0344 -0.2636
 9578W        W25047   5.067  15.915   4.912  0.1573  0.0465  0.7679
 9579W        W25048   5.220  17.696  13.070 -0.0507 -0.2179  0.1475
 9580W        W25049   8.985  10.230   4.704 -0.3497  0.2587  0.0138
 9581W        W25050   8.439  10.723   2.790  0.0938  0.1636 -0.0946
 9582W        W25051   6.209  14.460  15.584  0.1480  0.0839 -0.0001
 9583W        W25052  15.400  14.712  10.865 -0.0347  0.0460 -0.3235
 9584W        W25053  17.360  10.342  13.266  0.2418  0.2176  0.0865
 9585W        W25054   5.574  17.353  11.566  0.1568 -0.0507  0.2198
 9586W        W25055  14.493   1.720  14.964 -0.1745  0.0282  0.1691
 9587W        W25056   6.526   9.012  12.662 -0.0224  0.0131 -0.1629
 9588W        W25057  10.154   5.081   2.956 -0.3089 -0.2113  0.1678
 9589W        W25058  16.982   7.350   1.111 -0.2256  0.2358 -0.2689
 9590W        W25059   7.075  14.044  11.631  0.0234  0.0272 -0.1566
 9591W        W25060   7.722  11.368   3.841  0.1824  0.1804  0.0689
 9592W        W25061  15.843   1.295   3.621 -0.0814  0.1068 -0.1829
 9593W        W25062   8.019   7.616  13.635 -0.2683  0.1664 -0.2458
 9594W        W25063  15.340   4.192  13.711 -0.4267 -0.1489  0.3932
 9595W        W25064   2.231  10.698  15.124  0.1027  0.0792 -0.4288
 9596W        W25065   8.454  10.613  15.938 -0.3185 -0.0954 -0.0388
 9597W        W25066  16.679  13.522  11.235 -0.0456 -0.1259  0.5187
 9598W        W25067  14.684  12.784  13.615  0.0703  0.0396 -0.1225
 9599W        W25068   9.163  11.776   2.969 -0.4921  0.0359 -0.2600
 9600W        W25069   4.242  18.079  11.933 -0.3383 -0.0032  0.0934
 9601W        W25070  12.939  18.235   5.013 -0.0723  0.1914  0.1319
 9602W        W25071  16.068   5.467  11.522 -0.2102 -0.1290 -0.3753
 9603W        W25072   5.086  15.829   1.478 -0.2022  0.0021  0.0622
 9604W        W25073  10.879  11.382  14.961 -0.1138 -0.1446 -0.0274
 9605W        W25074   4.108   4.920  14.716 -0.0171 -0.2324  0.2941
 9606W        W25075   1.354   8.827   6.467  0.1822  0.0755  0.1815
 9607W        W25076   2.259   9.825   3.779  0.0786  0.4108 -0.0263
 9608W        W25077   0.022   5.858   1.955 -0.0997 -0.1821 -0.0890
 9609W        W25078  17.801   8.922   1.669 -0.2476 -0.0641  0.0594
 9610W        W25079   2.048  11.171   5.489 -0.1937  0.1258 -0.0209
 9611W        W25080   8.999  15.274   2.039  0.1024 -0.3216 -0.0993
 9612W        W25081   9.077  15.965  15.270  0.0284 -0.0123  0.1692
 9613W        W25082   1.242   6.529  13.120 -0.0772 -0.0647 -0.1411
 9614W        W25083  12.880   2.459   2.179 -0.0317  0.0092 -0.1103
 9615W        W25084  13.173  12.450   2.415 -0.6254  0.1679 -0.0773
 9616W        W25085   3.298   0.844  12.125 -0.0359  0.0026  0.2670
 9617W        W25086   0.003  16.048  11.153 -0.0961  0.0361  0.0845
 9618W        W25087  18.268   2.908  14.606  0.1458 -0.0066 -0.0274
 9619W        W25088   9.239   4.488   1.074  0.1355  0.1196 -0.0199
 9620W        W25089   6.516  10.589  15.428 -0.2035 -0.4342 -0.1125
 9621W        W25090  12.551   2.484  11.774 -0.0325  0.0227 -0.0265
 9622W        W25091   8.463   9.482  15.926 -0.0260 -0.1020  0.1817
 9623W        W25092   9.437   3.467  12.172 -0.0379 -0.0186  0.0347
 9624W        W25093   0.246   1.767  14.849  0.0903  0.1498  0.1274
 9625W        W25094   6.554  14.855  11.602  0.4398  0.0843 -0.0852
 9626W        W25095  13.623  11.749  15.070  0.1313 -0.0592 -0.0313
 9627W        W25096  15.464   0.733  15.455 -0.0859 -0.3394 -0.3898
 9628W        W25097   8.158   5.688  15.913  0.0160 -0.4723  0.3430
 9629W        W25098   2.601  11.565   4.829  0.4414  0.1647 -0.1833
 9630W        W25099  13.991   4.399  11.557 -0.0811  0.1054 -0.1969
 9631W        W25100  16.177   6.459   0.017  0.0460 -0.1452 -0.4293
 9632W        W25101  11.452  17.927  14.680  0.0653  0.3316  0.1052
 9633W        W25102   7.630  10.936  14.942  0.2017 -0.0429  0.1645
 9634W        W25103   2.000  13.655   1.416  0.2943 -0.0116  0.0400
 9635W        W25104   3.436   0.357  11.347 -0.0037  0.0355 -0.3103
 9636W        W25105   3.619   0.690  12.911  0.0107  0.2102 -0.1791
 9637W        W25106   0.299   7.032  13.941 -0.2512 -0.1091 -0.3066
 9638W        W25107  16.420   9.393   6.033 -0.3281 -0.1184 -0.5286
 9639W        W25108   7.907  17.013  13.066  0.0291 -0.4659  0.0103
 9640W        W25109   4.501  13.369   5.504 -0.0832 -0.2079  0.0170
 9641W        W25110  14.565   2.863   0.877  0.1878  0.1405  0.0077
 9642W        W25111  10.830  16.194   5.062  0.0936  0.0649 -0.0091
 9643W        W25112  10.106  10.344   1.073  0.2286 -0.0162 -0.1256
 9644W        W25113   3.016  16.026   0.348 -0.3806 -0.2016 -0.2538
 9645W        W25114   2.261   4.704  13.238 -0.1786  0.0847 -0.1380
 9646W        W25115   2.431  11.362   2.324  0.0375 -0.2133  0.0289
 9647W        W25116   8.717   9.712   0.272 -0.2465  0.0470  0.1152
 9648W        W25117   6.672  13.780   2.936  0.0595 -0.3093  0.2385
 9649W        W25118   4.403  16.696  14.468  0.0351  0.0029  0.0433
 9650W        W25119  17.672  14.565   1.826  0.3495 -0.0869 -0.0275
 9651W        W25120  14.662   6.204   6.132  0.1917 -0.1316 -0.2465
 9652W        W25121  12.083   1.270  12.607 -0.1056 -0.0588  0.0196
 9653W        W25122  14.540   8.675   3.970 -0.1777  0.1924  0.0892
 9654W        W25123   0.694  15.709  14.623 -0.0110  0.1011  0.1164
 9655W        W25124  11.911   1.748   3.948 -0.1750 -0.1922 -0.1655
 9656W        W25125   0.648  13.746  14.615  0.3953 -0.2177  0.2795
 9657W        W25126   9.019   0.147  16.001  0.1310  0.0415 -0.1680
 9658W        W25127  15.297  15.537  14.597 -0.1092 -0.0416 -0.0781
 9659W        W25128   8.850   9.468  12.496 -0.3315  0.1378 -0.0649
 9660W        W25129   8.247   4.224  11.683 -0.0107 -0.0657 -0.0218
 9661W        W25130  16.455   7.342   3.877  0.1325  0.1623  0.0998
 9662W        W25131   7.827  10.891   3.588 -0.1379 -0.1202 -0.1236
 9663W        W25132   2.693   8.104   1.814 -0.3187  0.2077 -0.0298
 9664W        W25133  10.533   8.056   0.773  0.0413 -0.2231  0.1189
 9665W        W25134   2.993   3.846  11.856 -0.1981 -0.2964 -0.0994
 9666W        W25135  17.472   8.891   2.083 -0.1841 -0.1715  0.2452
 9667W        W25136   8.008   9.443   2.176 -0.1054 -0.3583 -0.2553
 9668W        W25137  12.412   1.935  14.007 -0.0400  0.0474 -0.1502
 9669W        W25138   9.679  12.024  12.184  0.5288 -0.1004 -0.2743
 9670W        W25139  17.994  15.823   5.386 -0.1070  0.1007  0.0038
 9671W        W25140   1.228  12.844   4.719  0.1542 -0.3694  0.0747
 9672W        W25141   7.858   4.377  11.391 -0.3322  0.0051 -0.1134
 9673W        W25142  11.682   5.381   1.116 -0.5030 -0.1081  0.2042
 9674W        W25143  14.753   0.851  15.269 -0.2402  0.0361 -0.0153
 9675W        W25144   9.207  16.977  14.099 -0.5088 -0.1084 -0.0710
 9676W        W25145   6.022  13.219  15.089 -0.2225 -0.1208 -0.0136
 9677W        W25146   9.709   5.935  15.367 -0.0070  0.0914 -0.0100
 9678W        W25147   2.434   2.658   3.231  0.2265 -0.1825  0.0430
 9679W        W25148   3.625   4.779   4.731 -0.0471 -0.0186 -0.1944
 9680W        W25149   3.160  11.473  13.042  0.0217 -0.2509  0.0121
 9681W        W25150   8.446  16.136  10.994  0.1535 -0.0605  0.1220
 9682W        W25151   8.572   1.884   2.969  0.1955 -0.0698 -0.0380
 9683W        W25152  10.514   9.030   0.192  0.0387  0.1084 -0.2241
 9684W        W25153  12.269   3.971  14.082 -0.1335  0.1219  0.1855
 9685W        W25154  16.016   6.293   1.400 -0.0324 -0.1108  0.0283
 9686W        W25155   6.624   1.876  11.204  0.1876  0.1253  0.3493
 9687W        W25156  12.968   7.650   1.549 -0.1465 -0.1114 -0.1719
 9688W        W25157  11.682   3.390   4.879 -0.1774 -0.1372  0.0670
 9689W        W25158   2.659   8.966  11.968  0.1309 -0.2196  0.0101
 9690W        W25159   0.272  12.799  11.147  0.1880  0.2828 -0.2404
 9691W        W25160   8.229  15.640   9.582 -0.0848 -0.2273  0.0007
 9692W        W25161   1.773  10.009   4.994  0.1205 -0.0961  0.2311
 9693W        W25162  10.074   1.975   4.734 -0.0100  0.0386 -0.0126
 9694W        W25163   1.099  15.520   2.858 -0.0798 -0.3251  0.1342
 9695W        W25164   8.230   9.939  13.160  0.0120 -0.2386  0.0835
 9696W        W25165  10.066  16.520  12.985  0.0792  0.0539  0.3333
 9697W        W25166  12.921  11.690   1.378 -0.4213 -0.1840  0.2099
 9698W        W25167   3.652  10.938   5.304 -0.1944  0.2512 -0.1179
 9699W        W25168  10.201   8.196  10.785  0.2612  0.0663 -0.4085
 9700W        W25169   9.446  12.343  11.061  0.2679  0.1408  0.1502
 9701W        W25170  11.680  15.274   1.753  0.0364  0.0111  0.1987
 9702W        W25171  14.424  16.688  11.285  0.1848 -0.0806 -0.2521
 9703W        W25172  12.604   3.941  11.703 -0.0741 -0.0353  0.0387
 9704W        W25173   1.908   8.305  12.007 -0.1512  0.0897  0.2291
 9705W        W25174   6.955  15.086  11.401 -0.1821  0.2801 -0.0588
 9706W        W25175   3.429   4.063   2.148 -0.0592 -0.2131  0.2461
 9707W        W25176   7.933   1.129  12.273  0.0742  0.5169  0.6253
 9708W        W25177   9.333  17.679   0.510 -0.0035 -0.0523 -0.1243
 9709W        W25178  17.230   9.533   0.399 -0.5048 -0.2058 -0.0992
 9710W        W25179   5.878   1.951   3.027 -0.0315 -0.1726  0.2230
 9711W        W25180  13.485   9.016   0.381  0.0388  0.2846  0.2159
 9712W        W25181   3.543   0.050   5.202  0.2538 -0.1062  0.1867
 9713W        W25182  11.381   2.672  10.778  0.0148 -0.1083 -0.1785
 9714W        W25183   7.026  13.982   3.384 -0.1377  0.1412  0.0854
 9715W        W25184  13.898  13.459  12.379  0.0332  0.1963  0.0968
 9716W        W25185   8.590  16.508  13.824 -0.0310 -0.1731 -0.2828
 9717W        W25186  10.561   0.579   1.117  0.1249 -0.1297  0.1668
 9718W        W25187  15.597  17.697  15.658 -0.1277  0.0236  0.3519
 9719W        W25188   1.734  11.367  12.105 -0.0189  0.4663  0.3062
 9720W        W25189  18.294   8.520   9.992  0.0358 -0.0411  0.0321
 9721W        W25190   9.901  11.048   3.105  0.0072 -0.2087 -0.4015
 9722W        W25191   1.659   0.954  15.547  0.0599 -0.0432  0.1287
 9723W        W25192   4.357   3.918  13.522  0.0846 -0.1251 -0.1287
 9724W        W25193   2.018   9.403   2.959  0.0452 -0.2305  0.0516
 9725W        W25194  13.350   8.055  15.816  0.1503 -0.0723 -0.0758
 9726W        W25195  15.122   6.155   0.338 -0.2033  0.1373 -0.1385
 9727W        W25196  15.420  16.487  11.659  0.0693 -0.4845 -0.1274
 9728W        W25197   2.034   7.693  15.066  0.3832  0.0757  0.1579
 9729W        W25198   0.999   2.108   4.319  0.2692 -0.2100  0.0110
 9730W        W25199   6.382   8.476   5.164  0.0931 -0.2348 -0.2049
 9731W        W25200   4.127  14.763   1.110 -0.3078  0.2619  0.1189
 9732W        W25201  15.885   2.390  14.835 -0.3842 -0.1392 -0.0927
 9733W        W25202  12.331  10.466  14.946  0.3276 -0.0849 -0.0730
 9734W        W25203   5.210   0.335   1.271  0.0984  0.1143  0.1877
 9735W        W25204   3.504   6.825  10.200  0.3304 -0.2470  0.1002
 9736W        W25205   6.317   3.360  15.655 -0.0277 -0.2812  0.0874
 9737W        W25206  18.172   0.217  14.103  0.1307 -0.2750  0.2150
 9738W        W25207  12.139  14.111   2.983  0.2084 -0.2229  0.2303
 9739W        W25208  16.319   6.077  12.419 -0.4019 -0.1931  0.0436
 9740W        W25209   7.987   8.804  12.017 -0.0354  0.1618  0.0832
 9741W        W25210  11.515  17.729  15.548 -0.0130 -0.0147 -0.2481
 9742W        W25211   5.579   6.897  15.620  0.1073 -0.4092  0.2064
 9743W        W25212  11.553   3.515  10.022  0.0102  0.0096 -0.3928
 9744W        W25213   6.119   9.258  15.226 -0.1158 -0.0671  0.0940
 9745W        W25214  11.179   9.113  14.930 -0.2851 -0.4523 -0.1288
 9746W        W25215  16.265   7.101   0.417 -0.0388  0.0066  0.0429
 9747W        W25216  15.622   9.880  15.622 -0.3067  0.2258 -0.3602
 9748W        W25217   5.577   4.014  14.053 -0.0113  0.1244  0.0387
 9749W        W25218   2.181   2.134   1.534  0.1105  0.1009 -0.0136
 9750W        W25219   6.405  10.767  12.556  0.1279  0.0825  0.2103
 9751W        W25220  13.819  16.816   1.659  0.1861 -0.2266  0.1042
 9752W        W25221   1.443   8.895   5.733  0.2383 -0.7219 -0.0911
 9753W        W25222  17.369  12.720  12.172 -0.0716  0.1040  0.0032
 9754W        W25223  13.665   7.426  13.216 -0.1853 -0.0816 -0.2921
 9755W        W25224  18.319  18.434   4.258  0.1321  0.1961  0.3923
 9756W        W25225  10.029   6.843   4.490  0.2262 -0.0032 -0.0699
 9757W        W25226   0.967   7.152  11.649 -0.0373 -0.1939 -0.1715
 9758W        W25227   9.669  14.815  12.351 -0.1547  0.0178  0.0753
 9759W        W25228   1.294   4.224  15.063  0.0770 -0.2039 -0.0552
 9760W        W25229   3.861  13.890  12.563  0.2499  0.0766 -0.0788
 9761W        W25230   2.515  14.410   3.992 -0.0522 -0.0826 -0.2902
 9762W        W25231   2.628   5.595  12.761 -0.1261 -0.0005 -0.0876
 9763W        W25232   1.293  14.440   5.346 -0.1638 -0.1446 -0.3664
 9764W        W25233  13.607   1.018  11.457  0.2232  0.1793 -0.0706
 9765W        W25234   5.816  14.969  11.905  0.1988  0.1413 -0.0357
 9766W        W25235   7.569   8.548   5.149  0.1647  0.2207  0.2808
 9767W        W25236   3.412  12.284  15.533  0.4329  0.2316  0.1301
 9768W        W25237   7.499  14.886   2.069  0.3774  0.0355 -0.2063
 9769W        W25238   7.344  16.862  15.979  0.3909 -0.0007 -0.2207
 9770W        W25239   3.617  16.622   1.710 -0.0663  0.0089 -0.0451
 9771W        W25240   3.041  12.772  13.756 -0.2281 -0.1144 -0.0935
 9772W        W25241  14.964  10.341  14.536 -0.1991 -0.1658 -0.0652
 9773W        W25242   4.845   4.432  12.726 -0.0053  0.1039  0.1247
 9774W        W25243   5.814  12.608  13.249  0.1842  0.1756 -0.0093
 9775W        W25244   9.673   3.707   3.283  0.0062  0.2121 -0.0959
 9776W        W25245   3.137   3.120  13.608  0.0890  0.0682 -0.2022
 9777W        W25246   9.067   7.499  14.954  0.0096 -0.0655  0.1511
 9778W        W25247   7.150   0.512   0.618  0.1703 -0.1821 -0.2851
 9779W        W25248  12.456   3.938   3.515 -0.0970  0.1434  0.1381
 9780W        W25249  13.703  17.956   3.611 -0.0739 -0.1759 -0.0483
 9781W        W25250   6.565   0.740  14.301 -0.0119 -0.1819 -0.1803
 9782W        W25251   8.630  17.880  10.725  0.2780  0.1012  0.1636
 9783W        W25252  18.197   4.132   1.050 -0.0777 -0.2612  0.5636
 9784W        W25253   0.536   0.401  12.694 -0.4413 -0.0216 -0.0443
 9785W        W25254   3.454   5.973  12.304 -0.0812  0.1279 -0.1382
 9786W        W25255  14.106   4.454   2.617  0.1729 -0.2308  0.2427
 9787W        W25256  10.225   8.032  12.267 -0.3400  0.1629 -0.1401
 9788W        W25257  17.524   8.590  12.069 -0.1094  0.0094  0.2466
 9789W        W25258  10.912  17.960   0.780  0.0989  0.0925  0.1307
 9790W        W25259   6.971  18.246  14.135 -0.1699 -0.2634  0.1558
 9791W        W25260   1.768   4.054   4.663  0.0495  0.0961 -0.1771
 9792W        W25261  15.281   1.769   6.203 -0.1681 -0.2078 -0.3056
 9793W        W25262  11.615   2.626   0.737  0.0148  0.2750 -0.0647
 9794W        W25263  15.079   3.095   5.804 -0.0225 -0.0565 -0.0011
 9795W        W25264   2.393  15.192   1.479 -0.0110  0.0967  0.1535
 9796W        W25265   5.843   5.890  14.223  0.2448 -0.2265  0.0585
 9797W        W25266  11.258  18.016   0.344  0.1150 -0.2251  0.0781
 9798W        W25267  15.581  17.465   2.918  0.2583 -0.1145  0.0556
 9799W        W25268  16.341   9.486  14.637  0.0838  0.0567 -0.1278
 9800W        W25269  13.876   8.119   1.307  0.0078  0.2588 -0.0314
 9801W        W25270   5.838   9.667   0.751 -0.0813 -0.2134 -0.0321
 9802W        W25271  12.121   7.744  15.915 -0.1525  0.0785  0.0852
 9803W        W25272   5.465  14.485  12.555  0.0620  0.0240  0.2939
 9804W        W25273   2.846   4.370  13.999 -0.0282  0.0324  0.5969
 9805W        W25274   3.343   3.911   5.079  0.2394 -0.1660  0.1074
 9806W        W25275  15.274  10.872  13.584  0.1519 -0.0185  0.1415
 9807W        W25276  15.735   8.588   2.976  0.2224 -0.0099 -0.3033
 9808W        W25277   9.033   3.391  13.881 -0.0908  0.1420 -0.3707
 9809W        W25278   8.890  16.549   4.897  0.0875 -0.0049 -0.1220
 9810W        W25279  18.233  13.799  15.862  0.0420  0.0825  0.1372
 9811W        W25280  12.774  12.864   4.493 -0.2669  0.0403  0.2526
 9812W        W25281  16.939  16.983  15.072  0.1274  0.0345  0.1274
 9813W        W25282   8.805   2.016  14.603  0.1109 -0.1908 -0.2563
 9814W        W25283   0.211   0.265   0.120  0.0307 -0.1202 -0.1967
 9815W        W25284  14.438   1.071  14.550 -0.3947 -0.1440  0.1989
 9816W        W25285   0.459   7.883  12.510  0.0608  0.0400  0.1248
 9817W        W25286   8.176   8.744  15.669  0.1151 -0.1472  0.0214
 9818W        W25287  14.312  11.007   3.122 -0.2432 -0.0908 -0.1250
 9819W        W25288  11.089  12.957  10.386  0.0776  0.0493  0.0654
 9820W        W25289  11.962  13.226   5.021  0.0448 -0.1697 -0.1629
 9821W        W25290   6.927  17.132   1.654 -0.0632 -0.3073 -0.0530
 9822W        W25291  16.280   8.161  11.566  0.1240 -0.0383 -0.1218
 9823W        W25292   1.065  12.354   1.289  0.1468  0.1993  0.0291
 9824W        W25293  16.383  11.367   3.798  0.0372  0.1909  0.0061
 9825W        W25294   6.136  14.256   0.963  0.2029 -0.0038  0.0013
 9826W        W25295  15.243   5.221   5.566 -0.0631  0.0465  0.0525
 9827W        W25296   4.067   4.216  12.681  0.3870  0.1078  0.0504
 9828W        W25297   1.913  12.866   4.871  0.0778  0.0747 -0.2024
 9829W        W25298   8.643   8.622  15.825  0.3813 -0.0814 -0.1396
 9830W        W25299  15.765   0.895   5.336 -0.0712 -0.0013 -0.1244
 9831W        W25300  14.953   0.678   4.704 -0.1330 -0.1414  0.1958
 9832W        W25301   3.353  12.839  10.853  0.0323 -0.0157 -0.0164
 9833W        W25302   2.657  16.587  12.726  0.0795 -0.0543  0.0556
 9834W        W25303   0.277   8.559  15.034 -0.0366  0.1845  0.1665
 9835W        W25304  10.632   3.683  10.783  0.1129 -0.1968 -0.5248
 9836W        W25305  18.333  18.191  12.200 -0.0216  0.0548 -0.2916
 9837W        W25306   5.373   4.405   4.611  0.0079 -0.1982  0.1177
 9838W        W25307  10.428   3.902  15.625 -0.3572 -0.2027  0.2248
 9839W        W25308  12.053  17.304  10.968 -0.2660 -0.1132 -0.2019
 9840W        W25309   5.547  14.947   0.435 -0.2464  0.0317  0.0695
 9841W        W25310   2.372   7.128  11.937 -0.1170  0.1658 -0.1981
 9842W        W25311  17.921   1.282   2.144  0.2662 -0.1069  0.2101
 9843W        W25312  12.259   6.302   2.848  0.0285  0.0221  0.1247
 9844W        W25313   8.855   2.017  12.860 -0.0945  0.0380 -0.1807
 9845W        W25314  13.535   1.833   0.352 -0.0162 -0.1804  0.0960
 9846W        W25315   8.417  14.102  12.277  0.0328 -0.2226 -0.0720
 9847W        W25316   2.410  15.626   5.216  0.0128 -0.0968 -0.0260
 9848W        W25317   6.470   0.712   3.812 -0.2836 -0.2700 -0.0150
 9849W        W25318   4.567   2.198  10.702 -0.2161  0.1288  0.2355
 9850W        W25319  13.648   1.698   1.359  0.0865 -0.0894 -0.1023
 9851W        W25320  11.523   1.581   5.378 -0.0116 -0.1079 -0.0337
 9852W        W25321   7.654   2.990  11.628  0.0683 -0.3249  0.0741
 9853W        W25322   8.397   7.381  12.760 -0.0168 -0.3069  0.0155
 9854W        W25323   6.646   1.526   0.875 -0.0840  0.0553  0.1396
 9855W        W25324  15.529   4.581   4.003 -0.0902  0.1214 -0.0048
 9856W        W25325   9.341   8.438   5.711  0.0084 -0.0761 -0.1450
 9857W        W25326  10.411   9.075   0.719 -0.0278 -0.2951 -0.0817
 9858W        W25327  11.283   6.783  14.222  0.2016  0.3248 -0.0436
 9859W        W25328  14.003   4.965   1.412  0.2227 -0.3203 -0.0682
 9860W        W25329   7.663  11.221  13.665 -0.2115  0.2321 -0.0869
 9861W        W25330   1.685   3.091   5.305  0.1419  0.1199 -0.0865
 9862W        W25331  13.933   0.828  14.920 -0.3249  0.2636  0.0370
 9863W        W25332   9.116   8.797   3.953 -0.1663  0.0404 -0.3721
 9864W        W25333   8.984   5.847  11.995  0.1351  0.0384 -0.1064
 9865W        W25334   1.013  15.897  14.013 -0.1798 -0.1919 -0.2895
 9866W        W25335  15.118   4.182   0.475  0.0911 -0.1497  0.1963
 9867W        W25336   5.360  14.116   4.978 -0.0418  0.0834  0.1063
 9868W        W25337  12.459   4.480   2.087  0.1685  0.0490 -0.2390
 9869W        W25338  14.770  14.004   3.965  0.1105 -0.2036  0.1291
 9870W        W25339  15.740  17.942   4.565  0.1050  0.0721  0.0850
 9871W        W25340   3.365   5.499   2.808 -0.0455  0.2638 -0.1764
 9872W        W25341   1.677   4.311  12.807 -0.3130 -0.0610 -0.1086
 9873W        W25342   6.490   4.110  14.923  0.3853  0.2022  0.1710
 9874W        W25343  16.880  10.618   2.767  0.0289 -0.1768 -0.1644
 9875W        W25344   4.030   5.226  15.658 -0.3120 -0.2969  0.2425
 9876W        W25345   3.704   7.999   1.180 -0.1412  0.2325  0.1920
 9877W        W25346   7.784   8.648  12.961  0.2435 -0.0993 -0.2237
 9878W        W25347   4.372  15.625  10.088 -0.0598 -0.0075 -0.1502
 9879W        W25348  12.359   4.837   3.960 -0.0885 -0.0643 -0.1166
 9880W        W25349  17.363   2.516   4.806 -0.2801 -0.2267 -0.3414
 9881W        W25350  11.747   3.370   3.890  0.1574 -0.0316  0.0259
 9882W        W25351   1.075   2.396  15.225  0.1172  0.0732 -0.1076
 9883W        W25352  10.461  13.346   4.347  0.0645  0.3681  0.2053
 9884W        W25353   4.255   1.137  14.661  0.2618 -0.0926  0.0947
 9885W        W25354   6.021  11.371   3.788 -0.0947  0.0605 -0.0866
 9886W        W25355   8.347  15.035   1.783  0.1398  0.1239 -0.2652
 9887W        W25356   3.340   7.321  11.914 -0.0562  0.0453  0.0330
 9888W        W25357  13.302   7.775  13.498  0.0367  0.1044 -0.3743
 9889W        W25358  13.002   9.886   4.487 -0.1536  0.2486  0.2123
 9890W        W25359   2.533   5.830  15.367 -0.0618  0.0114 -0.1153
 9891W        W25360  16.596   7.352  15.374 -0.0528  0.0014  0.3686
 9892W        W25361  11.290   5.647  12.260 -0.0242  0.2816 -0.1584
 9893W        W25362   4.618  15.591   5.631 -0.1336 -0.0765 -0.1703
 9894W        W25363  14.284   0.916   4.491  0.1081 -0.0821 -0.0979
 9895W        W25364  14.146  12.212  15.772  0.1676  0.1127 -0.2172
 9896W        W25365  10.183   2.621  11.403 -0.0865 -0.2114 -0.1196
 9897W        W25366   7.974   6.837   1.288 -0.4923 -0.0204  0.3529
 9898W        W25367   3.643  17.086   4.884 -0.1857 -0.0626  0.0111
 9899W        W25368  14.476  10.227  13.463  0.1245  0.2270  0.3905
 9900W        W25369  10.734   0.167  10.290  0.1633 -0.1648  0.1241
 9901W        W25370   3.220  12.744   3.065 -0.1236 -0.2770  0.2450
 9902W        W25371   0.450   6.935   5.099  0.0372 -0.1687  0.0681
 9903W        W25372  13.346  11.435  14.772 -0.1201 -0.0714 -0.0490
 9904W        W25373   8.900  13.450   2.339 -0.4039 -0.0047  0.3973
 9905W        W25374   6.613  10.526  14.432  0.1550  0.0710  0.1408
 9906W        W25375  14.866  13.842   3.361 -0.4969  0.0836 -0.2217
 9907W        W25376   4.135   4.072   2.429  0.0337  0.1722  0.1577
 9908W        W25377  13.354   1.178  15.328  0.0228 -0.0456 -0.6414
 9909W        W25378  17.724   2.150  12.822 -0.0114  0.0365 -0.2663
 9910W        W25379   3.406   9.592  13.676  0.0081 -0.3500  0.0370
 9911W        W25380  18.434   8.994   0.213 -0.1256 -0.1187 -0.1275
 9912W        W25381   7.144  16.280   1.294 -0.2292 -0.1073 -0.2167
 9913W        W25382   6.320   3.113   5.322 -0.1514  0.2907 -0.3093
 9914W        W25383   0.082   1.524  13.238  0.1380 -0.2534 -0.1033
 9915W        W25384   8.944   8.832  13.036  0.0162  0.0172 -0.0331
 9916W        W25385   7.268   0.360  12.146 -0.0378 -0.1630 -0.2149
 9917W        W25386  18.267   6.260   2.381  0.0527 -0.0592 -0.1498
 9918W        W25387   8.068   1.251  13.264 -0.0694  0.0230 -0.0066
 9919W        W25388   4.210  16.825  12.677  0.2648  0.0041 -0.0648
 9920W        W25389   0.829   6.600  15.119 -0.0013 -0.0938  0.2935
 9921W        W25390  13.100   4.256   1.387  0.3127  0.1024 -0.1030
 9922W        W25391  16.233   0.207   2.125  0.2944  0.0548 -0.0990
 9923W        W25392   6.599   3.155  14.401  0.2416  0.0183 -0.1898
 9924W        W25393   4.651  10.151   4.786 -0.1226 -0.3357 -0.0098
 9925W        W25394  10.025   8.883   2.255 -0.2514  0.4574  0.1743
 9926W        W25395  15.427   8.843   5.716  0.3898 -0.0895 -0.0604
 9927W        W25396   3.583  11.803  15.440  0.0970 -0.0616  0.2738
 9928W        W25397  16.890  11.436   4.647  0.1724 -0.0834  0.2226
 9929W        W25398  17.164   7.668   4.515 -0.2448  0.1009 -0.1565
 9930W        W25399  16.299   1.201   5.337  0.0637 -0.0019  0.2596
 9931W        W25400  14.930   9.253   4.096  0.3011 -0.0173  0.1736
 9932W        W25401   5.010   7.061   4.173 -0.0535  0.1507  0.1669
 9933W        W25402   7.822   2.749  12.069 -0.1752  0.0516 -0.0756
 9934W        W25403   8.024  10.169   0.530  0.0826 -0.0024  0.4416
 9935W        W25404  11.253  14.663  10.724 -0.0009 -0.2525 -0.2497
 9936W        W25405  10.032  10.745  12.609  0.0602 -0.1077  0.0543
 9937W        W25406   1.731   2.823  14.923  0.0609 -0.1497  0.1970
 9938W        W25407  15.966  10.019   4.587 -0.1237  0.0833  0.1692
 9939W        W25408  11.971  16.495   1.138  0.0819  0.1691 -0.3339
 9940W        W25409  18.304  15.304   0.620  0.1500  0.1134  0.1316
 9941W        W25410   4.785   9.458   3.935  0.1148  0.2569  0.0525
 9942W        W25411  13.115   2.439   4.749  0.0380  0.0526 -0.0148
 9943W        W25412  16.554  15.632   2.813  0.0088 -0.0353  0.0561
 9944W        W25413   9.444  11.505  10.848 -0.1029  0.0479 -0.0615
 9945W        W25414  14.951   1.425   5.290 -0.2598 -0.0558 -0.3122
 9946W        W25415   8.569  14.620   1.316  0.2224  0.1446 -0.0718
 9947W        W25416   3.530   6.542   2.565  0.1864 -0.3299  0.0971
 9948W        W25417  16.140  13.364  14.434 -0.0969 -0.0351 -0.2619
 9949W        W25418   3.840   6.347   1.731 -0.2044 -0.1627  0.0919
 9950W        W25419   2.709   3.024   2.481 -0.2651 -0.3564  0.2574
 9951W        W25420  10.572   8.896  12.473  0.3683 -0.0483 -0.2100
 9952W        W25421   3.369   0.480   4.138  0.1285  0.1070 -0.2154
 9953W        W25422  10.298  16.621   2.976  0.0410 -0.0271 -0.0333
 9954W        W25423  11.159  11.262  13.363  0.1138 -0.1045 -0.1625
 9955W        W25424   4.523  12.146  13.213 -0.0857 -0.1345 -0.2075
 9956W        W25425  11.519  12.315   9.454 -0.0931  0.0232  0.1389
 9957W        W25426   8.961   4.561   2.937 -0.0785  0.0976 -0.3401
 9958W        W25427  18.295  15.625  10.782  0.0942 -0.1678 -0.2461
 9959W        W25428  11.649   1.287  14.755  0.0628 -0.2206 -0.0857
 9960W        W25429   5.842  12.715  15.037 -0.0837  0.0479  0.2266
 9961W        W25430  15.737  12.993  10.964 -0.1221 -0.0202  0.2187
 9962W        W25431   8.220   1.668  13.497 -0.0205  0.1777  0.3399
 9963W        W25432   9.300   7.125   4.203  0.2123  0.1306  0.1791
 9964W        W25433   0.525   1.744  15.816  0.0125 -0.1157 -0.2304
 9965W        W25434   3.602   6.854   1.608 -0.0683 -0.1618  0.2613
 9966W        W25435  13.034   3.830   3.190 -0.1755 -0.3739  0.1038
 9967W        W25436   7.167  10.802  14.831 -0.2961  0.2047  0.1327
 9968W        W25437   8.638  13.946  14.317  0.1153 -0.1493 -0.1889
 9969W        W25438   3.895   3.936  11.779  0.2183 -0.2598 -0.2572
 9970W        W25439   6.416  14.066  12.680 -0.0387 -0.2819  0.0604
 9971W        W25440  12.446  14.089   2.070 -0.2138  0.0259  0.2084
 9972W        W25441   7.653  16.365  13.616  0.2217  0.1217 -0.1765
 9973W        W25442   0.196  11.785   4.446 -0.0055  0.0298 -0.0693
 9974W        W25443   3.910   5.131  11.050  0.2039 -0.1088 -0.2840
 9975W        W25444   1.346   1.465   2.307 -0.1958  0.2122  0.2549
 9976W        W25445  13.332   8.759   0.792 -0.1089  0.2300 -0.1489
 9977W        W25446  15.419   8.525  11.429 -0.2161  0.1291 -0.1797
 9978W        W25447   2.645   6.649  12.055 -0.2705  0.0851 -0.1364
 9979W        W25448  15.760   1.350   2.573 -0.2797  0.1268  0.3427
 9980W        W25449  15.784   5.559  14.212 -0.3174 -0.1914  0.0206
 9981W        W25450  15.195  13.376  14.858  0.3917  0.0011  0.0601
 9982W        W25451  10.006  15.299  12.383  0.0012  0.0567 -0.1620
 9983W        W25452   5.171   7.066  11.492  0.1974 -0.3552  0.1826
 9984W        W25453  12.627  14.085  11.514  0.0366 -0.3758 -0.0693
 9985W        W25454  16.049  14.789   5.304 -0.0123 -0.0434  0.3243
 9986W        W25455   8.387  17.341  11.750  0.2299  0.0718 -0.1245
 9987W        W25456  15.320   4.773  15.258  0.0011 -0.0991 -0.1234
 9988W        W25457  14.882  10.175   4.927 -0.1567  0.0503 -0.3757
 9989W        W25458  16.698   5.080  11.823  0.0486  0.0817 -0.1132
 9990W        W25459   1.589   8.801  14.439  0.0096  0.1771  0.0733
 9991W        W25460   1.889  15.043   4.117  0.0078 -0.0185 -0.1251
 9992W        W25461   5.126  10.220  14.086 -0.1004 -0.0430 -0.0310
 9993W        W25462   0.000  17.690  12.856 -0.2097 -0.0841 -0.0073
 9994W        W25463  15.865   9.243   1.459 -0.0438  0.1172 -0.0467
 9995W        W25464   0.352  16.905   4.904  0.1341 -0.0681 -0.0599
 9996W        W25465   9.464  16.927   2.723  0.3746 -0.0231  0.3797
 9997W        W25466   3.232  16.895  14.951  0.1330 -0.1133 -0.2929
 9998W        W25467   2.300  11.202  13.876  0.2783 -0.3799  0.0518
 9999W        W25468   3.843   6.198  12.023  0.1818  0.3047  0.1143
10000W        W25469   6.681   3.389  13.811 -0.0072 -0.0813 -0.0274
10001W        W25470   1.611   7.786   1.849  0.1282  0.0568  0.0796
10002W        W25471  17.387   6.050   3.349 -0.3711  0.3111  0.0861
10003W        W25472  13.011  10.969   2.963  0.2191 -0.1112 -0.1015
10004W        W25473   0.200   7.640  12.180  0.0333 -0.1089 -0.0357
10005W        W25474  11.007  15.980   1.898  0.0806 -0.1798 -0.1989
10006W        W25475  10.458  13.274  15.764 -0.1032 -0.0805  0.1032
10007W        W25476   3.057   2.370   2.971  0.1334 -0.3147 -0.3858
10008W        W25477   4.457   6.429  12.210 -0.0309  0.0663  0.2521
10009W        W25478   3.850   2.790  15.969 -0.1083  0.0440  0.2360
10010W        W25479   2.354   1.578  13.212 -0.2786  0.1503 -0.1710
10011W        W25480   4.876   3.700   2.978  0.0107  0.0285  0.2568
10012W        W25481  12.430   0.059   0.846  0.2710  0.0253 -0.0531
10013W        W25482  15.504   8.201   0.470  0.0967 -0.0475 -0.1675
10014W        W25483   3.126   1.723  13.676 -0.1301  0.2502  0.0637
10015W        W25484  16.154  10.350  11.069 -0.1882 -0.1242  0.0939
10016W        W25485   5.115  18.126   4.921 -0.1527 -0.0342 -0.1584
10017W        W25486   4.688  17.927   5.230  0.5108 -0.0991 -0.0332
10018W        W25487   7.272   4.037  11.886  0.2657  0.1246 -0.0738
10019W        W25488  12.579   3.583   5.199  0.0526 -0.2723 -0.1702
10020W        W25489   5.221   1.360  12.206  0.1799 -0.2288 -0.1574
10021W        W25490  16.217   0.166  14.568  0.0574 -0.0597 -0.0589
10022W        W25491  13.990   0.067   0.391  0.1041  0.3365 -0.1059
10023W        W25492  16.049   2.753   5.466 -0.1899  0.2614  0.0074
10024W        W25493  12.674   0.695  14.539  0.0346 -0.0149  0.3945
10025W        W25494  10.009  10.255  12.372  0.0441 -0.0669  0.0237
10026W        W25495   5.673  16.142  10.398 -0.6049 -0.2172 -0.1040
10027W        W25496  12.044  10.160   3.455 -0.0197 -0.2105  0.3159
10028W        W25497   5.036  17.801   0.359 -0.4667  0.0089  0.0780
10029W        W25498  15.651   6.743  11.527  0.0625  0.2998 -0.0341
10030W        W25499   9.086  18.389   2.930 -0.1497 -0.1584  0.0467
10031W        W25500  14.440  17.179   3.944 -0.0699 -0.0893 -0.1888
10032W        W25501   8.000   9.113  13.929  0.0996 -0.0711 -0.0837
10033W        W25502  11.927   8.476   4.648  0.1273 -0.0390  0.0841
10034W        W25503   7.325   2.702  13.875  0.2146 -0.2314 -0.2884
10035W        W25504   9.954  11.195  14.952 -0.0109  0.0024  0.1571
10036W        W25505  13.751  11.567   1.988  0.0620 -0.0572  0.2587
10037W        W25506   1.973   3.012   3.208  0.3012 -0.1295  0.0499
10038W        W25507   0.633   9.257  13.563  0.1171 -0.3075  0.0150
10039W        W25508   4.240  15.844  14.392 -0.0378  0.1436  0.0484
10040W        W25509   5.144  18.050   4.385  0.0893 -0.1562 -0.5136
10041W        W25510   8.894  10.878   2.997  0.1930  0.2826  0.0068
10042W        W25511   4.062  17.451   3.597  0.0859  0.0719  0.0266
10043W        W25512   9.354  17.064  11.962 -0.1397  0.0236 -0.1756
10044W        W25513   7.689  11.817   4.206 -0.3785  0.2380 -0.0708
10045W        W25514   4.837  16.051   1.140 -0.0561 -0.2008 -0.1874
10046W        W25515   4.970   8.577   3.765  0.0742  0.1149  0.6439
10047W        W25516  17.044  11.985  14.477 -0.4218 -0.0651  0.1872
10048W        W25517  17.724  12.060  11.794 -0.1439 -0.1299 -0.4098
10049W        W25518  11.516  18.447  13.007 -0.4905 -0.3838 -0.0653
10050W        W25519  14.528  12.394   4.344 -0.0040  0.0871 -0.0616
10051W        W25520   2.629  15.879   3.378  0.1356  0.3783 -0.2466
10052W        W25521  11.369  14.690   2.849 -0.1039 -0.0320 -0.1314
10053W        W25522   3.197  12.436  15.973  0.1918  0.0045  0.3407
10054W        W25523   6.262   1.714   0.500 -0.0497  0.1262  0.3501
10055W        W25524   9.971   0.101  12.512 -0.0785  0.1152  0.0750
10056W        W25525  14.709  11.451   0.200 -0.0947 -0.0261 -0.3079
10057W        W25526  10.806  13.938  11.025 -0.1969  0.1106  0.0868
10058W        W25527   2.341   2.176   6.177 -0.0995  0.2536  0.2586
10059W        W25528   5.098   3.596  13.931  0.1538  0.0542  0.3626
10060W        W25529   1.989  14.387   3.802 -0.0513  0.2466 -0.0315
10061W        W25530   8.901  10.224  11.672 -0.0313 -0.0204  0.1582
10062W        W25531   5.838  15.384  14.774 -0.0799  0.1006  0.0338
10063W        W25532  17.425  16.585  12.250 -0.2017  0.2801  0.1643
10064W        W25533  17.387   9.944   2.646  0.1756 -0.0614 -0.1046
10065W        W25534  17.739  10.235   3.054  0.3620  0.1636 -0.1330
10066W        W25535  17.548   6.547  14.353 -0.0402 -0.1121  0.4506
10067W        W25536  12.183   2.160  15.618 -0.0416  0.3179 -0.3141
10068W        W25537   0.405  13.689   0.735 -0.2328  0.2545 -0.0383
10069W        W25538   3.201  18.440  11.648  0.1001 -0.0917 -0.1569
10070W        W25539   4.687  14.217  11.978  0.0210  0.1378 -0.0007
10071W        W25540  17.603   3.565   6.660 -0.0024  0.0341  0.0161
10072W        W25541   1.271   3.194  13.704  0.1978 -0.0656  0.0591
10073W        W25542   6.989   7.443  11.281 -0.2202 -0.2092  0.2073
10074W        W25543   3.687   3.893   3.815  0.0385 -0.0799  0.2589
10075W        W25544   9.286  11.545   3.353 -0.1115 -0.0614 -0.1110
10076W        W25545  17.599   9.380   1.849  0.1256 -0.0829 -0.0473
10077W        W25546   2.986   5.545   4.491  0.0512  0.0157  0.1546
10078W        W25547   2.863  17.113   9.927  0.0032  0.3261 -0.0840
10079W        W25548   6.439   0.873  12.255  0.1819  0.0335  0.0910
10080W        W25549  12.637   7.263  12.434 -0.2868 -0.0395 -0.0215
10081W        W25550  16.043   0.432  15.068  0.2166  0.2214 -0.0786
10082W        W25551   7.362   1.011   3.449  0.1042 -0.0934  0.1074
10083W        W25552  16.625   8.976  13.226  0.2494 -0.1365 -0.1365
10084W        W25553   8.816   7.801   2.825 -0.1489  0.0113 -0.0799
10085W        W25554   5.058  12.964  16.001 -0.1220  0.0918 -0.2490
10086W        W25555   6.708  11.103  13.406  0.0654 -0.0410 -0.1195
10087W        W25556  18.105  16.946   2.082  0.0406 -0.2846  0.1157
10088W        W25557   0.800   4.056   0.695  0.0679  0.2243 -0.0311
10089W        W25558   8.453   0.153   2.507  0.1225 -0.0395 -0.0255
10090W        W25559  14.296  14.014   1.679  0.0350 -0.1740 -0.1318
10091W        W25560  10.489  12.953  11.816  0.2288  0.0677 -0.3443
10092W        W25561   6.711   0.476   5.110  0.0288  0.2512  0.0952
10093W        W25562  17.093   6.969   3.147 -0.1947  0.0031 -0.3457
10094W        W25563   9.624   9.566  14.794  0.0865 -0.0555  0.0367
10095W        W25564   1.172   0.980   0.799 -0.0011 -0.0037  0.1399
10096W        W25565   7.441   1.462  13.584 -0.1714 -0.0290  0.2413
10097W        W25566  14.782   7.267   5.138 -0.1981  0.4004 -0.1625
10098W        W25567   1.369   7.977   1.461  0.2542 -0.1923 -0.1461
10099W        W25568  18.054   7.392   3.308  0.0721  0.0138 -0.1589
10100W        W25569  14.222   0.567   3.505 -0.0116  0.1972  0.1460
10101W        W25570   4.243   8.342  15.356 -0.1386  0.2348 -0.1486
10102W        W25571   2.422  13.868   2.238 -0.2922  0.0542  0.0318
10103W        W25572  11.043   5.993   3.355 -0.3771 -0.0320 -0.1100
10104W        W25573   4.383  16.996  11.444 -0.1553  0.1141 -0.0195
10105W        W25574  12.883   1.561  11.577  0.0379 -0.0065  0.1782
10106W        W25575  10.234   2.213   0.163  0.3061 -0.0719  0.0470
10107W        W25576  17.640   5.033  14.509 -0.2744  0.0619  0.1797
10108W        W25577   1.912  10.019   2.260  0.1172  0.3291 -0.1378
10109W        W25578  17.665  13.126   2.621  0.0948  0.1175  0.2678
10110W        W25579  11.077  12.449   4.507 -0.0351  0.3235  0.0623
10111W        W25580   9.325  15.727   1.852 -0.1096 -0.0700  0.0899
10112W        W25581   0.944  15.088   2.122 -0.2329 -0.1164  0.1749
10113W        W25582   1.236   3.203  12.457 -0.2166  0.1024 -0.1615
10114W        W25583   1.510  15.187   0.385  0.0141 -0.1561  0.2169
10115W        W25584   1.307   9.626  15.363 -0.1092  0.0137 -0.0844
10116W        W25585   0.457  12.629  12.280  0.1470  0.2050 -0.3392
10117W        W25586   4.717   1.043  15.645  0.0584 -0.2411  0.0471
10118W        W25587   7.726   2.697   4.233 -0.0804 -0.3187  0.0931
10119W        W25588  16.476  14.589   1.376 -0.0059 -0.1244  0.1402
10120W        W25589  11.066   5.374  14.734  0.1575 -0.0777  0.1606
10121W        W25590   0.864   6.262   3.597 -0.1896 -0.1233  0.0707
10122W        W25591  13.046   0.808   0.309 -0.1100  0.1031  0.2783
10123W        W25592  14.117   3.479  12.085 -0.2017 -0.1572 -0.0783
10124W        W25593   8.309  15.859   4.975 -0.3653 -0.0738  0.0622
10125W        W25594   3.169  16.658   3.591  0.0182  0.0953 -0.0094
10126W        W25595  15.406   8.546  15.935  0.0843  0.0586 -0.2516
10127W        W25596   4.354  11.632  16.011 -0.3267  0.0488 -0.1930
10128W        W25597  15.145  10.857   3.400  0.0653 -0.3062  0.4204
10129W        W25598  12.160  13.978  11.908  0.3269  0.1818  0.3133
10130W        W25599   4.273  12.870  11.373  0.1011  0.2591 -0.1184
10131W        W25600   6.275  15.575  10.703  0.0841  0.0564 -0.1056
10132W        W25601   3.451   2.666   2.185  0.0733  0.1690  0.2407
10133W        W25602  10.660  14.312   1.224 -0.2463 -0.0870 -0.0073
10134W        W25603  15.792   5.486  13.014  0.0963 -0.0857  0.0154
10135W        W25604   3.980  14.601   4.126 -0.0597 -0.2403 -0.1068
10136W        W25605  10.564   0.288   4.020 -0.1924 -0.0803 -0.2364
10137W        W25606  15.692   7.360  10.673 -0.2001  0.1714 -0.0259
10138W        W25607  10.588   7.162  10.790 -0.2393  0.0958 -0.0464
10139W        W25608  17.247  14.092   0.206  0.1357 -0.0096  0.1146
10140W        W25609   4.418   1.000   1.948 -0.2614 -0.0771  0.0941
10141W        W25610   1.360  18.439  12.110 -0.4041 -0.0467 -0.1990
10142W        W25611  10.309   4.369   5.163 -0.1577  0.2596  0.1044
10143W        W25612  14.814   4.774   5.556 -0.4521  0.0049 -0.1907
10144W        W25613   4.009  13.779  15.311 -0.2301  0.2805 -0.3206
10145W        W25614   3.660   7.044  12.291  0.0871  0.1008 -0.0984
10146W        W25615   0.601  12.828   4.918 -0.0022  0.0626  0.2362
10147W        W25616   4.424  15.960   1.406  0.0228 -0.0626  0.0058
10148W        W25617  15.768  10.691  14.469  0.2917  0.2522  0.1191
10149W        W25618  11.051  12.601   1.479  0.3182 -0.2458 -0.3695
10150W        W25619  16.023  18.102   5.367  0.2331 -0.1278 -0.0108
10151W        W25620   7.115   5.968  14.664  0.0586 -0.0981 -0.2178
10152W        W25621  13.380  15.006   5.217  0.1166  0.1753 -0.2688
10153W        W25622  11.818   6.794   1.141  0.0453  0.1090 -0.1113
10154W        W25623   7.170  11.998  11.207  0.1422  0.2875  0.0804
10155W        W25624   4.815   9.591   5.816 -0.2068  0.0708  0.3370
10156W        W25625   3.039  13.742  13.473  0.0704  0.2285 -0.0113
10157W        W25626  14.849   0.853   1.139  0.0499 -0.0648 -0.3918
10158W        W25627   3.487  11.295   4.148 -0.1382 -0.2783 -0.0362
10159W        W25628   5.623   9.490   2.262 -0.2664  0.4304  0.0692
10160W        W25629   0.490  12.730   1.658 -0.3087 -0.2321 -0.0829
10161W        W25630   0.739   4.994   3.597 -0.2144  0.0984 -0.0621
10162W        W25631  17.858   6.643   0.110 -0.0674  0.2833  0.0903
10163W        W25632   9.273   8.775   0.797 -0.1931 -0.1981 -0.2160
10164W        W25633   1.913  14.899  15.427 -0.0926  0.0957  0.2517
10165W        W25634   6.761   8.746   0.834  0.2470  0.3663 -0.1705
10166W        W25635  14.092  15.292  10.678 -0.1917 -0.0501  0.0113
10167W        W25636  11.702  10.310   2.467  0.2760 -0.1994  0.1221
10168W        W25637   1.576   0.850   5.143 -0.1595  0.2337  0.0642
10169W        W25638  13.239  17.139  11.396  0.0883  0.2210 -0.3171
10170W        W25639  13.531   9.045  10.997  0.2530  0.1622  0.1726
10171W        W25640  12.991   8.412  14.918 -0.1364 -0.1478  0.1113
10172W        W25641  18.164   8.863   4.095 -0.0328 -0.1479  0.0548
10173W        W25642   3.911   5.665   1.230  0.0505  0.2206  0.0321
10174W        W25643  10.817   8.156   3.837 -0.0292 -0.1297 -0.1339
10175W        W25644  16.255  15.298   3.107 -0.0370  0.4246 -0.4565
10176W        W25645   1.219   4.982   4.972 -0.3377 -0.1229  0.0523
10177W        W25646  16.782  14.475  11.129  0.0977  0.0597  0.4001
10178W        W25647  10.300  10.573  10.946  0.3589 -0.2567  0.1625
10179W        W25648  16.036  10.354   0.727 -0.0601  0.1541 -0.0957
10180W        W25649   9.111  13.906  14.025 -0.2220 -0.0023  0.2844
10181W        W25650  13.152  14.536   0.628  0.2918 -0.0589  0.0242
10182W        W25651   4.439   2.843  14.850 -0.2880 -0.0674 -0.0213
10183W        W25652  11.764   3.418  13.194  0.1880  0.0816  0.0205
10184W        W25653  14.011   7.695   0.991  0.1536 -0.1713 -0.4518
10185W        W25654  11.766  18.014  12.190 -0.0535  0.0463 -0.0791
10186W        W25655   9.755   4.452   0.774  0.1128 -0.1317 -0.1287
10187W        W25656   5.126  14.770   4.447 -0.0102  0.0177  0.1058
10188W        W25657   6.520  16.746  10.782  0.1547 -0.1034  0.3101
10189W        W25658  14.027   0.927  11.202 -0.0021 -0.0684  0.0967
10190W        W25659  11.317   3.484  14.952 -0.3038 -0.1676 -0.0477
10191W        W25660  11.030   5.959  11.073  0.1799  0.2270  0.2818
10192W        W25661  10.951  15.173   3.009 -0.0452 -0.2628 -0.1452
10193W        W25662  10.295  10.145   5.610  0.0607 -0.3203 -0.0018
10194W        W25663  15.664   9.366   1.851  0.0007 -0.3420  0.0322
10195W        W25664  15.215   8.125  11.596 -0.1194  0.2299 -0.1188
10196W        W25665   5.935   2.727   5.230 -0.0235 -0.0399 -0.0142
10197W        W25666   3.545   5.011   2.805  0.2265 -0.1211  0.1225
10198W        W25667  12.419   0.261  14.499  0.0507  0.1267  0.0125
10199W        W25668   4.123  15.558  13.924 -0.2665 -0.3580  0.2551
10200W        W25669   6.186   1.602   3.290  0.2288  0.2693 -0.0391
10201W        W25670   5.829  10.862  12.272 -0.3071  0.2081 -0.2409
10202W        W25671   2.168  18.431   2.177  0.0384 -0.1321 -0.5631
10203W        W25672  11.968   3.155   1.146  0.0057 -0.1107 -0.0432
10204W        W25673  15.747   0.195  11.009  0.3617  0.2277 -0.1902
10205W        W25674   7.853  18.370   2.065 -0.0752 -0.0958 -0.0310
10206W        W25675   7.415  16.661   9.691  0.1896 -0.1000  0.2518
10207W        W25676  16.362   8.234  15.518 -0.1317  0.1268 -0.2322
10208W        W25677   8.125  15.520  15.023  0.1052  0.1165 -0.1648
10209W        W25678   4.197  10.898   4.480  0.2850 -0.2151  0.1914
10210W        W25679  16.043   6.091   0.397 -0.0472  0.0666  0.0420
10211W        W25680  13.787   3.052  12.902 -0.1141  0.0261 -0.0378
10212W        W25681   3.238  16.902   4.386  0.0489  0.1014 -0.0727
10213W        W25682  16.118   4.216   3.858 -0.0904  0.0065  0.1717
10214W        W25683  17.343   5.507   3.382 -0.1904 -0.1700  0.3104
10215W        W25684  15.190  13.413  12.004  0.0106  0.0222 -0.0169
10216W        W25685   8.549  18.123   0.940 -0.4092 -0.0154  0.0922
10217W        W25686   3.537  16.415   3.832 -0.1062  0.3016 -0.0169
10218W        W25687   0.654  12.960   1.247  0.2044  0.3074  0.0938
10219W        W25688   6.168   5.519  15.341 -0.1963 -0.1685 -0.1959
10220W        W25689   2.597   8.340  11.217  0.1183 -0.0210 -0.0589
10221W        W25690  10.887  14.966  12.783 -0.0750  0.0938  0.1333
10222W        W25691  18.324   7.199   4.556 -0.2096 -0.0388 -0.5772
10223W        W25692   5.765   2.446   3.330 -0.1788  0.1231  0.0053
10224W        W25693  11.981   1.230   5.534 -0.0597 -0.1969  0.4272
10225W        W25694   1.775   5.130   5.091  0.1690 -0.2206 -0.0451
10226W        W25695   3.636   0.859  11.279 -0.2920 -0.0829 -0.1085
10227W        W25696  14.980   5.650   5.549  0.0606 -0.1055  0.3471
10228W        W25697   9.869   8.911  11.892  0.1959 -0.2555  0.1778
10229W        W25698  15.268  17.179  15.269  0.4534 -0.0389 -0.0188
10230W        W25699   4.673   5.429   3.386 -0.0047 -0.1759  0.2589
10231W        W25700   6.914  11.075   0.678  0.0543 -0.1213 -0.0207
10232W        W25701  12.907   5.112   1.630 -0.0749 -0.1662  0.0820
10233W        W25702  15.362  13.653  12.491  0.0296 -0.3019  0.0120
10234W        W25703   9.161  18.071  16.009  0.0130 -0.0036 -0.1385
10235W        W25704  16.263  15.071   1.409  0.1678 -0.0226  0.3117
10236W        W25705   1.905   3.842   3.143 -0.2258  0.1169  0.0876
10237W        W25706  12.030  14.445   1.305 -0.0436 -0.3062 -0.0443
10238W        W25707  10.249  14.614  10.737 -0.0338 -0.0941 -0.3163
10239W        W25708   0.207   1.744   2.942 -0.0839 -0.0130 -0.0313
10240W        W25709   3.507  10.082  12.779 -0.2667 -0.0798  0.1125
10241W        W25710  10.369  10.369  13.637  0.1003 -0.1435 -0.1459
10242W        W25711   3.152   1.288   3.664  0.2586 -0.1932 -0.3623
10243W        W25712  17.169  10.634  12.509 -0.2297 -0.1932  0.1789
10244W        W25713   1.876   0.293   2.432  0.1427 -0.1956  0.1963
10245W        W25714   5.113   7.118  15.420  0.2169  0.5121 -0.0222
10246W        W25715   4.057  11.577  14.491  0.0686 -0.0487  0.0751
10247W        W25716   8.785   3.265   2.896 -0.4098 -0.0145 -0.0040
10248W        W25717   8.623  14.639   5.663 -0.0779  0.2057 -0.4684
10249W        W25718   3.898  14.461  12.687  0.3294  0.0195 -0.1594
10250W        W25719  10.689  12.584  10.428 -0.2228  0.0043  0.2023
10251W        W25720  16.473  17.777   3.261 -0.5438 -0.0536 -0.0953
10252W        W25721  13.317   7.310  11.725 -0.1672 -0.2009  0.0685
10253W        W25722  10.708   4.197  12.158  0.1458 -0.4187 -0.1717
10254W        W25723  13.747  11.442  13.061  0.2240 -0.0983 -0.2046
10255W        W25724   2.139   7.141   3.810  0.0699 -0.0803 -0.1414
10256W        W25725   8.901  15.532  14.858 -0.0296  0.0448 -0.0541
10257W        W25726  15.884   6.699   2.350  0.1736 -0.0961  0.0745
10258W        W25727   7.726  17.319   0.144 -0.3214 -0.1969 -0.0635
10259W        W25728  18.112   8.611  11.983 -0.2119 -0.1124  0.1195
10260W        W25729  11.016   5.424  15.548 -0.3886  0.2020  0.2162
10261W        W25730  15.027   9.540   0.283  0.0044  0.4281 -0.0239
10262W        W25731   6.751  16.634   5.268  0.2208  0.0119 -0.1726
10263W        W25732  15.375  13.379   4.961  0.2940  0.1917 -0.0024
10264W        W25733   5.323  15.683   1.921  0.2275  0.0438 -0.0562
10265W        W25734  10.801   5.944  12.077  0.0365  0.0485 -0.2190
10266W        W25735  10.189   5.748  12.283  0.1900  0.1028 -0.2322
10267W        W25736   1.750  18.340   3.756  0.0910 -0.2030 -0.0703
10268W        W25737  16.862   8.738   0.040  0.1533 -0.0407 -0.0147
10269W        W25738   6.911   0.919  13.968 -0.2652 -0.2165  0.2246
10270W        W25739  12.320  10.952  13.368  0.4088 -0.1110  0.0171
10271W        W25740  15.809  14.990   2.943  0.0675 -0.0018  0.1233
10272W        W25741   4.020   1.663  13.906  0.1092  0.0373 -0.0289
10273W        W25742  10.431   9.434   3.417 -0.2883 -0.0090  0.2675
10274W        W25743  14.824   5.059   4.905  0.0024 -0.1647 -0.1062
10275W        W25744   2.843  16.387  13.612 -0.0143  0.3018 -0.2574
10276W        W25745  15.806  10.132   1.138  0.0652 -0.1380 -0.2227
10277W        W25746  10.561   8.302   0.275 -0.1151  0.4232 -0.0125
10278W        W25747  13.278   7.404  11.082 -0.0830 -0.0762 -0.0969
10279W        W25748   2.761  16.828   4.512  0.0817  0.1891  0.0158
10280W        W25749  14.903   6.849  15.751  0.0459 -0.2111 -0.1203
10281W        W25750   0.847   5.928   2.570  0.0829 -0.3210 -0.0615
10282W        W25751  17.808  11.666   3.381 -0.1433  0.2722  0.0878
10283W        W25752   8.043   1.890  14.032  0.0556 -0.0185 -0.0055
10284W        W25753  14.728   3.467   2.448 -0.3287  0.3874 -0.0793
10285W        W25754   1.206   8.891  12.802  0.1808 -0.0910  0.0892
10286W        W25755   9.733  14.798  10.964 -0.3709 -0.1296  0.3041
10287W        W25756   2.971   7.659   4.102 -0.1502 -0.1531  0.0987
10288W        W25757   3.667   7.603   0.878  0.2805 -0.0152  0.2791
10289W        W25758  16.339  15.783   2.378 -0.0734 -0.0897 -0.0003
10290W        W25759  14.797  17.748   1.793 -0.2131 -0.0363  0.2035
10291W        W25760  17.586  12.302   0.588 -0.0313 -0.0970 -0.3678
10292W        W25761   5.824  13.068  14.630  0.3015  0.2662 -0.0327
10293W        W25762   6.431   1.699  14.138 -0.0595 -0.1027 -0.1755
10294W        W25763  15.692  14.116  11.773 -0.0551 -0.0235 -0.0063
10295W        W25764  14.684  16.578  14.014  0.1353  0.6029 -0.2848
10296W        W25765   4.365  18.304  13.788 -0.1309  0.3513 -0.0234
10297W        W25766   6.283  17.722  11.026  0.1015 -0.1023  0.0090
10298W        W25767  16.561   6.778   0.670 -0.3160  0.0771  0.2288
10299W        W25768  16.051  14.174   1.264  0.1248 -0.0298  0.0480
10300W        W25769  16.832  13.932   4.759 -0.2988 -0.0379  0.1858
10301W        W25770  13.626   8.833  11.442 -0.1448  0.0625  0.2563
10302W        W25771  17.963   1.101   2.593  0.0922  0.2249 -0.1871
10303W        W25772   8.716   8.906   4.715 -0.2159 -0.1419  0.0582
10304W        W25773   6.506  14.567  13.813  0.0031  0.1599 -0.2389
10305W        W25774   7.609   0.763   4.981  0.0063 -0.1201  0.3175
10306W        W25775   1.203  14.636   4.348  0.0625 -0.2293 -0.1523
10307W        W25776   3.979  13.572   9.899  0.3931 -0.2597 -0.1289
10308W        W25777  17.748   8.802  13.509  0.1116  0.0951 -0.1299
10309W        W25778   6.679   2.402  15.469  0.0794  0.1298 -0.2224
10310W        W25779  10.300   1.373  12.584 -0.1194  0.2851  0.0181
10311W        W25780   7.481   4.550  14.270 -0.1504 -0.1908 -0.0937
10312W        W25781  17.310  13.894  15.686  0.1847  0.0374  0.1246
10313W        W25782  16.158   0.958  13.481 -0.1874 -0.3031 -0.0523
10314W        W25783   8.305   3.386   3.016  0.5811 -0.0980  0.0952
10315W        W25784  17.351  15.970  12.302 -0.1844  0.1724  0.0502
10316W        W25785  11.390   4.750  13.207  0.0717  0.2380  0.0722
10317W        W25786   7.907   2.625  13.042 -0.1220  0.1798  0.1655
10318W        W25787   1.694  17.233   3.582  0.2812 -0.2183  0.1692
10319W        W25788   0.531   0.720  15.754 -0.0342  0.1261 -0.1110
10320W        W25789  15.403  12.212   5.149 -0.0424  0.1582 -0.1146
10321W        W25790  16.074  17.143  15.102  0.0367 -0.1153  0.2296
10322W        W25791   7.002   5.310   1.624  0.1530 -0.3492 -0.1802
10323W        W25792  12.171   3.399  12.901  0.0990 -0.1180 -0.0315
10324W        W25793  12.972  16.166   1.334 -0.3471 -0.1569 -0.1839
10325W        W25794  15.913   8.359  13.983 -0.1588  0.0740 -0.0844
10326W        W25795   9.657   1.718  12.968 -0.1433  0.1086  0.0152
10327W        W25796  16.716   3.172   0.923 -0.1298  0.1785  0.2926
10328W        W25797  10.585   6.850  15.985  0.1457  0.1295  0.1013
10329W        W25798  11.707   2.288   1.130  0.0107  0.1043  0.0985
10330W        W25799   3.974  15.366   2.441  0.0740  0.1821  0.2421
10331W        W25800  15.006   5.602   5.035  0.1142  0.0418  0.0051
10332W        W25801  18.092  15.342  12.415  0.2249 -0.0159 -0.1003
10333W        W25802   8.802   9.652   1.335  0.0700  0.1930 -0.1340
10334W        W25803   8.072   5.909  11.803  0.0906 -0.0023 -0.3407
10335W        W25804   0.801  10.679   1.534  0.3350 -0.0043  0.1999
10336W        W25805  15.573  15.191   4.558  0.1906  0.0683  0.1032
10337W        W25806   3.960   2.197  13.425  0.1043 -0.1003  0.1314
10338W        W25807   4.904   6.592   4.099  0.1439  0.2200  0.0506
10339W        W25808   4.596   3.914   4.293  0.3342  0.2155 -0.0714
10340W        W25809   9.810  10.452  13.586 -0.0628  0.0290 -0.0106
10341W        W25810   7.140   4.896   3.995  0.2745 -0.3561  0.0631
10342W        W25811   5.258  10.097  10.627  0.0133 -0.1131  0.0832
10343W        W25812  17.381   5.115   5.072  0.1734 -0.1155 -0.1460
10344W        W25813   6.193   2.299  12.443 -0.0495 -0.0778  0.0928
10345W        W25814  11.430   9.925  13.825  0.0941 -0.1041 -0.2677
10346W        W25815  17.837   4.585   4.968 -0.1465  0.0165  0.0854
10347W        W25816   4.561   1.958   3.288 -0.0034 -0.2160 -0.2970
10348W        W25817   1.972  16.506   2.963 -0.0998 -0.0566  0.0396
10349W        W25818   3.333   5.006  12.285 -0.0793 -0.2682  0.1285
10350W        W25819  15.224   7.236  12.854 -0.2867 -0.0227 -0.0085
10351W        W25820   9.714   3.310  13.814  0.0426  0.2514  0.0309
10352W        W25821  15.245   9.732   5.350  0.0443  0.0934  0.3302
10353W        W25822   6.682   4.345   5.091  0.0402  0.2990 -0.0409
10354W        W25823  15.888   5.233   5.037  0.0792  0.0222  0.0379
10355W        W25824   5.402  17.666  12.577 -0.1555  0.0520  0.0497
10356W        W25825  16.325  12.202  13.100 -0.0292 -0.4440 -0.0956
10357W        W25826  11.321   1.878   0.157 -0.1898 -0.0546  0.1846
10358W        W25827   6.672  14.084  11.182  0.0166 -0.1291 -0.1096
10359W        W25828  10.967   2.521  12.665 -0.2091 -0.0372  0.0215
10360W        W25829   4.647   7.815   0.536 -0.1658  0.0188 -0.3825
10361W        W25830   3.762   3.493   5.384  0.2950 -0.0520  0.1349
10362W        W25831   3.937  12.269   0.938 -0.0268 -0.0485 -0.0352
10363W        W25832  17.762   7.545   2.058 -0.2582 -0.1549 -0.2179
10364W        W25833  15.399  18.166  10.242  0.1302  0.1984  0.3352
10365W        W25834  17.950   4.172   2.427 -0.1384 -0.0837  0.0024
10366W        W25835   9.022   8.490   1.259 -0.2162 -0.0984 -0.2301
10367W        W25836  16.567   6.107   4.296 -0.1643 -0.2449 -0.0031
10368W        W25837   4.370  17.202  14.797 -0.0149  0.1506 -0.3335
10369W        W25838   0.887  12.480   4.681 -0.0515 -0.2709  0.1840
10370W        W25839   1.797   4.980   0.293  0.1329 -0.0263  0.3486
10371W        W25840  11.274  15.250   2.650  0.0271 -0.1249 -0.1454
10372W        W25841   1.165  17.967   0.941  0.1557  0.1435 -0.2873
10373W        W25842   2.465  14.160   4.629  0.0862 -0.0482  0.1754
10374W        W25843   9.284   4.688   5.135 -0.5194 -0.1451  0.1352
10375W        W25844   0.906   1.023  13.625 -0.1521 -0.3955  0.2936
10376W        W25845  17.948  17.716  12.962  0.2187 -0.1219 -0.1781
10377W        W25846   5.508   2.718  13.919  0.1612 -0.3502  0.1643
10378W        W25847  13.351  16.677  14.667 -0.0594  0.3347 -0.2060
10379W        W25848   4.460   1.374   3.913  0.0599 -0.0996 -0.0076
10380W        W25849  15.696  12.181  15.527  0.1641  0.0539 -0.4101
10381W        W25850   7.875   7.509  14.626 -0.0260  0.4182 -0.0594
10382W        W25851   2.390   9.082  11.058  0.1922  0.0105 -0.0387
10383W        W25852   8.443   1.577   0.992  0.3915 -0.4560 -0.3185
10384W        W25853  17.058   2.183   5.522  0.0862  0.1712  0.2119
10385W        W25854   6.393   6.362   4.303  0.1302  0.4241  0.2953
10386W        W25855  10.390   9.755  10.284 -0.1217 -0.1537  0.0444
10387W        W25856   4.658   5.758  13.695 -0.4022 -0.2798 -0.1626
10388W        W25857   6.026   8.549   2.793  0.3484 -0.0611  0.2286
10389W        W25858  10.198   6.291   2.346 -0.0571  0.1438 -0.1637
10390W        W25859   9.308  16.006  13.416  0.0740 -0.3502 -0.0188
10391W        W25860  14.112   5.560  13.454  0.0551 -0.1049 -0.0735
10392W        W25861   4.928   2.871   3.312  0.0670  0.0242 -0.0473
10393W        W25862   9.564   8.866   2.330 -0.1782  0.3288 -0.2059
10394W        W25863   4.047   2.585   3.095  0.2551 -0.1338 -0.0672
10395W        W25864   2.353   1.863   4.667 -0.0389  0.0811  0.0626
10396W        W25865   9.368   8.156  11.393  0.1117  0.1139 -0.2269
10397W        W25866  14.490  15.871   5.010  0.2385  0.2443 -0.2896
10398W        W25867   1.840   1.231   1.557 -0.2847  0.0375 -0.1372
10399W        W25868   5.747  13.383  12.487 -0.1561  0.0908  0.1620
10400W        W25869   1.483   1.534   1.865 -0.0446  0.1932  0.0045
10401W        W25870   6.666  12.441  14.791  0.1104 -0.4228 -0.0896
10402W        W25871  17.214  10.186  13.711 -0.0566  0.0127 -0.1407
10403W        W25872   1.677   7.473  11.215 -0.1593 -0.1041  0.1320
10404W        W25873   8.650   5.775  16.030 -0.1022  0.1173  0.0938
10405W        W25874  15.882   3.780  11.244 -0.2758 -0.1710 -0.2654
10406W        W25875   3.752  13.078   1.385  0.0828 -0.1332  0.0197
10407W        W25876   0.732   2.002   3.352 -0.1679 -0.3692 -0.1748
10408W        W25877  13.308   6.262   1.175  0.2603  0.4301 -0.2638
10409W        W25878   4.118   7.182  12.380 -0.1976  0.2189  0.1400
10410W        W25879   4.384  10.474  12.978 -0.0448 -0.1163  0.0968
10411W        W25880   2.554  12.623  13.965  0.0104  0.1022 -0.1162
10412W        W25881  11.109   8.038   5.067 -0.0127 -0.0344  0.2222
10413W        W25882  12.529  10.846   4.471  0.1326  0.0724 -0.1839
10414W        W25883  13.162  16.721  14.119 -0.2217  0.3692 -0.2916
10415W        W25884   5.648  16.506  10.762 -0.0805 -0.1408 -0.0619
10416W        W25885  14.270   3.935   6.524 -0.0299 -0.1620  0.0331
10417W        W25886   7.392  10.561  13.017  0.1781  0.2261 -0.1599
10418W        W25887  14.563   5.645  10.099  0.0476  0.1017  0.0803
10419W        W25888   1.330   4.512   1.876 -0.4994 -0.0275  0.1907
10420W        W25889   0.207   7.730  11.666  0.3850  0.0184  0.0594
10421W        W25890  10.864   5.809  14.558  0.0662 -0.2948 -0.1211
10422W        W25891   6.424   4.437  12.069 -0.1553 -0.2544  0.0385
10423W        W25892   6.794   2.566  13.779 -0.0094  0.2707 -0.0041
10424W        W25893   4.580   8.956  11.925  0.1298 -0.1726 -0.1587
10425W        W25894  15.461   2.850  13.322 -0.0233  0.0535 -0.1016
10426W        W25895   7.655   0.572  14.740  0.1749 -0.0288 -0.1821
10427W        W25896   5.961  10.424  15.663 -0.0882 -0.1487  0.1108
10428W        W25897  17.549  13.422  13.092  0.0772 -0.0502  0.0561
10429W        W25898   5.459   6.981   0.579 -0.0921  0.1337  0.1993
10430W        W25899   7.290   9.444   3.106 -0.2532  0.0315 -0.0216
10431W        W25900   1.081  13.719  11.441  0.0119  0.2739  0.1423
10432W        W25901  14.201  16.099   5.786 -0.3520 -0.1808 -0.1189
10433W        W25902   4.191  10.608  14.334  0.0974 -0.1593  0.3559
10434W        W25903  13.076   9.799  11.480 -0.1719 -0.2241  0.0682
10435W        W25904   2.180  15.067  11.343 -0.2094 -0.2429  0.1165
10436W        W25905  13.195  16.395   0.928  0.0182  0.5452 -0.0341
10437W        W25906   4.455   8.476   3.740 -0.2506  0.0327 -0.1453
10438W        W25907   5.615   0.447   4.203 -0.0999  0.0601 -0.2276
10439W        W25908   9.764  12.098  15.897 -0.0785 -0.2015  0.0140
10440W        W25909   4.443  13.265   4.968  0.1789 -0.0602 -0.0813
10441W        W25910  16.027   1.897   0.326 -0.7268 -0.2656  0.0791
10442W        W25911   3.809  11.054  11.003  0.0010  0.0120  0.2221
10443W        W25912   0.155  14.965  11.416 -0.0893 -0.0388  0.2593
10444W        W25913   1.058  12.507   3.344  0.0801 -0.1921 -0.2148
10445W        W25914   1.312   3.753   3.006 -0.5792 -0.1880 -0.0564
10446W        W25915  14.534   5.023  12.738 -0.1825  0.2473  0.0463
10447W        W25916  15.002  16.384  15.581 -0.0677  0.2180 -0.0811
10448W        W25917  14.383  11.800   4.757  0.2108 -0.1164  0.4185
10449W        W25918  13.916  12.072  10.657  0.1371 -0.0203  0.0196
10450W        W25919   2.264  12.446   4.017  0.1001 -0.3291  0.2891
10451W        W25920   0.388   1.314  15.039 -0.0568  0.1083  0.0420
10452W        W25921   1.667   5.707   2.201  0.0445 -0.1264 -0.3024
10453W        W25922  10.024   7.619   2.405 -0.1506  0.3505  0.0192
10454W        W25923   4.068   7.749   6.021  0.1367  0.1362 -0.5231
10455W        W25924  12.294  16.321  11.814 -0.1880  0.0453 -0.2080
10456W        W25925  11.225  12.239   3.663  0.1417  0.1828 -0.2491
10457W        W25926  16.955   7.160   0.086 -0.0083  0.0200 -0.0881
10458W        W25927   5.783   4.516   2.415 -0.1248  0.2166 -0.3172
10459W        W25928   5.457  12.625   1.303  0.2158 -0.0735 -0.1931
10460W        W25929   6.990  13.498   3.313 -0.2500  0.0340 -0.0431
10461W        W25930  11.510  18.311   3.702 -0.0232 -0.4140  0.3818
10462W        W25931   3.267   1.149   2.751 -0.0379  0.0715  0.0822
10463W        W25932   9.925   1.599   2.134 -0.1353  0.1287 -0.3026
10464W        W25933   2.318   2.821  11.820 -0.2680  0.1680  0.2251
10465W        W25934   9.484  10.770   3.621  0.2308  0.1196  0.2497
10466W        W25935   1.479   7.796   4.475 -0.0011 -0.0600 -0.1033
10467W        W25936  18.219   9.741  11.882 -0.0063  0.1413  0.0015
10468W        W25937  10.785   5.102   5.142  0.2049  0.1512 -0.2606
10469W        W25938  10.831  13.882  13.788  0.2188  0.3027 -0.1996
10470W        W25939   3.243  16.414   0.096  0.0865 -0.0777 -0.3433
10471W        W25940   2.046   5.309   1.206  0.3843 -0.0771  0.0868
10472W        W25941   3.796  12.992   0.323  0.0485 -0.0198  0.1308
10473W        W25942   5.083   7.678   0.194 -0.1721 -0.0113 -0.2120
10474W        W25943   9.219  17.299   2.983 -0.3590 -0.1385  0.0153
10475W        W25944   7.130  11.359  12.521 -0.2090 -0.1133 -0.1171
10476W        W25945   6.054  12.818   0.010 -0.1773  0.1945 -0.2279
10477W        W25946  18.037  17.233  12.678 -0.3176  0.1313  0.0097
10478W        W25947   1.091   4.690   2.289  0.0618  0.3602  0.0030
10479W        W25948   8.431   1.078  11.101  0.0338  0.0486  0.0693
10480W        W25949   1.545  11.124   1.669  0.0353 -0.1434 -0.0977
10481W        W25950  16.735   4.568  14.043  0.1237  0.1360 -0.0944
10482W        W25951  11.928  13.828  13.370 -0.4634 -0.2139 -0.1968
10483W        W25952   8.404   0.683  14.235  0.2627 -0.0873  0.2061
10484W        W25953  13.212   9.403  15.537  0.1081  0.0704  0.1057
10485W        W25954  11.500  11.333   5.142 -0.1854 -0.0381  0.1700
10486W        W25955  11.961   3.849  11.508 -0.2404  0.0622 -0.2027
10487W        W25956  11.125   9.773  11.062  0.1931  0.1630 -0.1492
10488W        W25957  12.339   2.495  12.727  0.1690 -0.1433 -0.0738
10489W        W25958   9.894   7.323  12.627 -0.0411  0.0416  0.0921
10490W        W25959   4.524   0.515   1.949  0.2942 -0.4303 -0.0629
10491W        W25960  15.235  13.533   3.492  0.0750  0.2499  0.0335
10492W        W25961   3.634   6.914   3.317 -0.1727 -0.0188 -0.2745
10493W        W25962  15.131  14.274   1.318 -0.3751 -0.1124  0.4094
10494W        W25963   8.862   3.270   1.831 -0.0707  0.2043 -0.0191
10495W        W25964   3.150   5.026   1.294 -0.3827  0.0327  0.1707
10496W        W25965  11.723  15.379   2.987  0.0746 -0.0284 -0.1112
10497W        W25966  16.232  13.922  12.337 -0.2266  0.0329  0.0598
10498W        W25967   4.982   5.378   0.958 -0.3819 -0.2613  0.0688
10499W        W25968  14.971  16.980   0.127  0.1400 -0.0486  0.1265
10500W        W25969   2.490   7.131  14.965  0.1871 -0.0489 -0.0694
10501W        W25970  15.496   4.008   1.212  0.1958 -0.0726 -0.0440
10502W        W25971   4.216  10.619  11.699 -0.1649 -0.1033 -0.1328
10503W        W25972   5.955   9.332  14.735 -0.2056  0.2131  0.1164
10504W        W25973   4.933   4.496   1.830 -0.2288  0.0444  0.1315
10505W        W25974   8.026   3.790  11.371 -0.0835  0.1558  0.1739
10506W        W25975  14.804   5.549   3.204 -0.2973  0.4428 -0.0050
10507W        W25976  15.312  11.267  14.043 -0.0669 -0.1079  0.2609
10508W        W25977  14.699  15.781   2.065 -0.1341  0.0171 -0.0432
10509W        W25978   6.521   3.233   2.122 -0.1490 -0.2831  0.3556
10510W        W25979  17.422   3.644   2.518  0.2381  0.1217  0.0097
10511W        W25980  14.654  11.407   4.758 -0.0432 -0.0923 -0.1395
10512W        W25981   2.075  13.994   0.997  0.3481 -0.0427 -0.1440
10513W        W25982   9.624  17.851  13.051 -0.3168 -0.0958 -0.2138
10514W        W25983   7.449  15.663   0.597  0.1404  0.0362 -0.2069
10515W        W25984   6.148   1.893   0.975  0.1038  0.2403 -0.0503
10516W        W25985  13.115  18.199   0.950 -0.0062 -0.1428 -0.2906
10517W        W25986  11.353   6.564  15.255 -0.1141  0.1395 -0.0091
10518W        W25987  18.330  17.141   4.029 -0.0720  0.1057 -0.1621
10519W        W25988   9.264   2.745   5.183  0.0117  0.0583 -0.1465
10520W        W25989   9.979   3.881   3.694  0.1251  0.0951  0.1366
10521W        W25990   5.779  11.791  12.471 -0.4393 -0.2103 -0.1769
10522W        W25991   1.910   6.735  12.336 -0.3172  0.0009 -0.1739
10523W        W25992   5.969   3.470   2.269 -0.0950 -0.0025  0.0211
10524W        W25993  14.280  11.822   0.721 -0.3872 -0.1350 -0.3598
10525W        W25994  17.539   4.620   2.841 -0.1848 -0.1898 -0.2715
10526W        W25995   3.680  16.890   2.166  0.1555  0.0859 -0.1742
10527W        W25996   7.497   7.104   4.641 -0.0782 -0.1224 -0.3639
10528W        W25997   8.082  16.665   4.330  0.2694  0.1396 -0.0866
10529W        W25998  12.063   6.807  13.759  0.2052  0.2922  0.1687
10530W        W25999   7.940   1.055  12.769  0.0306 -0.2151 -0.2764
10531W        W26000   1.432   2.268  14.386 -0.0036  0.0115  0.3876
10532W        W26001   5.810   4.753  13.599  0.0011 -0.3177 -0.1404
10533W        W26002  17.731   2.901   2.998  0.0836 -0.1750  0.0755
10534W        W26003  10.806   9.150   1.155  0.1311  0.1093 -0.2127
10535W        W26004  11.247   2.632   2.263  0.0699  0.3307 -0.1503
10536W        W26005   8.897  15.990  10.797  0.2697 -0.1120 -0.0736
10537W        W26006  12.179   0.474   2.366  0.0137  0.0243  0.0316
10538W        W26007   2.050   4.699  12.783 -0.0055  0.0604 -0.2202
10539W        W26008  13.963  12.910  10.233  0.0471  0.0100 -0.1493
10540W        W26009   9.438  16.927   3.253  0.0552  0.4066  0.0019
10541W        W26010   4.377  12.639   2.138 -0.1962 -0.0602  0.0935
10542W        W26011  11.136  14.253   4.674 -0.2558 -0.0273  0.2121
10543W        W26012  12.544  12.548   3.009 -0.0863  0.1717 -0.4590
10544W        W26013  12.880   1.555   4.070  0.0842 -0.2336 -0.0790
10545W        W26014  12.444   4.501  12.117 -0.0955 -0.0887 -0.0869
10546W        W26015  16.068  16.139   3.929  0.0896 -0.2092 -0.1016
10547W        W26016   7.980   5.013   5.997  0.2163  0.1596 -0.0414
10548W        W26017   6.584   2.187  12.102 -0.2616  0.0031  0.1463
10549W        W26018   1.864  14.344  11.748 -0.0153  0.0258 -0.1419
10550W        W26019  10.821  18.252   4.341  0.2169  0.0893 -0.1823
10551W        W26020   7.504   0.158   0.778 -0.2226 -0.0578  0.0632
10552W        W26021   1.970  12.851   1.594 -0.1980  0.1336 -0.0005
10553W        W26022   2.998   2.927   3.948  0.0642 -0.1376  0.1509
10554W        W26023  15.998   3.544   5.184 -0.2259  0.0103  0.1031
10555W        W26024   7.062   8.245   4.106  0.1873 -0.0040 -0.1617
10556W        W26025   9.991   6.205   1.422 -0.0604 -0.1126  0.2215
10557W        W26026   5.723   7.682   2.889 -0.1768 -0.4904  0.1349
10558W        W26027   3.295   8.670   4.628 -0.0606 -0.1020  0.1395
10559W        W26028  18.144   9.809   3.572  0.1460  0.0500 -0.1472
10560W        W26029  11.230  11.857  15.707  0.2312 -0.2211 -0.0744
10561W        W26030   0.407   6.489   1.886  0.3412  0.1818  0.0071
10562W        W26031  12.886   9.364   5.179  0.0595 -0.1120  0.4260
10563W        W26032   8.363   7.416   4.510 -0.1009 -0.0828 -0.3631
10564W        W26033   7.252   2.749  11.948  0.1664 -0.0459 -0.1783
10565W        W26034  16.021   8.151  12.044  0.0967  0.0633 -0.0640
10566W        W26035  10.381   6.154  13.388  0.0662 -0.2276  0.0323
10567W        W26036  14.201   0.496   1.714 -0.2759 -0.4781  0.2986
10568W        W26037  10.905  14.479   2.958  0.1634  0.3543  0.1535
10569W        W26038   6.513  15.676  11.656 -0.0220  0.2909 -0.0550
10570W        W26039   1.955   1.199   3.967 -0.3921  0.0307  0.0519
10571W        W26040  10.687   5.494   3.514  0.0332  0.1809 -0.1574
10572W        W26041  13.183  17.974   0.416 -0.1549 -0.1099 -0.3666
10573W        W26042  16.416  10.773   2.836  0.0610  0.1186 -0.2344
10574W        W26043  16.072  16.150  13.378 -0.0412 -0.0018 -0.1427
10575W        W26044  15.313   2.215   5.405 -0.1857  0.1470  0.1057
10576W        W26045   8.353   0.712  13.491 -0.2157 -0.1840  0.4062
10577W        W26046  10.283  17.993   4.865 -0.5785  0.2241  0.0691
10578W        W26047   7.708   0.170  13.914 -0.2728 -0.3781 -0.1014
10579W        W26048  16.722   6.887   1.162  0.1194  0.0786  0.0693
10580W        W26049  11.679  10.341   3.170  0.0145 -0.2056  0.1908
10581W        W26050  10.282   6.097   4.040  0.0268 -0.1604 -0.0808
10582W        W26051   1.369   0.453   0.796 -0.2834  0.0693 -0.2552
10583W        W26052   5.587   7.234   2.669 -0.3889 -0.2660 -0.0297
10584W        W26053  16.113  16.435   1.564  0.3891 -0.3512 -0.4288
10585W        W26054   2.860  11.477   5.594 -0.0749  0.1926  0.2199
10586W        W26055  12.934   1.170  13.713  0.2049  0.3888  0.1648
10587W        W26056  12.631   4.594  13.900 -0.1422 -0.4509 -0.0507
10588W        W26057   7.744  13.875   2.010 -0.2345  0.3796  0.3984
10589W        W26058   2.146   6.379  13.049  0.2506 -0.1513  0.1502
10590W        W26059  14.315   3.554   5.360 -0.0665  0.0706  0.1830
10591W        W26060   7.471  12.168  13.233 -0.1358  0.2362 -0.0548
10592W        W26061   8.058  16.816  11.534 -0.0103 -0.1114 -0.1971
10593W        W26062  14.002  13.116   3.864 -0.1472  0.0595  0.0831
10594W        W26063  16.908   0.736  11.171 -0.0544 -0.2008  0.1245
10595W        W26064  11.267   5.099  12.838 -0.0554 -0.0540  0.0681
10596W        W26065  14.193  10.283   2.134 -0.1967 -0.0496 -0.0619
10597W        W26066   5.082   8.399   5.420  0.2210 -0.1587 -0.0998
10598W        W26067  13.672  16.330   5.076  0.2869 -0.0243  0.3319
10599W        W26068  11.444  17.000  13.958 -0.1191  0.2309 -0.1236
10600W        W26069   9.134  17.929   4.726 -0.0859  0.1891  0.1214
10601W        W26070   9.898  14.374  14.905  0.1416  0.0433  0.1359
10602W        W26071   2.653  14.649  13.763 -0.1082 -0.1536  0.0084
10603W        W26072  12.055   9.149   2.996 -0.0124 -0.0509 -0.2366
10604W        W26073   7.294   3.642   5.384 -0.1477  0.1018  0.0847
10605W        W26074  17.379  13.460   5.999  0.3842  0.0066  0.0971
10606W        W26075  15.281   6.406  13.780  0.0382 -0.1164 -0.3941
10607W        W26076   0.582   4.941   3.137 -0.0602  0.0461 -0.1807
10608W        W26077   2.182   6.552  13.921  0.0642 -0.3337  0.1298
10609W        W26078   9.588   6.369  14.445 -0.0828  0.1542 -0.0389
10610W        W26079   9.012  14.569   0.900 -0.1490  0.0076  0.4091
10611W        W26080  15.702   8.414   1.390  0.1142  0.1302  0.0421
10612W        W26081  14.617   3.029   3.121 -0.1624  0.2054 -0.0111
10613W        W26082   5.880   6.545  13.184  0.1412  0.3725  0.1425
10614W        W26083  12.600   6.636  13.550 -0.3226 -0.3171 -0.1790
10615W        W26084  11.177   0.742   3.254  0.1577 -0.0429 -0.2135
10616W        W26085   6.563   4.273  13.745  0.2609  0.0105 -0.1906
10617W        W26086  15.513   3.222   4.409  0.1059  0.1367  0.0047
10618W        W26087   3.990   5.984  14.206  0.5137 -0.0293  0.1578
10619W        W26088  11.699   0.577  11.509  0.0640 -0.0630  0.2301
10620W        W26089  11.415  14.153   0.291  0.0417  0.2753  0.1265
10621W        W26090  11.108  16.012   2.752 -0.0130  0.0179  0.0416
10622W        W26091   7.489  13.337  15.436  0.1520 -0.0663  0.0160
10623W        W26092  11.128   2.387   0.081 -0.2512  0.0619  0.2539
10624W        W26093   4.559  12.462   3.997  0.0940  0.0114 -0.1095
10625W        W26094   3.680   2.494   4.318 -0.1289 -0.1022 -0.0749
10626W        W26095   4.334  11.051  11.429  0.1649 -0.5371  0.1655
10627W        W26096   2.849   3.540   5.491  0.1889 -0.0932 -0.1107
10628W        W26097   8.278  15.828   0.896  0.0218  0.1053  0.0174
10629W        W26098   0.695   2.747   5.825 -0.0963 -0.0792  0.1839
10630W        W26099   1.258  10.526  13.224 -0.3705  0.1924 -0.0056
10631W        W26100   4.173   3.071   2.672 -0.3304  0.2212 -0.2187
10632W        W26101  15.827   7.905  12.458 -0.0954  0.2050 -0.1422
10633W        W26102  14.850  12.592   9.803  0.1915  0.3095  0.0809
10634W        W26103  12.101   2.412  14.135  0.2945 -0.2094  0.0502
10635W        W26104   9.626   2.602  13.255 -0.1526 -0.0683  0.1530
10636W        W26105  13.991   6.895   1.094  0.0762 -0.0613  0.0779
10637W        W26106   3.718   8.077   2.921 -0.0278 -0.1040  0.1630
10638W        W26107   5.108   0.056  13.329 -0.1150  0.0990 -0.0561
10639W        W26108  17.424   7.765   3.367  0.1666 -0.1445  0.3156
10640W        W26109   6.913  16.827   0.209 -0.3207 -0.2273  0.2810
10641W        W26110   2.388   3.344   1.341 -0.1152  0.2005  0.0579
10642W        W26111  14.476   5.494  15.903 -0.2332 -0.0876 -0.0085
10643W        W26112  14.289  13.421   5.279 -0.0085 -0.2725  0.2512
10644W        W26113  10.662   0.678   3.183 -0.0122 -0.2002  0.0889
10645W        W26114  12.037   9.503  10.675  0.2148  0.0678 -0.0816
10646W        W26115   3.952  17.284  13.985 -0.0181  0.0237  0.0391
10647W        W26116   2.365   6.257   1.604 -0.2326  0.0926 -0.0227
10648W        W26117  18.040  14.911  13.833  0.2080  0.2238  0.1911
10649W        W26118  11.347   2.832  12.743 -0.1084  0.0508  0.3607
10650W        W26119  16.921   5.731   4.064 -0.0853  0.2853  0.1880
10651W        W26120  16.037  13.686  15.863 -0.2016  0.0107  0.0682
10652W        W26121  16.141  16.622  13.153  0.1634 -0.1594  0.0385
10653W        W26122   8.888  16.388   3.120  0.0579 -0.3973 -0.2467
10654W        W26123  13.090  13.609   5.373 -0.1127 -0.3604  0.2258
10655W        W26124   3.339  10.918  14.828 -0.2033  0.0251 -0.1311
10656W        W26125  14.304   9.420   1.459  0.0513  0.1745 -0.1824
10657W        W26126   3.962  16.746  15.481 -0.2857  0.0004  0.3873
10658W        W26127   0.536  14.380   5.115  0.2777  0.1556  0.1955
10659W        W26128   1.069   2.216   4.855 -0.0483  0.0662  0.0414
10660W        W26129   3.025   2.270  14.397 -0.2799  0.3147 -0.0641
10661W        W26130   7.367   2.945   2.960  0.0354 -0.0642  0.2311
10662W        W26131   5.472  13.084  15.200  0.1469 -0.4986 -0.0238
10663W        W26132  13.826  13.950  15.957 -0.0280 -0.0641  0.1751
10664W        W26133   0.421  12.361   5.909  0.1347 -0.0062  0.3759
10665W        W26134   6.670   0.136   1.997 -0.0213 -0.2951 -0.0977
10666W        W26135   4.957   3.705   0.480  0.0560 -0.3337 -0.0454
10667W        W26136  15.626   9.843  12.007  0.1057  0.1330  0.3732
10668W        W26137   2.578  17.279  11.899 -0.0055 -0.2929 -0.1539
10669W        W26138   3.676  14.096  10.479  0.2430  0.3466 -0.2281
10670W        W26139  18.167   6.895   3.320 -0.1784  0.0921 -0.1505
10671W        W26140  10.588  16.392   0.849 -0.0126 -0.2043  0.0035
10672W        W26141  15.852   1.635   3.015  0.1352 -0.1021 -0.0159
10673W        W26142  17.253   3.318  14.409 -0.2317  0.0340  0.1459
10674W        W26143   2.829  16.691  14.795  0.2238 -0.0399 -0.0915
10675W        W26144   4.253  13.315   0.572  0.2684 -0.2015 -0.0915
10676W        W26145  11.458  10.591  12.733  0.3472 -0.1390  0.0779
10677W        W26146  17.685  15.561  13.244 -0.3316 -0.1378 -0.0234
10678W        W26147   7.720  16.363   2.887 -0.0122  0.1116  0.3698
10679W        W26148   1.791   7.991  11.549  0.0753  0.2530  0.0436
10680W        W26149   1.500   6.219   5.580  0.0223  0.1698  0.3115
10681W        W26150   0.240   7.144  13.261  0.0739  0.1846 -0.2712
10682W        W26151  17.709   0.227  15.950  0.1287  0.0017  0.2852
10683W        W26152  10.882   4.753  14.725 -0.5145  0.1204 -0.0715
10684W        W26153   3.395  15.288   4.158 -0.2813 -0.2098 -0.1559
10685W        W26154  11.615   4.460  13.521 -0.1307  0.1527 -0.1474
10686W        W26155  11.725   9.034   5.431  0.2231 -0.2278 -0.1702
10687W        W26156  11.625  15.644  15.873  0.0163  0.2249 -0.1437
10688W        W26157   4.936  13.892  15.008  0.0815 -0.2421 -0.3393
10689W        W26158   1.932   5.756   5.696  0.0471  0.1445 -0.1774
10690W        W26159  13.883   5.208  14.160 -0.0616 -0.1097  0.4017
10691W        W26160   1.293   3.718  15.871  0.1617 -0.0982  0.0037
10692W        W26161   0.231   8.389   1.408 -0.1123 -0.0174  0.1225
10693W        W26162  15.038  13.027  15.811 -0.3127  0.1928  0.3209
10694W        W26163   6.548   1.244  13.809  0.1657  0.0833  0.0845
10695W        W26164   2.422   9.849  14.078 -0.0084 -0.2303 -0.1253
10696W        W26165  12.141  18.450  12.291 -0.2407  0.0088 -0.3105
10697W        W26166   4.730   4.773   0.872  0.0518 -0.1400 -0.2000
10698W        W26167   7.855  11.798   2.768  0.1781 -0.3239 -0.1221
10699W        W26168  14.997  17.128   2.406  0.0685 -0.2829  0.0223
10700W        W26169   8.648   1.756   1.914  0.3214 -0.1552 -0.1765
10701W        W26170   1.822  13.567  13.002  0.1896  0.1079  0.3440
10702W        W26171  10.288  11.857   1.660  0.0710  0.0265 -0.0678
10703W        W26172   8.501   0.241  12.508  0.0726  0.0499 -0.1781
10704W        W26173   0.421   0.457   0.976  0.2734 -0.2977  0.0537
10705W        W26174   2.611   0.406   0.727 -0.1732 -0.1348 -0.0091
10706W        W26175  16.021   3.794   2.365  0.2933 -0.1221  0.1173
10707W        W26176   0.671   7.117   5.500  0.0991  0.0351 -0.2137
10708W        W26177   8.726   2.413  11.312 -0.1448 -0.1627 -0.2209
10709W        W26178   3.724   3.869  14.476  0.0242  0.4990  0.0831
10710W        W26179   4.653  12.690  13.952  0.1659  0.2345  0.2234
10711W        W26180  14.745   6.407  11.667  0.1083  0.1080 -0.1937
10712W        W26181   6.661  13.506   4.646 -0.1502 -0.2579 -0.1341
10713W        W26182  13.415   5.692   3.424  0.1026  0.1317 -0.0638
10714W        W26183   6.796  12.474   3.063 -0.2857  0.2882  0.3299
10715W        W26184  14.676  10.756   3.510  0.2279  0.0341  0.1149
10716W        W26185  11.472  13.096  15.356 -0.0120 -0.4355 -0.0111
10717W        W26186   6.319  16.583   1.661 -0.1651 -0.2706 -0.1534
10718W        W26187   5.435  17.569  12.051 -0.0994  0.0447 -0.2049
10719W        W26188  15.637  12.375  11.592  0.0157  0.4111 -0.1445
10720W        W26189  17.130   1.897   0.282  0.2242  0.0222  0.1161
10721W        W26190  13.201  13.670  10.867  0.2432 -0.3683  0.1215
10722W        W26191  11.227  17.888  13.765  0.2164  0.3972  0.0923
10723W        W26192   6.581  15.996  13.277  0.1248 -0.2513 -0.0959
10724W        W26193  16.671  16.082   0.882  0.1116 -0.4543  0.1812
10725W        W26194   4.580   5.037  11.714 -0.1830  0.1396  0.2112
10726W        W26195   1.844   7.314  13.638 -0.4970  0.0848  0.2715
10727W        W26196   1.053   5.337   4.660  0.1367 -0.1787 -0.2560
10728W        W26197   5.376  17.675  10.110  0.2534  0.0443  0.0077
10729W        W26198  13.065  18.413   1.900  0.1488  0.1317 -0.1387
10730W        W26199  12.280  11.813   4.240  0.0980  0.1478 -0.4974
10731W        W26200  16.659   5.869   1.695 -0.1183 -0.0847 -0.1222
10732W        W26201  10.245   1.297   1.194 -0.2418 -0.0132 -0.0266
10733W        W26202  12.993   8.797   0.128 -0.0871 -0.0729 -0.1725
10734W        W26203  17.244   7.723  10.434  0.0683  0.2185  0.0368
10735W        W26204   7.746  18.044  12.184 -0.4725  0.0369 -0.1339
10736W        W26205  16.895   3.200   4.590  0.0386 -0.3307 -0.0599
10737W        W26206  13.386   6.326  11.664  0.1676 -0.1588  0.0921
10738W        W26207  12.993  10.135  13.763  0.0507  0.2746 -0.2582
10739W        W26208  17.847   5.557  10.460  0.0214  0.1595 -0.0406
10740W        W26209  10.399   7.831  15.887 -0.0536 -0.2691  0.0398
10741W        W26210  14.435   7.408   0.837 -0.0485 -0.0374  0.1132
10742W        W26211  13.182   7.558   5.376 -0.0517 -0.0938 -0.0828
10743W        W26212  18.014  16.676  11.785  0.1085  0.2694 -0.5470
10744W        W26213  15.390   6.141  10.264 -0.5236 -0.0395 -0.1095
10745W        W26214  14.633   7.783   0.371 -0.1174 -0.2649 -0.0530
10746W        W26215   0.864   0.240   5.999  0.2179 -0.2410  0.2843
10747W        W26216   5.876   0.829  12.270  0.2136  0.1828  0.0218
10748W        W26217   9.269  13.792  12.199  0.0312 -0.4531 -0.1564
10749W        W26218   4.096  11.723   5.537  0.2844 -0.4841  0.0915
10750W        W26219   2.380   7.135  13.236 -0.1489  0.0771 -0.1153
10751W        W26220   1.920   2.371  14.661 -0.0046 -0.1189  0.0301
10752W        W26221  15.516   6.158  12.268 -0.1668 -0.0211 -0.0925
10753W        W26222   3.521  11.557   1.440 -0.1466  0.2190 -0.2000
10754W        W26223  10.127  12.102  10.574 -0.0346  0.2057  0.2374
10755W        W26224   5.093  14.592   3.129  0.2985 -0.0854  0.1800
10756W        W26225  13.571  16.099   0.385  0.0482  0.4518  0.0684
10757W        W26226  12.999  13.772   2.772 -0.1896  0.3959 -0.0217
10758W        W26227   4.378   0.871  13.770  0.2545 -0.0441  0.0485
10759W        W26228  17.181  13.473   4.034 -0.0272 -0.3800  0.0626
10760W        W26229  17.323  14.111  12.078 -0.1329  0.1134  0.0989
10761W        W26230  10.017  15.318  13.475 -0.0176  0.1565  0.2960
10762W        W26231   8.583  15.452   3.998 -0.1462  0.2661  0.2523
10763W        W26232  14.874   2.309  16.028  0.0527  0.1922 -0.4056
10764W        W26233  12.120  18.202  11.817 -0.2859  0.2019  0.2194
10765W        W26234  17.473  18.319  13.572 -0.2628 -0.0948 -0.0729
10766W        W26235  13.524  10.843  13.950 -0.1325  0.0898 -0.0402
10767W        W26236   2.271   3.972  12.261 -0.1474 -0.1894  0.0284
10768W        W26237  13.922  18.210   5.140  0.2590  0.1172 -0.0767
10769W        W26238   6.262   5.162   1.651 -0.1086 -0.0165  0.1489
10770W        W26239   9.014   0.911   4.527 -0.1642 -0.1809  0.1808
10771W        W26240  16.970   8.088   2.669 -0.0643  0.4123 -0.0316
10772W        W26241  12.572   7.700  14.517 -0.1225 -0.1953  0.0869
10773W        W26242   2.239  14.868   9.839  0.1108  0.1337  0.0260
10774W        W26243   1.956   7.374   2.951  0.0073 -0.3701 -0.4568
10775W        W26244  17.595  17.428  10.824  0.1394 -0.0680  0.0529
10776W        W26245  16.450  11.976   3.628 -0.0905 -0.0242 -0.1987
10777W        W26246  16.533   4.360   4.199  0.0152 -0.0313  0.0720
10778W        W26247  10.975   5.780  12.606  0.3850  0.1337 -0.0858
10779W        W26248   1.846  17.218  10.688  0.0011 -0.2901  0.0991
10780W        W26249   9.680   0.507   4.214  0.2669  0.2223  0.2765
10781W        W26250   0.857   3.273  12.832  0.0355 -0.0746 -0.1407
10782W        W26251  13.175  13.083   5.180  0.2645 -0.0251 -0.2151
10783W        W26252  17.373  16.302   3.269 -0.0071  0.1646  0.0473
10784W        W26253   1.654  15.484   0.897 -0.0441  0.0773  0.2103
10785W        W26254   7.586  10.249   0.817  0.0855 -0.0200 -0.3402
10786W        W26255   0.025  16.343   1.531 -0.0646 -0.0509 -0.3309
10787W        W26256   0.520   8.793   3.107  0.1398 -0.0580 -0.0526
10788W        W26257   1.128   7.336  12.638 -0.1205 -0.2037 -0.4032
10789W        W26258  15.166  16.159  13.217 -0.1461 -0.1928 -0.0808
10790W        W26259  11.858  14.480   3.204  0.2709  0.2292 -0.2353
10791W        W26260  12.335   1.128   2.946  0.2614  0.1369  0.0819
10792W        W26261  10.153  10.614   3.182  0.0734 -0.1963  0.1932
10793W        W26262  16.445   5.858   0.848 -0.1997  0.2308 -0.1489
10794W        W26263  10.003  15.897   1.359 -0.1011 -0.1838 -0.0540
10795W        W26264  14.709  15.472  11.556  0.0896 -0.0467 -0.2105
10796W        W26265  15.804   4.436   3.484  0.1161  0.0246 -0.1143
10797W        W26266   6.158  13.715   2.789  0.1668  0.2264  0.0672
10798W        W26267   1.151   2.348   3.312 -0.1220  0.0753 -0.0272
10799W        W26268  10.971   2.126   3.707 -0.2713 -0.0331 -0.2298
10800W        W26269  14.414   3.987  14.289  0.0090  0.3095  0.1900
10801W        W26270  18.285  10.395  13.506  0.1642 -0.0283 -0.2964
10802W        W26271  14.678  17.620  11.207  0.2449  0.1832 -0.1695
10803W        W26272  12.304  17.379  15.653  0.0413 -0.1783  0.0532
10804W        W26273  12.242   1.434   4.326 -0.3024 -0.0122  0.1146
10805W        W26274   6.118   0.655  11.345  0.3194  0.1123  0.1625
10806W        W26275  11.626  12.023   3.428 -0.1155  0.0511  0.3508
10807W        W26276  17.705   7.142  12.284 -0.0287  0.0659  0.0280
10808W        W26277  16.106   6.500   5.722  0.0137 -0.0785  0.1154
10809W        W26278   0.795   7.512  14.497 -0.1808  0.2591  0.0785
10810W        W26279   9.962   2.548   3.580  0.1403  0.1825  0.0558
10811W        W26280   9.366   6.576   2.662 -0.0715  0.0995  0.4178
10812W        W26281   2.959   7.881   5.723  0.1556  0.3676  0.2921
10813W        W26282  17.127   0.039   3.805 -0.0044 -0.1531 -0.0579
10814W        W26283  12.208  10.401   2.434  0.2714  0.1364 -0.2129
10815W        W26284   6.241   7.844   0.990  0.0339 -0.2170  0.1536
10816W        W26285   2.842   3.202   1.673 -0.2338 -0.0714  0.0567
10817W        W26286  12.137  13.391  11.838  0.1439  0.0728 -0.2364
10818W        W26287   6.323  11.097  12.968  0.1518 -0.1150 -0.3745
10819W        W26288   5.348   9.525  10.659 -0.1291 -0.0277  0.5374
10820W        W26289  13.923   6.455  14.183 -0.0912  0.1135  0.0906
10821W        W26290   4.959  13.586   1.840  0.3986 -0.1549  0.0959
10822W        W26291   3.315  15.304  12.591 -0.0380 -0.1098  0.1175
10823W        W26292  11.107  11.357   2.754  0.2988  0.1964  0.1350
10824W        W26293   1.432  12.854  13.661  0.2800  0.1162 -0.1456
10825W        W26294  17.879  17.809  15.722 -0.0573 -0.1041  0.2464
10826W        W26295  11.368   6.540  13.187 -0.0609  0.0732  0.1514
10827W        W26296  11.188   0.903  13.970 -0.0140 -0.0969  0.1228
10828W        W26297  13.941  10.409  10.936  0.3130 -0.0242 -0.1508
10829W        W26298  10.272   2.093   2.998 -0.1201  0.0321 -0.0331
10830W        W26299  15.931   3.214  11.640  0.0326  0.3281 -0.0502
10831W        W26300   9.438  16.860   0.496 -0.0028 -0.0155  0.2279
10832W        W26301   0.143   3.621   1.898 -0.2968  0.0169  0.2290
10833W        W26302  14.388  15.731  11.322 -0.0284 -0.5240 -0.2193
10834W        W26303   1.777   1.661   3.903  0.2016  0.1028  0.0286
10835W        W26304   5.447   8.438   3.400 -0.0481 -0.0366  0.1849
10836W        W26305   2.268  18.452   5.988 -0.1796 -0.0092  0.1400
10837W        W26306  11.784   7.971  11.942 -0.0829  0.2128 -0.1609
10838W        W26307   3.283   4.626   3.933 -0.1441  0.2101  0.1626
10839W        W26308   4.533   9.277  12.346 -0.2433 -0.1400 -0.4043
10840W        W26309   3.885   8.570   2.857  0.0947 -0.0584  0.3457
10841W        W26310   6.739  18.027   3.050 -0.2091 -0.2415 -0.0718
10842W        W26311   0.288   0.913   0.830 -0.0726  0.1215  0.0888
10843W        W26312   9.056   3.759   0.599  0.2822  0.0204 -0.0763
10844W        W26313  17.684   8.804  15.763  0.0705 -0.0567 -0.2192
10845W        W26314  17.338  16.350   9.776  0.2465 -0.3414  0.0920
10846W        W26315  16.047  10.336   1.521  0.1344  0.2494  0.0351
10847W        W26316  10.574   0.565   4.666  0.2083 -0.0937 -0.0914
10848W        W26317   4.928  15.051   2.940  0.2664 -0.1410  0.1111
10849W        W26318  17.050   9.862   5.039 -0.2614  0.0985  0.1475
10850W        W26319  17.544  15.393   2.429  0.0770 -0.2192  0.2411
10851W        W26320   3.499   7.695   3.843 -0.0847  0.0783 -0.0688
10852W        W26321  12.726  12.406  13.418  0.0515  0.0455  0.2810
10853W        W26322   7.192  16.240  13.363  0.1967 -0.2256 -0.2383
10854W        W26323   8.867   7.973  12.080 -0.1701 -0.1767 -0.2929
10855W        W26324  14.436   6.664  12.440  0.1271  0.0396  0.1959
10856W        W26325   4.278  13.939   3.487 -0.0457  0.0876 -0.3688
10857W        W26326  18.390   9.822   1.704 -0.0993  0.2251 -0.2879
10858W        W26327   4.344  16.053  12.193  0.2171  0.0717  0.0975
10859W        W26328  18.291   4.032   0.598  0.3139  0.2501 -0.1307
10860W        W26329  12.728   9.460   5.617 -0.1361 -0.3795 -0.1503
10861W        W26330  17.414   7.927   1.981 -0.0691  0.0168 -0.3128
10862W        W26331   2.912   3.365   4.201  0.1064  0.2600 -0.1022
10863W        W26332   4.892   7.563  10.057  0.0863 -0.0116  0.1160
10864W        W26333  10.010   3.168   0.243 -0.2150 -0.0180  0.1903
10865W        W26334  15.543   3.395   1.990 -0.3886  0.4343 -0.2104
10866W        W26335  14.829   9.820  11.284  0.0490 -0.0788 -0.0005
10867W        W26336   2.060  15.341   3.685  0.1919  0.3158  0.1931
10868W        W26337  16.425   2.273   0.238 -0.0594 -0.2237  0.0877
10869W        W26338   3.594   2.388   2.989  0.0336  0.1531  0.2088
10870W        W26339  17.698  13.550   0.057  0.0571  0.0483 -0.3166
10871W        W26340  14.734  10.619  15.374  0.0506 -0.0233 -0.1995
10872W        W26341   5.953   8.898  13.412  0.0012 -0.1250  0.1874
10873W        W26342   8.281   0.460  15.690  0.2986  0.2065 -0.2523
10874W        W26343   3.757   5.612  15.412 -0.0041  0.1401  0.0162
10875W        W26344   9.925   9.147   1.026 -0.0141 -0.4888  0.2242
10876W        W26345  17.206   1.594   3.848 -0.1012  0.0196 -0.1407
10877W        W26346   3.527  11.439  12.713 -0.4497  0.0497 -0.3777
10878W        W26347   4.435  15.584   3.291 -0.0240 -0.2581 -0.0370
10879W        W26348   2.361   6.519  11.653 -0.5477  0.1008 -0.0027
10880W        W26349   5.575  10.438  13.721  0.1403 -0.1337 -0.1531
10881W        W26350   2.954  17.797   2.172  0.2584  0.2148  0.1832
10882W        W26351  18.016   5.987   2.099 -0.0949 -0.1541 -0.2097
10883W        W26352  12.517  11.244  13.016  0.2251 -0.0005  0.2747
10884W        W26353  10.719   5.118   0.842 -0.0688 -0.0742 -0.1531
10885W        W26354   0.047   4.113   2.230  0.1687 -0.0009 -0.2698
10886W        W26355   7.016  12.345   2.597 -0.0379  0.1456 -0.1554
10887W        W26356   0.142  13.108   3.195  0.0268 -0.0889  0.1753
10888W        W26357   3.891  15.980  14.747 -0.3691  0.1739 -0.1894
10889W        W26358  12.730   1.070  10.857  0.3199 -0.1476  0.0326
10890W        W26359  10.826  12.056  10.608 -0.0091  0.1010  0.0003
10891W        W26360   3.399  10.961  10.186  0.0577  0.0748  0.1961
10892W        W26361   1.413  17.278  11.407  0.0851  0.3226  0.0771
10893W        W26362   4.297   8.838  15.476 -0.4177 -0.0558  0.2792
10894W        W26363   6.679   5.780  15.227  0.0046 -0.0379 -0.4612
10895W        W26364  10.488  18.462   2.696 -0.1258 -0.3767  0.1567
10896W        W26365   1.322  16.243  14.179 -0.1262 -0.0884  0.1674
10897W        W26366  15.355   8.431   6.009  0.0162  0.1312  0.0075
10898W        W26367   2.454  14.161  14.507 -0.1315 -0.0265  0.2431
10899W        W26368   2.150  17.900  15.231  0.3055  0.0798 -0.0791
10900W        W26369  13.862   9.435   4.673 -0.2333  0.2846  0.1656
10901W        W26370   1.149  14.935   0.767 -0.2362 -0.3384 -0.0774
10902W        W26371   8.695  10.688   0.875  0.2685 -0.0874  0.0328
10903W        W26372   7.969  10.627   0.085 -0.1519 -0.1898  0.0063
10904W        W26373  17.398  15.351  15.679 -0.0203 -0.2454  0.1318
10905W        W26374   4.258   2.945   5.922 -0.1651 -0.0460 -0.1509
10906W        W26375  17.867   1.096  14.179  0.1952  0.2547 -0.1187
10907W        W26376   3.585   0.250   4.585  0.0180 -0.1850  0.3262
10908W        W26377   4.444   0.099   2.761  0.4361 -0.0492 -0.1775
10909W        W26378   7.170  11.717   2.810  0.0565 -0.0536  0.0706
10910W        W26379  11.027  18.089   1.845 -0.2221 -0.0621  0.0024
10911W        W26380  16.603  11.267   1.277 -0.5044 -0.0920 -0.1642
10912W        W26381  12.726   1.209   0.325 -0.1180 -0.0046  0.1796
10913W        W26382  17.949   0.083   2.761  0.1484 -0.0798  0.0482
10914W        W26383   0.414  15.142  15.527  0.2448 -0.0572  0.0960
10915W        W26384   2.632  10.837  14.234 -0.0621  0.1729 -0.2806
10916W        W26385   6.889   4.770   4.810  0.0706 -0.1156 -0.1018
10917W        W26386   1.994   3.560   0.604 -0.0012 -0.1227 -0.0158
10918W        W26387  17.485   6.109   2.232  0.1807 -0.0818  0.2334
10919W        W26388  16.247  12.711  11.148  0.1421  0.2032  0.0446
10920W        W26389   6.421   4.492   5.682  0.1025  0.0413 -0.0395
10921W        W26390   2.974  12.368  13.033 -0.2129 -0.2668 -0.0661
10922W        W26391   3.534   3.379  14.290  0.1453 -0.2540 -0.0030
10923W        W26392  11.161  12.434  10.459  0.2145 -0.1152 -0.0216
10924W        W26393   8.214   3.967   4.490 -0.0980  0.1661  0.1801
10925W        W26394   2.140  11.799   2.558 -0.2817  0.1158 -0.0086
10926W        W26395   0.615  11.152   0.847 -0.0189 -0.1149  0.2189
10927W        W26396  12.293  11.350   4.369  0.2304 -0.1143 -0.3061
10928W        W26397   3.061  17.173  12.905  0.1348  0.1886  0.1529
10929W        W26398   0.913   2.716  15.566  0.2190 -0.1008  0.1962
10930W        W26399   7.309  13.493  13.221 -0.0702 -0.2685 -0.1402
10931W        W26400  13.484  17.675   1.029  0.1242  0.3185  0.4800
10932W        W26401   8.435   0.624   1.920  0.0848 -0.1732 -0.2284
10933W        W26402   3.829   2.253   2.420 -0.1086  0.1054 -0.2176
10934W        W26403  18.018   9.249  15.810  0.0666  0.0822  0.1797
10935W        W26404  13.888   0.529   1.287 -0.1839 -0.1029  0.0698
10936W        W26405  12.467  11.560  14.452 -0.2058  0.3186 -0.0976
10937W        W26406  18.043   1.262   1.610  0.0265 -0.2370  0.1785
10938W        W26407   1.599   8.152   3.704 -0.1451 -0.0670  0.0518
10939W        W26408   4.093   8.339  10.130 -0.0139 -0.0414 -0.1469
10940W        W26409  14.957   6.227   3.770 -0.0784 -0.0394 -0.1458
10941W        W26410  16.126   1.840  12.670  0.0571  0.0691 -0.0931
10942W        W26411   3.838  10.890  11.470 -0.1731  0.4205  0.2653
10943W        W26412  11.425   7.224  13.675  0.1234 -0.0767  0.2687
10944W        W26413  11.313   9.792   5.884 -0.0398 -0.2063 -0.1644
10945W        W26414   3.732   9.801   5.188 -0.0023  0.1625 -0.2998
10946W        W26415   6.696  11.005  15.783  0.1362 -0.1678 -0.0690
10947W        W26416  11.340   0.263   0.961 -0.2902  0.0333  0.1901
10948W        W26417   0.722  17.131  12.577  0.1566 -0.1093  0.0358
10949W        W26418   2.644   0.899  14.388 -0.3263 -0.1983  0.0822
10950W        W26419   9.402   4.313   2.141  0.1062  0.2090  0.0037
10951W        W26420  12.219   6.475   1.630  0.0374  0.1181 -0.2085
10952W        W26421   4.726   3.819   1.794  0.0007 -0.2158 -0.0343
10953W        W26422  14.565   4.508  14.016 -0.1473 -0.2175 -0.0418
10954W        W26423   1.600  16.704  14.164 -0.0114  0.0087 -0.3504
10955W        W26424  11.678   6.880  11.899  0.0676  0.0990 -0.1857
10956W        W26425  11.259   6.932   6.061 -0.1844  0.1013  0.1725
10957W        W26426   7.734  11.155  11.882 -0.0262  0.0060  0.0547
10958W        W26427  15.553  16.549   3.829 -0.1405  0.2873  0.2108
10959W        W26428  16.564  16.360  15.079 -0.1117 -0.0239 -0.0954
10960W        W26429   3.334   6.604  14.189  0.1828 -0.0162  0.2267
10961W        W26430  12.278  13.280   2.356 -0.2699  0.1002  0.1865
10962W        W26431  16.306  16.102   0.178 -0.0656 -0.0547 -0.0721
10963W        W26432  16.188  18.345   3.400  0.2136  0.4322 -0.0753
10964W        W26433   4.671   5.480   5.965  0.2284  0.1708 -0.4838
10965W        W26434  16.254  11.052  15.310 -0.2749  0.0941 -0.0503
10966W        W26435   8.890  10.741  12.301 -0.2849 -0.0202 -0.3404
10967W        W26436   5.715   4.103  15.055 -0.1194  0.0206  0.1955
10968W        W26437  13.936   8.827   4.782 -0.0605  0.3661  0.2154
10969W        W26438   9.562   5.679  13.798 -0.3470  0.1320 -0.2214
10970W        W26439   8.620  15.108   0.171 -0.0589 -0.0998 -0.2166
10971W        W26440   8.385   7.085  10.366  0.2077 -0.1640  0.1022
10972W        W26441   9.798   3.941   0.919 -0.2302  0.1451  0.0674
10973W        W26442   9.854  12.175   1.505  0.2068 -0.0237  0.2648
10974W        W26443   7.865  10.574  13.719 -0.0089 -0.1826 -0.3345
10975W        W26444  11.784  10.756   1.613  0.1019  0.2096 -0.0391
10976W        W26445   5.501   6.084  11.895  0.1357 -0.3586 -0.4867
10977W        W26446  11.742   1.284   5.964 -0.1547 -0.0888  0.0604
10978W        W26447   0.460   0.241   0.543 -0.0873  0.2411 -0.2310
10979W        W26448   4.345   6.414   3.473  0.1705 -0.0477  0.2406
10980W        W26449   3.463   9.377  14.555 -0.0860  0.0885  0.3067
10981W        W26450  16.968  13.591  10.378 -0.0544  0.4054 -0.0100
10982W        W26451   5.547   5.537  12.801 -0.0960 -0.0024  0.0633
10983W        W26452  17.355   8.887   5.128  0.0705 -0.1146 -0.1941
10984W        W26453  14.956  14.742   1.342  0.0042 -0.1681 -0.1677
10985W        W26454  14.304   1.710   2.630 -0.2030 -0.1170 -0.2110
10986W        W26455   1.759   3.222  12.325  0.2630  0.0745 -0.2281
10987W        W26456   2.574  14.890   4.353 -0.1928  0.0930 -0.2449
10988W        W26457  12.318  15.606  13.766  0.1023 -0.1887 -0.0210
10989W        W26458   2.629  16.154   5.906  0.0588 -0.0577  0.0990
10990W        W26459  12.116   0.271  10.627 -0.4201  0.0317 -0.3693
10991W        W26460  10.533   7.060   1.754  0.2042 -0.0384 -0.0721
10992W        W26461   0.506  13.952   3.232 -0.1113  0.2252  0.0466
10993W        W26462   5.377   3.158  14.009  0.1082 -0.0033 -0.0501
10994W        W26463   0.885  14.850   1.252  0.0042 -0.0120 -0.1225
10995W        W26464  13.857  11.938  13.779  0.2378 -0.4240  0.4923
10996W        W26465   1.563  10.222  14.562  0.4452 -0.2558  0.1183
10997W        W26466   9.743   9.766  12.934 -0.3581  0.1998 -0.0306
10998W        W26467   0.945  14.040  13.271  0.1513  0.2225 -0.0196
10999W        W26468   3.243  15.558  15.660 -0.0841  0.0360  0.2668
11000W        W26469  13.594   0.451  11.615  0.0255 -0.2179 -0.0261
11001W        W26470  10.049   6.736   1.513 -0.1570 -0.1122 -0.2136
11002W        W26471   2.731  17.550  14.348 -0.0234 -0.0081  0.1749
11003W        W26472   5.123  13.720  11.849  0.1755  0.1706 -0.1786
11004W        W26473   2.095   6.846   5.813 -0.1652 -0.2039 -0.0219
11005W        W26474  16.744   4.378  15.392  0.2368 -0.1415  0.1826
11006W        W26475   2.286   2.152   3.335 -0.2342  0.0423 -0.0635
11007W        W26476   3.130   2.200   5.071  0.2006  0.0749  0.1055
11008W        W26477  15.220   7.938   0.197  0.1218 -0.1254 -0.0933
11009W        W26478   0.569   0.193  15.221 -0.0079  0.0945 -0.1540
11010W        W26479   0.185   0.771  14.876 -0.0191  0.0574  0.2083
11011W        W26480   7.106  11.557   0.259 -0.4820 -0.3163  0.0982
11012W        W26481   5.997   0.547   0.816  0.2007 -0.0758  0.3073
11013W        W26482   7.278   4.820  12.842 -0.1446  0.1468 -0.2415
11014W        W26483  13.669  10.091  11.841  0.1786  0.3092 -0.0556
11015W        W26484  16.473   2.107   4.276  0.0336 -0.0145  0.2104
11016W        W26485   1.643   8.533  15.787 -0.0510  0.0783  0.0096
11017W        W26486   6.111  18.166  12.808  0.2605  0.0904 -0.2662
11018W        W26487  17.655  14.475  13.102  0.0561  0.0748  0.0027
11019W        W26488  15.173   9.838  15.300 -0.1490  0.0249  0.2352
11020W        W26489   6.854  12.724   4.377  0.0613 -0.0641 -0.3199
11021W        W26490  17.551  17.239   2.718 -0.1193  0.0843  0.2627
11022W        W26491  15.414   4.111  14.239 -0.0042  0.1318 -0.0514
11023W        W26492   5.408  15.148  14.581  0.1310  0.0952 -0.0114
11024W        W26493  13.935   0.556   4.435 -0.2412  0.3051  0.0623
11025W        W26494  16.976   6.165   0.531  0.2347 -0.0558  0.0008
11026W        W26495  15.146   4.760   0.744 -0.0035 -0.1122 -0.1201
11027W        W26496  12.850  12.093   4.289  0.2296 -0.1137  0.1517
11028W        W26497   7.175   2.858   0.828 -0.2331  0.0524  0.0066
11029W        W26498  14.088   1.653   0.754  0.0815  0.1308 -0.4978
11030W        W26499  17.105  17.165   1.616  0.1683 -0.1434  0.0076
11031W        W26500  17.423  15.354   5.039  0.0991  0.0923  0.1361
11032W        W26501  12.378  13.627  12.379  0.0626  0.2211  0.1098
11033W        W26502   5.890  11.654  14.057  0.3105 -0.0111 -0.1185
11034W        W26503  14.828   2.425   0.727  0.0783 -0.1213  0.1014
11035W        W26504   4.753  16.858  11.045 -0.3475  0.0400 -0.1407
11036W        W26505   3.482  11.320   5.555  0.0210 -0.0617  0.1073
11037W        W26506   6.092   2.758   1.663  0.4727 -0.1134 -0.1239
11038W        W26507   5.334   1.584   3.093 -0.2756 -0.1305 -0.0081
11039W        W26508  12.960   2.676   3.818  0.0787  0.0068 -0.0420
11040W        W26509  17.834   8.149  13.480  0.1302 -0.0930 -0.0692
11041W        W26510   7.237   0.490  13.041 -0.1274  0.0286 -0.3117
11042W        W26511   1.569   1.483   4.341  0.0384  0.4234 -0.0142
11043W        W26512   7.543   6.708  13.610 -0.2233 -0.1219 -0.2387
11044W        W26513  18.022   6.205  15.153 -0.2107  0.1857 -0.1600
11045W        W26514  16.223   6.359  13.728 -0.0452  0.0269 -0.2959
11046W        W26515  13.334  13.145   3.149  0.4002  0.0076  0.1641
11047W        W26516  11.952  16.178   2.389  0.3050  0.0729  0.1716
11048W        W26517   2.503   6.653   1.264  0.2793 -0.2855  0.1514
11049W        W26518  11.741  14.705  12.463 -0.0133 -0.4826 -0.0861
11050W        W26519   3.930   2.120  11.748 -0.0443  0.2129 -0.0889
11051W        W26520  12.087   5.887   0.481 -0.0818  0.1369  0.3651
11052W        W26521   8.449  14.319  13.353  0.0580 -0.0752 -0.1780
11053W        W26522   4.511  11.917  14.596  0.2215 -0.0817 -0.3155
11054W        W26523  15.080  16.422  12.842  0.2655  0.3595 -0.1226
11055W        W26524  13.193  13.055  12.326 -0.3873 -0.1934  0.1432
11056W        W26525  16.276  15.570  11.004 -0.0987  0.2223 -0.0094
11057W        W26526  12.326   3.987  15.657 -0.0207 -0.1640 -0.1318
11058W        W26527   8.236   0.371   2.911  0.0521  0.4033 -0.1389
11059W        W26528   6.221  14.861   4.648  0.5376 -0.2522  0.1009
11060W        W26529   1.462   8.352  11.622 -0.0414  0.4225  0.0255
11061W        W26530  13.106  15.740   0.419 -0.1486 -0.1505 -0.1831
11062W        W26531  14.761  10.392   2.763 -0.0330  0.0201 -0.0045
11063W        W26532   9.702   1.465   0.499  0.3059 -0.2853 -0.2302
11064W        W26533  13.465   0.745  15.905 -0.2730 -0.0290 -0.0746
11065W        W26534  10.115   7.073   3.718  0.3683 -0.1476 -0.1213
11066W        W26535   0.936  13.278   2.835 -0.1949  0.0361  0.2240
11067W        W26536  10.478   9.500  15.784  0.0393  0.3079  0.0164
11068W        W26537  14.511   5.605  14.377  0.2290 -0.1521 -0.2017
11069W        W26538   4.875   0.422  12.545 -0.0060 -0.5092 -0.3618
11070W        W26539   4.605   4.628   3.942 -0.1669 -0.0127 -0.3636
11071W        W26540   7.410   6.015   1.415 -0.2120 -0.2068 -0.1860
11072W        W26541  12.836  15.653  13.931 -0.1321  0.3319  0.2063
11073W        W26542  15.217   6.331   0.851  0.2208  0.0878 -0.0446
11074W        W26543   0.723  15.373   0.923 -0.0489 -0.0515 -0.0275
11075W        W26544  10.325  15.388   1.854 -0.1336  0.0731 -0.2673
11076W        W26545   5.751  14.049   4.622 -0.1389 -0.2525 -0.0767
11077W        W26546  10.075  11.961  12.644  0.0504  0.1833 -0.2658
11078W        W26547  10.489   0.845   5.898  0.0214  0.1171  0.0958
11079W        W26548   3.367  10.185  11.189 -0.0206 -0.0577  0.0345
11080W        W26549   0.876   8.548   4.672  0.0222  0.1148  0.2461
11081W        W26550   3.323   8.337   5.023  0.2744  0.1003 -0.1789
11082W        W26551   7.977  10.542   2.700  0.1194  0.3044 -0.1243
11083W        W26552   4.917  12.747  14.448 -0.0660  0.4140 -0.3691
11084W        W26553  17.770   7.882   4.289  0.1360 -0.2789 -0.0178
11085W        W26554   2.027  12.375   1.013  0.1875  0.0988  0.0325
11086W        W26555  10.869   9.212   0.505 -0.0927  0.0849 -0.3113
11087W        W26556  11.098  15.186   4.093  0.1357  0.0155 -0.2091
11088W        W26557  11.033   8.959   4.965 -0.0715  0.0446 -0.2547
11089W        W26558  13.054  14.141   3.880 -0.0397  0.2280 -0.4600
11090W        W26559   5.339  13.689  11.276  0.0112 -0.0490 -0.0050
11091W        W26560   9.595  16.430   0.235  0.2645  0.0973 -0.1150
11092W        W26561   9.166  10.787   0.938 -0.4058  0.0466 -0.2860
11093W        W26562   4.274   6.007   4.084 -0.1381  0.0221  0.3439
11094W        W26563   7.414  10.632   4.871 -0.0672 -0.1044 -0.1586
11095W        W26564   6.674  15.836   4.903  0.1845 -0.0381 -0.0399
11096W        W26565   1.511  10.673  11.749  0.3444 -0.1999  0.1352
11097W        W26566   0.770   2.167  15.627  0.2018  0.3860  0.2148
11098W        W26567  16.663   5.098   0.317 -0.1393  0.1440  0.2321
11099W        W26568   2.449  15.091  10.901  0.1792 -0.1695 -0.0398
11100W        W26569  10.404  16.965  10.776  0.0703  0.1896 -0.0703
11101W        W26570   3.394   9.473   1.623  0.3837  0.1374 -0.1441
11102W        W26571  15.465   4.840  12.392 -0.3317 -0.0933  0.1147
11103W        W26572   3.783  18.349   2.199  0.1963  0.1138 -0.4796
11104W        W26573   0.216  17.443   3.362  0.0575  0.4879  0.1680
11105W        W26574  16.482  13.902   0.034 -0.0676  0.2526  0.0118
11106W        W26575  14.802  12.594   1.545 -0.2014 -0.2188 -0.0843
11107W        W26576   3.570   3.121  15.708  0.1608 -0.2005  0.2295
11108W        W26577  15.340   9.257   0.071 -0.0163  0.0236 -0.1513
11109W        W26578   0.919   6.280   0.501  0.1309  0.0376  0.0960
11110W        W26579   6.709   2.826  11.380  0.3405 -0.1918 -0.0018
11111W        W26580  17.488  16.556  14.058 -0.1897 -0.1637  0.1391
11112W        W26581  17.000  15.810   2.980  0.1868 -0.1965 -0.0500
11113W        W26582   0.418   3.304   5.697  0.1857 -0.1946 -0.0691
11114W        W26583   7.445  13.355  11.572 -0.0888  0.1385 -0.1112
11115W        W26584   5.179  11.239   5.303  0.1195 -0.1754  0.0581
11116W        W26585  17.308  17.776   2.921 -0.0305 -0.1065 -0.0355
11117W        W26586  14.476   4.460   5.715 -0.0177  0.2231  0.0105
11118W        W26587   6.187  11.500   5.458  0.4408  0.1728 -0.3023
11119W        W26588  14.743  18.009  15.385  0.1442  0.3804  0.1359
11120W        W26589  14.844   5.492  12.575  0.1792 -0.0032  0.0573
11121W        W26590   5.266   6.278   6.296  0.2177  0.0243  0.0247
11122W        W26591  14.638   5.485   0.755  0.0547  0.2650  0.0414
11123W        W26592   5.716  12.156   2.913 -0.3835  0.1320  0.0829
11124W        W26593  11.666   7.433  12.648 -0.0690  0.0768  0.2076
11125W        W26594   3.083  13.748   0.504  0.1017 -0.1737 -0.0550
11126W        W26595   2.387   5.639   3.055 -0.2825 -0.1356  0.0315
11127W        W26596  17.284   8.601   0.735  0.3481  0.1209  0.0665
11128W        W26597  16.748   2.731  11.341 -0.0059  0.2254  0.0393
11129W        W26598   2.775  10.232  12.142 -0.3757 -0.3652  0.1816
11130W        W26599  16.055  12.301  12.089 -0.1035  0.2611  0.0789
11131W        W26600   0.331   5.330   2.986  0.0781 -0.0396 -0.2433
11132W        W26601   8.462   8.640  15.292 -0.1184  0.0997 -0.1040
11133W        W26602   8.681   6.231  14.584 -0.4212  0.0423  0.0499
11134W        W26603  14.650   2.680  13.191 -0.0558 -0.1527 -0.2827
11135W        W26604   3.013   5.510   0.653  0.0354  0.0713 -0.0468
11136W        W26605   7.336   5.346   4.081 -0.2248  0.4759 -0.1805
11137W        W26606  12.752  10.287  10.436  0.1921  0.2046 -0.3021
11138W        W26607   7.240  15.531  10.659  0.0358  0.3470 -0.2917
11139W        W26608  17.697  15.051  12.288 -0.1834 -0.2379 -0.2387
11140W        W26609   7.309   2.300  15.774  0.0098  0.0832 -0.0620
11141W        W26610  16.627   9.423   2.078  0.2312 -0.0402  0.0357
11142W        W26611   3.244  14.480  12.098 -0.0123  0.1019 -0.1048
11143W        W26612  13.119   6.582  15.036 -0.1050  0.2651 -0.0332
11144W        W26613  15.793   3.759  13.498  0.1574  0.0719  0.0214
11145W        W26614   7.372  15.889   4.324 -0.1132  0.3149  0.0799
11146W        W26615   8.833   8.314   5.570 -0.2190 -0.1475 -0.1263
11147W        W26616   7.724   2.932  13.996  0.1730 -0.5798 -0.1973
11148W        W26617   1.860  13.580   1.943 -0.0477  0.1038 -0.2444
11149W        W26618  17.249   3.556  13.381  0.2936  0.2318  0.4993
11150W        W26619   3.211   6.650  10.947  0.1494 -0.0005  0.1861
11151W        W26620   5.908   8.590  11.880  0.4611  0.0329  0.1322
11152W        W26621  14.429  15.482   2.291 -0.1017  0.3444  0.1954
11153W        W26622  14.328   0.810   1.296 -0.0011 -0.2046 -0.1420
11154W        W26623   6.164  15.107   5.550 -0.1413  0.2127  0.2135
11155W        W26624   7.244   7.944  15.382  0.3433 -0.3449  0.3014
11156W        W26625   4.612  13.515   1.355  0.1309 -0.3059  0.1617
11157W        W26626   3.101  10.635  12.113 -0.0623  0.2074 -0.0161
11158W        W26627  13.350  16.420  12.089  0.2951 -0.1282  0.1649
11159W        W26628   9.980   7.393   3.219  0.1883 -0.1254  0.0601
11160W        W26629  18.191   0.646  12.282 -0.1011  0.4223  0.1233
11161W        W26630  14.041   0.851   2.285 -0.2227  0.3903  0.2013
11162W        W26631  15.284  10.577  12.685  0.1344 -0.1730 -0.0737
11163W        W26632   9.564   9.066  14.691 -0.2097 -0.1104 -0.0192
11164W        W26633  13.456  12.572  10.291  0.0742  0.0149 -0.0752
11165W        W26634   7.361   4.394   5.541 -0.0872  0.0399  0.0215
11166W        W26635   5.225   8.283  10.740  0.2051  0.0584 -0.1947
11167W        W26636  17.556   2.271   0.773 -0.0210 -0.1838 -0.1086
11168W        W26637  13.366   0.397  14.236  0.2201  0.0362  0.1660
11169W        W26638   1.372   9.934   2.723  0.0642 -0.1872 -0.2987
11170W        W26639   3.619   7.234   1.241 -0.0734  0.1004  0.3929
11171W        W26640   6.702  15.908   0.736 -0.2899  0.3550 -0.0308
11172W        W26641   0.260   6.281  15.905 -0.0646  0.5639 -0.0009
11173W        W26642   4.932   2.211  14.119  0.2244  0.0911 -0.3743
11174W        W26643   6.493   5.002   4.643 -0.3186 -0.0457 -0.2817
11175W        W26644  13.197   8.945   2.689 -0.1685  0.3449  0.0835
11176W        W26645   2.639   8.393  14.396 -0.1195  0.2802 -0.2768
11177W        W26646  15.537   3.833  12.220  0.0976 -0.0944 -0.1566
11178W        W26647   9.396   1.569  14.514 -0.1493  0.0826 -0.0889
11179W        W26648   5.169  18.448   2.693  0.1311 -0.3326  0.4964
11180W        W26649  13.662  12.770   0.261  0.0244 -0.1300 -0.1151
11181W        W26650  10.699   7.660  12.409  0.0609  0.1721  0.1946
11182W        W26651   5.915   2.454   2.157 -0.0307 -0.0611 -0.2989
11183W        W26652   6.425  13.983  15.434  0.0985 -0.0680 -0.2962
11184W        W26653   1.877  16.975   2.731  0.3470  0.0477 -0.2211
11185W        W26654  16.455   1.235  12.139 -0.0615 -0.2541  0.2813
11186W        W26655   7.456   5.347  15.362 -0.2363 -0.0208  0.0824
11187W        W26656   9.100  13.026  11.618 -0.0352 -0.0057 -0.0527
11188W        W26657   9.391   7.991   0.804  0.0815 -0.1323 -0.1748
11189W        W26658   4.874   4.839  15.984 -0.0285  0.0614 -0.0873
11190W        W26659   9.065   8.971  12.445 -0.1413  0.0801  0.3207
11191W        W26660   5.626   5.504   2.343  0.0193 -0.2164 -0.1270
11192W        W26661   8.883  17.995   4.255  0.2019 -0.1914  0.1729
11193W        W26662  14.024   1.779  15.104  0.0036 -0.1044  0.1630
11194W        W26663   6.044  10.826   2.994  0.0470 -0.0863 -0.1642
11195W        W26664   8.017   6.657   0.069 -0.0328  0.3052  0.0909
11196W        W26665  10.840  17.597  12.397 -0.0399  0.0018 -0.2001
11197W        W26666   2.104  11.890  12.914 -0.0363  0.1073 -0.0608
11198W        W26667  13.031   5.740  14.458  0.0027  0.0234 -0.0785
11199W        W26668   5.014  16.940   1.386 -0.1727  0.0820  0.1359
11200W        W26669  15.314   1.564  13.690  0.0484  0.1262  0.0180
11201W        W26670   6.294  17.400  12.145  0.1772 -0.2980  0.0691
11202W        W26671  17.306   9.800  12.101 -0.5416 -0.2648 -0.2525
11203W        W26672  10.985   9.599  13.596  0.0403  0.1251 -0.1135
11204W        W26673  12.367   2.694  15.411  0.1790  0.0334 -0.0281
11205W        W26674  14.187   7.747   0.526 -0.0128 -0.0005 -0.1834
11206W        W26675  14.741   0.030  15.514  0.1623  0.2634  0.2240
11207W        W26676  16.845  10.368   0.070 -0.2945 -0.1178 -0.0222
11208W        W26677   5.802   5.227  11.989 -0.0669  0.0086 -0.3632
11209W        W26678   7.529  15.617  14.204 -0.0335 -0.2926 -0.0916
11210W        W26679   3.585   9.485  13.180  0.0498  0.2691 -0.0119
11211W        W26680   0.551  18.010  11.452  0.1581  0.2813  0.1695
11212W        W26681  10.025  14.293   1.541  0.3434 -0.0713 -0.2000
11213W        W26682   0.942   3.632   1.943 -0.0635  0.1602  0.0474
11214W        W26683   5.935  17.052   4.068 -0.0886 -0.2704 -0.0523
11215W        W26684   9.028   0.067   5.517 -0.1541  0.3388  0.1651
11216W        W26685  14.188  18.422   3.774 -0.0040 -0.0115  0.2821
11217W        W26686   8.141  15.670  11.142 -0.0641 -0.1128 -0.0648
11218W        W26687   5.742   1.038   6.061  0.1675  0.1183 -0.0410
11219W        W26688   9.825   8.423  13.426  0.1165  0.0643  0.0089
11220W        W26689  13.984   5.691   5.098 -0.0061 -0.1403  0.1018
11221W        W26690   7.952  15.087  14.006 -0.2014  0.0861  0.2192
11222W        W26691   3.267   2.206  13.362 -0.0713 -0.0730 -0.0834
11223W        W26692   1.529   4.691   0.978 -0.1299 -0.0469  0.3459
11224W        W26693  16.330   4.295   1.988  0.0437 -0.0919 -0.2164
11225W        W26694  16.662  18.312   3.611  0.1728 -0.0431 -0.1472
11226W        W26695  17.442   7.990   5.219 -0.0027 -0.1015  0.2262
11227W        W26696  15.100  11.357   3.155  0.0124  0.0458  0.1573
11228W        W26697   2.690   2.954   1.247  0.0639  0.1842 -0.0152
11229W        W26698   3.111  16.004  11.411  0.2626  0.1645  0.2334
11230W        W26699   5.197   0.111   4.511 -0.0099 -0.0280  0.1266
11231W        W26700   1.598   7.423  15.174 -0.2410  0.3361  0.2640
11232W        W26701   6.010  10.769  10.225 -0.1342 -0.1359  0.4131
11233W        W26702   2.302  10.521   4.267 -0.2686  0.3855  0.1754
11234W        W26703   4.063  13.771   2.197  0.0880 -0.0202 -0.2626
11235W        W26704   0.403  14.892  13.094 -0.4175  0.0401  0.3016
11236W        W26705   5.840  18.101   1.874 -0.0392  0.2268 -0.0530
11237W        W26706  10.989   5.228  12.424 -0.1429  0.0696  0.2042
11238W        W26707   4.387   3.712  10.565 -0.3215 -0.1500 -0.0547
11239W        W26708  10.811   9.879   0.556 -0.0728  0.1519  0.1108
11240W        W26709   2.811   2.979   0.649 -0.1001 -0.2091 -0.1375
11241W        W26710  10.254   7.074  12.236 -0.1392  0.0229 -0.2613
11242W        W26711  16.249   2.819   0.106  0.2412 -0.0503 -0.1371
11243W        W26712   8.353  16.590   0.692 -0.1060  0.0855  0.3665
11244W        W26713   4.426   4.503  15.522  0.0426 -0.0470 -0.0414
11245W        W26714  15.737  12.509  15.949  0.0356  0.2338 -0.2149
11246W        W26715   8.285   9.619  14.745 -0.1767  0.0274  0.0690
11247W        W26716   5.393   4.932   3.891 -0.3239 -0.0765 -0.1449
11248W        W26717   1.319  11.451  10.829 -0.1074 -0.0025  0.1824
11249W        W26718   4.353   4.328   0.066 -0.1214 -0.1684  0.0514
11250W        W26719   2.812  12.159  13.857  0.1663 -0.2292  0.2516
11251W        W26720   3.952  12.511  12.415 -0.2403 -0.4261  0.0596
11252W        W26721   8.184  17.959   2.956 -0.0012 -0.0500  0.3388
11253W        W26722   9.756   4.893   1.073 -0.0008 -0.1650  0.1754
11254W        W26723   1.561   5.762   5.358  0.0412 -0.2545  0.0103
11255W        W26724  16.087   1.688  11.755  0.3477  0.4118 -0.1232
11256W        W26725  14.021  17.615   1.338  0.3006  0.0254  0.0951
11257W        W26726  18.238   2.329  12.962  0.0131 -0.2298  0.0085
11258W        W26727  12.775   8.949   3.253  0.2635 -0.0227 -0.0927
11259W        W26728  16.474   4.313  12.332 -0.0847 -0.1179 -0.2584
11260W        W26729  18.316  15.210   1.565  0.0284 -0.0702  0.1517
11261W        W26730   4.910  13.362  11.392  0.1744  0.0113 -0.0710
11262W        W26731   4.144  15.259  11.496  0.1381  0.3388  0.1223
11263W        W26732   9.764   8.410   2.315 -0.1827  0.0048 -0.0442
11264W        W26733  17.062  16.186  13.588  0.0540  0.0533 -0.3048
11265W        W26734   5.943   0.439  15.340  0.2130 -0.3135 -0.1394
11266W        W26735  15.627   0.091  12.288 -0.0702  0.0738 -0.1813
11267W        W26736  13.631   0.128   4.917  0.2645  0.1988  0.1487
11268W        W26737   8.644   7.801  15.066 -0.0816  0.1948 -0.1794
11269W        W26738  15.087   1.323   1.969 -0.1341  0.0615 -0.0217
11270W        W26739   3.474  15.366   5.391 -0.0335 -0.2022  0.1214
11271W        W26740   0.732  15.423   2.552 -0.0864 -0.0717  0.3403
11272W        W26741  10.062   4.206  15.440  0.1359  0.2046 -0.0058
11273W        W26742  18.122   3.562  15.218 -0.0505  0.0668 -0.0093
11274W        W26743  16.257  16.604   4.118 -0.1110  0.2871 -0.0685
11275W        W26744   8.146   1.628   2.938 -0.3986  0.1330  0.1226
11276W        W26745   0.333   0.729  14.381  0.0629  0.0070  0.0199
11277W        W26746   8.804  16.758  14.263 -0.0917 -0.2786  0.0108
11278W        W26747   7.674  13.167  14.207  0.0132 -0.1942  0.0542
11279W        W26748  16.245  16.706  12.660 -0.1016 -0.0650  0.0453
11280W        W26749  17.695  11.539  13.993 -0.3492  0.0811  0.0442
11281W        W26750   7.617   7.974  15.745  0.1331 -0.3581 -0.1605
11282W        W26751   0.608   9.343  15.825 -0.0075  0.0108  0.0478
11283W        W26752  13.557   5.160  13.156 -0.2216 -0.0670  0.0992
11284W        W26753  17.424   0.626  12.936  0.0783  0.0580  0.1354
11285W        W26754  17.863   5.799   5.593  0.0802 -0.0641  0.0021
11286W        W26755   3.363  13.164  11.583  0.0801  0.2242  0.0225
11287W        W26756   8.669  14.280  10.700  0.1163 -0.1879 -0.0051
11288W        W26757   4.011   0.057  11.735 -0.2485  0.1534  0.3911
11289W        W26758   4.905  12.071   4.106 -0.1949  0.0786 -0.0709
11290W        W26759   9.342   5.426   2.705 -0.1300 -0.2474  0.1146
11291W        W26760  15.085  12.701   0.165  0.3499 -0.2986 -0.2564
11292W        W26761   3.272   1.495  14.880  0.0455 -0.2016  0.0386
11293W        W26762  11.096  14.401   2.515 -0.3911 -0.0660  0.1378
11294W        W26763  12.341   7.886   2.372 -0.0589 -0.3027  0.0523
11295W        W26764   8.441  12.537  13.521  0.3218  0.0351 -0.2783
11296W        W26765  11.110  14.055   4.210 -0.2162  0.1648  0.1071
11297W        W26766  10.924   2.783  13.634  0.0268 -0.0831  0.2298
11298W        W26767   9.140  11.991   1.042 -0.1007  0.0477  0.2292
11299W        W26768  17.096   8.533   5.941 -0.0502 -0.4247  0.3541
11300W        W26769  17.476  16.342   2.371 -0.0535 -0.2373  0.2420
11301W        W26770  13.242  12.380   1.088  0.0772 -0.1219 -0.1004
11302W        W26771   5.905   8.503   6.242  0.0058 -0.0095 -0.2217
11303W        W26772   7.489   8.930  14.586 -0.1061  0.1424 -0.0770
11304W        W26773   8.463  13.391   3.853 -0.1838 -0.1108  0.0942
11305W        W26774  10.793  17.262   2.963  0.1400  0.1411  0.0184
11306W        W26775  14.565  14.748  14.175  0.1044 -0.2011  0.0137
11307W        W26776  13.444  14.695   3.043  0.1416  0.1900  0.0890
11308W        W26777   5.612  10.490   3.269 -0.1966 -0.2122 -0.1977
11309W        W26778   4.242   0.151   2.279 -0.0854  0.0302  0.1906
11310W        W26779   5.129  14.924  11.763  0.1036  0.2809  0.1725
11311W        W26780   0.613  15.836  11.736 -0.2988 -0.1961  0.1730
11312W        W26781  13.356   3.027   6.130 -0.1740  0.0336 -0.0589
11313W        W26782   3.570   9.997  15.785  0.1226  0.4019  0.0169
11314W        W26783   8.966  10.113  14.439 -0.1761 -0.0319 -0.3936
11315W        W26784   0.629  14.470  11.226  0.0094 -0.0325  0.2031
11316W        W26785  13.673  15.905  13.634  0.0208  0.0274  0.0733
11317W        W26786   1.387  13.012   0.574 -0.1133  0.1103 -0.3299
11318W        W26787  11.020   3.252  12.423 -0.0145  0.2218  0.0656
11319W        W26788  10.294   0.306   3.092 -0.1152 -0.0982  0.2653
11320W        W26789  10.622  11.547   2.565 -0.0997  0.2502 -0.1519
11321W        W26790  17.488   2.267   1.305  0.2890  0.0067 -0.1730
11322W        W26791  17.795   3.887   0.766  0.2893  0.2447 -0.2074
11323W        W26792  18.371  12.978  14.734  0.2427 -0.0782 -0.1409
11324W        W26793   0.696  14.660   0.385 -0.0641  0.2323  0.2912
11325W        W26794  13.994   4.643   0.958 -0.0365 -0.1859  0.0749
11326W        W26795  11.518   9.997   4.522  0.1289  0.0962 -0.2939
11327W        W26796  16.587  13.150   3.848  0.1142 -0.0615 -0.0985
11328W        W26797   8.803  10.326   4.241 -0.3264  0.0868  0.1146
11329W        W26798  11.722  15.410  12.977  0.1729  0.1588 -0.0891
11330W        W26799   4.726   7.665   5.470 -0.0088  0.0988 -0.0433
11331W        W26800   9.855   1.284   4.867  0.1929 -0.2780  0.0887
11332W        W26801  14.492  12.665  10.867  0.0895 -0.2249  0.1553
11333W        W26802   7.587   4.668   4.022 -0.1366  0.0502 -0.1446
11334W        W26803  11.424  12.757  10.760  0.0491 -0.1226 -0.1165
11335W        W26804  11.961   2.421   2.063  0.0915  0.0761 -0.0511
11336W        W26805  17.469  14.043   2.845 -0.2564  0.0983  0.0155
11337W        W26806  16.187   5.631  13.325 -0.0690  0.2703  0.0421
11338W        W26807   6.752   8.416   2.272  0.2236  0.0097 -0.3054
11339W        W26808  12.040   8.044   1.284  0.1058 -0.3021  0.4110
11340W        W26809  14.234   8.481   1.497  0.1940 -0.0551  0.2524
11341W        W26810  15.556   3.617  14.508 -0.0026 -0.3416  0.1996
11342W        W26811   8.389   5.772  13.133  0.0201 -0.2681 -0.1869
11343W        W26812   0.666   9.079  10.801  0.1586 -0.1562 -0.0585
11344W        W26813  16.956  10.532  14.437  0.0087  0.2549  0.4088
11345W        W26814   4.588   0.206  15.623 -0.2413  0.3168  0.0888
11346W        W26815   3.776  10.471  10.997  0.3013 -0.2758  0.0350
11347W        W26816  17.486  15.888   3.008 -0.0272 -0.0263 -0.1157
11348W        W26817   0.443   6.044  13.541 -0.2126  0.0749 -0.1319
11349W        W26818   4.803  11.067   4.293 -0.0133 -0.0020 -0.0488
11350W        W26819   0.869   4.571   1.859  0.1998 -0.0798  0.1461
11351W        W26820  11.439  16.753  11.805 -0.0632  0.0929  0.0132
11352W        W26821   3.872  12.572   1.319 -0.0634  0.0058  0.2323
11353W        W26822   7.915   9.189   2.614  0.1539  0.0365 -0.0969
11354W        W26823  14.859   7.189   0.701  0.0155  0.0674 -0.0412
11355W        W26824   7.081   2.713   2.124 -0.3451  0.1004  0.4898
11356W        W26825   5.536   8.156   1.597 -0.1247 -0.1006  0.0820
11357W        W26826   4.298   6.430  11.730 -0.0757  0.2452  0.0225
11358W        W26827   3.006   9.861   0.787 -0.3402  0.0451  0.2254
11359W        W26828  15.391  18.358  10.859  0.1129  0.1261 -0.1774
11360W        W26829  16.114   9.043  13.231 -0.1431 -0.0880  0.0046
11361W        W26830   0.288   2.672   3.797  0.3502 -0.1249 -0.0662
11362W        W26831   8.055  15.703  12.395  0.0736 -0.0887  0.0886
11363W        W26832   2.736   5.152  11.595  0.1154  0.0025 -0.0971
11364W        W26833   7.069  15.764  10.086 -0.1965 -0.1226 -0.3309
11365W        W26834   7.155   2.409   0.630  0.1700 -0.1718 -0.0025
11366W        W26835  11.054   5.127   2.809 -0.1892 -0.1015  0.2662
11367W        W26836  15.350   8.879  11.772  0.2131  0.1538  0.0533
11368W        W26837  16.215   5.224  14.259 -0.4152  0.0404 -0.3525
11369W        W26838   8.965   9.156   5.301 -0.1948 -0.1672 -0.0822
11370W        W26839   6.392   8.250  12.904  0.2290 -0.1784 -0.1217
11371W        W26840   8.715  10.370  12.570  0.2217  0.2239  0.0774
11372W        W26841   6.607  11.339  12.425  0.2403  0.3916  0.0602
11373W        W26842  12.221   6.443   3.940 -0.0445  0.0072  0.1175
11374W        W26843   1.524   2.459  10.791 -0.0340 -0.3337  0.0707
11375W        W26844  16.829  11.045   4.268  0.1285 -0.0777 -0.0693
11376W        W26845  10.090  15.161   3.307  0.0054 -0.4393  0.1232
11377W        W26846   8.685   2.511  14.871 -0.4460  0.2044 -0.0915
11378W        W26847   9.486  10.281  14.196 -0.0956 -0.0379  0.1240
11379W        W26848  11.667   7.832   1.712  0.2599 -0.2168 -0.0535
11380W        W26849  16.566  14.125   1.338 -0.0002 -0.1018  0.0855
11381W        W26850  17.952   3.829  14.870  0.0612  0.0481 -0.0366
11382W        W26851   9.990  18.094  14.885 -0.2801  0.2415 -0.1548
11383W        W26852   9.760   5.370   3.645  0.0097  0.0473 -0.0812
11384W        W26853  10.545   5.778  10.975 -0.0289 -0.0095  0.0721
11385W        W26854   2.968   9.095   3.909  0.1030 -0.1054  0.0487
11386W        W26855   8.246  17.260   2.243  0.2127  0.1130  0.2303
11387W        W26856   0.399  16.079   0.140 -0.1139  0.4828  0.3544
11388W        W26857   0.329   6.467  13.944  0.2509  0.1454  0.0233
11389W        W26858  14.739  16.581   0.448  0.0729 -0.1886  0.0896
11390W        W26859  16.905  13.261  13.744  0.0818  0.1065  0.3275
11391W        W26860   4.580  16.611   3.245 -0.1095  0.1805 -0.0252
11392W        W26861   6.827   4.572   1.965 -0.0613 -0.1357 -0.1940
11393W        W26862  15.374   5.855  15.951 -0.0244  0.0217  0.1446
11394W        W26863   8.716   4.987  14.158 -0.1888 -0.0145  0.0354
11395W        W26864   0.040   4.016  14.346  0.2607 -0.0613  0.1224
11396W        W26865  10.200  13.911  11.365 -0.2551  0.2280 -0.2418
11397W        W26866  17.459   0.229   1.591 -0.0991  0.0790 -0.0682
11398W        W26867  14.116   2.453   3.101 -0.0036  0.0507 -0.0289
11399W        W26868   0.229  17.425   3.884 -0.1966 -0.0811  0.2464
11400W        W26869   8.437   5.175  11.256  0.0777 -0.0881 -0.1614
11401W        W26870  16.499   1.977   5.714  0.0753 -0.3189  0.0533
11402W        W26871   4.935   8.612  11.727  0.0884  0.1677 -0.2515
11403W        W26872  13.392   1.672   4.020  0.1108 -0.1505 -0.0017
11404W        W26873   4.360   3.291  11.466 -0.1021 -0.0145 -0.0702
11405W        W26874  12.799  11.665  13.859  0.1517  0.3133 -0.0085
11406W        W26875  13.477   3.420  13.114 -0.1604 -0.5755 -0.4180
11407W        W26876  17.398   4.372  14.322  0.2554  0.4188 -0.1867
11408W        W26877  12.721  14.597   3.706 -0.0517  0.2261 -0.0113
11409W        W26878   7.682   6.897  13.138  0.3792 -0.3399  0.0212
11410W        W26879  14.640   3.906   1.262 -0.0859  0.1478  0.2439
11411W        W26880  15.061   8.477   3.452  0.1703  0.0230  0.0042
11412W        W26881   0.014   2.223   4.054 -0.2383 -0.0772 -0.1189
11413W        W26882   4.985   9.563  15.782 -0.1181  0.2016  0.1033
11414W        W26883   9.678  18.223  11.965 -0.0494 -0.2052  0.1990
11415W        W26884  15.712  11.512  11.628  0.1517  0.1220  0.0955
11416W        W26885  14.356   8.646   9.916  0.1455 -0.2843  0.0318
11417W        W26886  12.115  10.664   2.884 -0.0599 -0.1013  0.3029
11418W        W26887   5.180  13.890   4.562 -0.0725 -0.1299 -0.0154
11419W        W26888  17.389   6.140   4.292  0.0055  0.0988 -0.0017
11420W        W26889   6.413  11.104   5.768 -0.0331 -0.0644  0.2358
11421W        W26890   2.892   5.267  12.994 -0.0541  0.4737 -0.3039
11422W        W26891   0.116   4.859   4.772 -0.1987  0.0820 -0.1553
11423W        W26892   2.509   1.554  14.904 -0.2592 -0.0355 -0.2283
11424W        W26893   3.644  13.507  11.403  0.0720 -0.2092  0.0416
11425W        W26894   4.877  16.857  10.444  0.0520  0.3299 -0.1372
11426W        W26895   6.437   6.555   5.234 -0.2187 -0.0474  0.3040
11427W        W26896   0.703   1.558   0.207 -0.0607  0.2249 -0.0098
11428W        W26897  11.735  17.886   4.490 -0.1286  0.4317 -0.0890
11429W        W26898   1.197   2.882  12.811 -0.2016 -0.3354 -0.0862
11430W        W26899   5.826   8.118   3.096  0.0313  0.0641  0.1753
11431W        W26900   2.735  13.343   1.830 -0.1273  0.1817  0.3015
11432W        W26901   5.168  16.587  15.294  0.1090 -0.0659 -0.3024
11433W        W26902   4.800   7.189   5.522  0.1080  0.2309  0.1368
11434W        W26903  14.512   4.529   1.777 -0.0923 -0.1112  0.0113
11435W        W26904  13.141  13.003   2.244  0.0937  0.0278 -0.1121
11436W        W26905  11.461   9.432   1.702 -0.1151 -0.2622 -0.1939
11437W        W26906   0.912   9.056  13.208 -0.1361 -0.3632 -0.0720
11438W        W26907  17.177   4.372   6.193 -0.0172 -0.0174 -0.0670
11439W        W26908  12.055   7.333  13.466 -0.0233 -0.0460  0.4391
11440W        W26909   1.917  18.319   5.646 -0.1311 -0.0506 -0.3370
11441W        W26910   3.587   0.114  12.537 -0.0955  0.0095  0.0837
11442W        W26911   2.041   7.536  11.638  0.0582 -0.0435  0.0620
11443W        W26912   5.866   0.480   4.707  0.2485 -0.0873 -0.2085
11444W        W26913   7.139  18.339   2.745 -0.0192 -0.2104  0.0578
11445W        W26914   5.571   5.665   4.517 -0.0421  0.1370 -0.0548
11446W        W26915  11.436  10.979  10.877  0.1608 -0.3072 -0.3121
11447W        W26916   0.874   5.524  15.558 -0.0640 -0.4031 -0.0310
11448W        W26917   6.095  13.807  11.828  0.1781  0.1340 -0.0530
11449W        W26918   8.340  13.024   4.726  0.0279 -0.1306  0.1882
11450W        W26919  13.255  10.058  15.385  0.0040 -0.2112  0.3965
11451W        W26920   3.856   6.906   6.220  0.1310 -0.2800  0.1141
11452W        W26921  10.772  13.175  11.184 -0.2855 -0.1062 -0.1044
11453W        W26922   6.773   1.690   0.401  0.1183 -0.0254  0.0168
11454W        W26923  11.661  10.028  12.772 -0.0439  0.2251 -0.2196
11455W        W26924   7.270   6.115  15.781  0.2722  0.0314  0.1032
11456W        W26925   5.139   1.796  11.866 -0.1181  0.2405  0.0210
11457W        W26926   1.845  12.937   3.767  0.5102  0.1832  0.2858
11458W        W26927   1.424   0.660  11.181 -0.0529 -0.0652  0.0759
11459W        W26928  11.915   6.622   4.281 -0.1350 -0.4275 -0.1116
11460W        W26929  15.283  16.506   0.467 -0.0602  0.3047  0.0264
11461W        W26930  15.723  10.867  12.815 -0.1847  0.0374  0.2442
11462W        W26931  16.351  12.942   0.493  0.0375  0.0377  0.1552
11463W        W26932   8.038  14.196   4.231 -0.3564 -0.3479 -0.0323
11464W        W26933   3.533   5.551   1.938 -0.2083  0.2749  0.0709
11465W        W26934   7.082   1.777   0.787  0.0793  0.1654 -0.3072
11466W        W26935   2.375  11.552   1.318  0.0745  0.0259  0.0436
11467W        W26936  17.788  14.835  16.002 -0.0600 -0.1157  0.1015
11468W        W26937   7.743   9.041   1.797 -0.3866 -0.0330  0.1774
11469W        W26938   1.156  11.781   5.266  0.2702  0.2251 -0.3455
11470W        W26939  11.637   8.064   3.742 -0.1221 -0.1249  0.0732
11471W        W26940   8.517  11.698  11.630 -0.2363 -0.2271 -0.3180
11472W        W26941  11.935  15.002   0.592 -0.2195  0.2874 -0.1124
11473W        W26942  15.140   0.876  13.799 -0.0455  0.2258 -0.2910
11474W        W26943   8.054   8.643  13.793  0.0769 -0.0010  0.4485
11475W        W26944   4.254   2.610   2.597  0.1752 -0.0802 -0.0353
11476W        W26945  11.357  16.983   4.268 -0.0395  0.0226  0.1290
11477W        W26946  11.348   3.883   0.341 -0.2777  0.1533 -0.0707
11478W        W26947   0.152  13.328  11.832  0.4742  0.0122 -0.1039
11479W        W26948   3.748   8.670   0.588 -0.0204 -0.2910 -0.1318
11480W        W26949  16.456   9.071  15.951  0.2840  0.0023 -0.1505
11481W        W26950   3.683  16.936  11.119 -0.1071 -0.0066 -0.3737
11482W        W26951  17.092   7.583  13.118  0.0296 -0.0047 -0.1888
11483W        W26952   0.789   6.556   5.244 -0.2263 -0.1892 -0.0563
11484W        W26953   5.617   4.052  13.183 -0.0245 -0.0925 -0.3097
11485W        W26954   8.750  12.590   3.347  0.0193 -0.0111  0.1638
11486W        W26955  11.852   2.765   0.336 -0.0849 -0.0056 -0.2166
11487W        W26956  15.718   4.500  15.026 -0.1502 -0.0047  0.0450
11488W        W26957   8.905  14.382   0.027 -0.4584 -0.2730  0.0808
11489W        W26958   7.776  14.635   5.909  0.2682 -0.0902  0.3737
11490W        W26959   6.595   2.862   0.865  0.0973 -0.2813 -0.2108
11491W        W26960   0.063   4.446   0.739 -0.2885 -0.0151  0.0314
11492W        W26961   1.294   5.973  14.054 -0.2430 -0.2009  0.1094
11493W        W26962   7.398  12.113   0.944  0.1059  0.2846 -0.1056
11494W        W26963   7.420   7.566   5.349 -0.1583  0.0243  0.1469
11495W        W26964   8.022   5.285  13.128 -0.0454 -0.0053  0.1290
11496W        W26965   3.639   8.262   4.046 -0.1737 -0.0083 -0.0494
11497W        W26966  17.462   4.974   2.488 -0.0075 -0.4218 -0.1976
11498W        W26967  12.245  16.616  13.890 -0.2664 -0.0382 -0.2881
11499W        W26968   3.960   6.086   3.285  0.1754  0.0975  0.4359
11500W        W26969  18.332   7.582   2.943 -0.0176 -0.0417  0.2260
11501W        W26970   2.035   4.344   1.248  0.0562  0.3189 -0.0810
11502W        W26971  10.349   9.330   1.290 -0.0656 -0.2489  0.4007
11503W        W26972   8.230  14.741  15.376  0.3532  0.2089 -0.0037
11504W        W26973   7.854  17.520   4.860 -0.1019  0.3735  0.1920
11505W        W26974  14.122  14.967  12.286 -0.3637 -0.2459  0.0379
11506W        W26975   6.925  15.209  12.288  0.0232 -0.2052 -0.0638
11507W        W26976  13.121   8.824   3.601  0.1707  0.2480  0.0547
11508W        W26977   0.839   8.489  14.016  0.2413 -0.0055  0.2724
11509W        W26978   7.675  16.278   4.510  0.2152 -0.3130 -0.0170
11510W        W26979  10.228   2.332   1.380 -0.1265 -0.0386 -0.2016
11511W        W26980  12.071   2.280   3.190  0.2609  0.2729  0.1031
11512W        W26981   1.168   2.270  12.145 -0.0142 -0.0436  0.1302
11513W        W26982   7.406  17.037   4.755 -0.0961  0.2329 -0.3169
11514W        W26983   4.748   9.657   0.578  0.4182  0.1098 -0.0161
11515W        W26984   0.299   0.875   2.760  0.1261 -0.1861 -0.0625
11516W        W26985  14.910  13.809  12.083  0.0433  0.1744 -0.0343
11517W        W26986   3.218  12.066  11.595 -0.1508  0.2233  0.2092
11518W        W26987  12.289  18.059   5.481 -0.2182  0.2686  0.1136
11519W        W26988   9.930  13.220  13.095  0.1841 -0.2239  0.2079
11520W        W26989  16.682   6.695  12.845  0.0571 -0.1113  0.3477
11521W        W26990  17.300  15.451  12.151  0.1571 -0.0421 -0.1832
11522W        W26991  10.788   6.960   6.077  0.0620 -0.0564  0.1238
11523W        W26992   3.386  18.404  15.901 -0.1644 -0.0489 -0.0335
11524W        W26993   8.099  17.120  15.282  0.0566 -0.1191  0.3331
11525W        W26994  11.648  12.872   1.935  0.3769  0.0838 -0.0999
11526W        W26995   9.558  18.189   4.848  0.1714  0.1709  0.0432
11527W        W26996  14.879  13.058   0.427  0.0453  0.2156  0.0420
11528W        W26997  15.691   7.559   4.972 -0.0910  0.0353  0.1462
11529W        W26998  18.385   5.711  13.606 -0.1035 -0.2340 -0.1564
11530W        W26999   5.181   5.759  15.954  0.0297 -0.2417 -0.0298
11531W        W27000   6.759   3.454   1.547 -0.3418  0.1426 -0.1374
11532W        W27001  10.573  17.396   4.863  0.1647 -0.0875  0.0372
11533W        W27002  14.209   1.007  15.593 -0.0578 -0.0898 -0.0843
11534W        W27003  14.512  14.565   2.906 -0.2413 -0.1179 -0.4681
11535W        W27004  17.875   6.204   1.617 -0.3896 -0.0455  0.6081
11536W        W27005  15.844  11.065  10.696 -0.2808  0.1009  0.1848
11537W        W27006   1.682   2.421   3.062  0.1436 -0.0916  0.2576
11538W        W27007   1.578   4.455   1.458 -0.0625 -0.0086 -0.0969
11539W        W27008   2.021  12.015  14.380 -0.0262  0.2165 -0.0479
11540W        W27009   6.050  13.107  12.783 -0.1096  0.1724  0.3722
11541W        W27010   2.450  11.074  14.710  0.2641 -0.0584 -0.1145
11542W        W27011   1.370   5.943   0.730  0.0856 -0.0899  0.2337
11543W        W27012   4.772   1.260  13.830  0.1151  0.0452 -0.1094
11544W        W27013   0.094  15.830   5.222  0.0326 -0.2468  0.0195
11545W        W27014   2.039  14.919   1.248  0.0110  0.2077 -0.0432
11546W        W27015   4.748  18.247   3.291 -0.1782 -0.2804 -0.3814
11547W        W27016   0.761  14.531   4.145  0.5215 -0.1865  0.0355
11548W        W27017  11.558   7.363  11.259 -0.0036  0.2200 -0.3039
11549W        W27018   7.971  12.473  11.332 -0.1800 -0.2407  0.2926
11550W        W27019  15.072  13.137   2.892 -0.1149 -0.3147  0.5800
11551W        W27020  13.797   8.390  15.619  0.1039 -0.0128 -0.1534
11552W        W27021   6.012   6.303   0.299 -0.2184  0.2167 -0.0498
11553W        W27022   4.978  16.885   5.201  0.1237  0.0602  0.1199
11554W        W27023   0.144  16.063   4.379 -0.0765 -0.0776  0.0786
11555W        W27024   8.641   3.126  14.126 -0.1353  0.2296 -0.0436
11556W        W27025  18.402  15.842  11.790 -0.0224 -0.1048 -0.2653
11557W        W27026  15.258  18.422  13.737  0.1040 -0.1521 -0.3022
11558W        W27027   9.927  17.692  13.870 -0.0276  0.2267  0.2774
11559W        W27028   8.433   5.255   1.365 -0.2242  0.1482  0.1249
11560W        W27029   0.832   9.371  15.345  0.2515 -0.1127 -0.2149
11561W        W27030   4.594   2.333  15.705  0.0604 -0.1820  0.0540
11562W        W27031  13.595   5.274  14.595  0.1074  0.1878 -0.5056
11563W        W27032  15.013   4.744   2.238 -0.1754 -0.1383  0.3372
11564W        W27033  16.562  16.894   2.424  0.0818 -0.1115 -0.1663
11565W        W27034   6.681  18.094  12.747 -0.1094  0.0370  0.1360
11566W        W27035  13.943  18.121  14.869  0.1418  0.1498 -0.1944
11567W        W27036   8.819   4.564  13.814  0.2754 -0.2638 -0.1960
11568W        W27037   6.444   1.236   5.101 -0.0240 -0.1085 -0.2384
11569W        W27038  15.784  15.631  13.893 -0.0865 -0.2410 -0.1191
11570W        W27039   1.860  18.113   1.428  0.3376  0.3161 -0.1865
11571W        W27040  12.976   6.193  15.766  0.0805 -0.1167  0.1379
11572W        W27041  12.510  17.813   4.977 -0.1602  0.2366  0.2027
11573W        W27042   1.131  16.386  15.066 -0.0192  0.1676 -0.0079
11574W        W27043   3.757   9.907  15.314  0.0649 -0.2862 -0.1848
11575W        W27044   2.574  15.519  15.993  0.3362  0.0416  0.1500
11576W        W27045   6.087  13.648  15.282  0.0319  0.1652  0.1369
11577W        W27046   5.436   2.414   1.226  0.2976 -0.4532  0.3260
11578W        W27047  11.630   8.327   4.256  0.1437 -0.3496  0.1141
11579W        W27048  15.436  16.594   0.979  0.1043 -0.2044  0.2709
11580W        W27049   6.353  12.906   2.462 -0.0794  0.2190 -0.0147
11581W        W27050  11.963   3.319  14.439  0.0511  0.1638 -0.2385
11582W        W27051   0.943  11.391  15.766 -0.2990  0.0341  0.1101
11583W        W27052   0.085   3.820  13.832 -0.0649 -0.0349 -0.0173
11584W        W27053  15.867   7.561   4.001 -0.1155 -0.1128 -0.1213
11585W        W27054   7.792  10.695  12.799  0.0619 -0.1641  0.0200
11586W        W27055   4.614  10.611   3.821 -0.0700  0.0232 -0.1309
11587W        W27056  15.702  18.416   2.968 -0.0188 -0.2479 -0.0496
11588W        W27057   9.121   1.851   5.358  0.2040  0.1204 -0.1345
11589W        W27058  12.714  14.397   0.337  0.0830 -0.0062  0.1005
11590W        W27059   6.687   0.839   3.368 -0.0921  0.2241  0.2660
11591W        W27060   4.697  14.423   1.717 -0.1903 -0.1926  0.1983
11592W        W27061   9.697  12.088   0.919 -0.1007 -0.0030  0.1081
11593W        W27062  12.762   6.377   1.811 -0.4457  0.0062  0.4667
11594W        W27063  17.978  14.683   4.694 -0.0791  0.2533 -0.2033
11595W        W27064   8.845  12.091  15.521 -0.1672 -0.2429 -0.0501
11596W        W27065   6.372   5.211   3.633  0.0208 -0.1724  0.0677
11597W        W27066   8.007   4.989  10.982  0.0612 -0.0513 -0.1034
11598W        W27067   0.253   2.241   5.118 -0.0143  0.0762 -0.2439
11599W        W27068  13.814   1.433  14.163  0.0723 -0.1456 -0.1435
11600W        W27069   4.078   4.638   4.109 -0.0281 -0.2154 -0.1001
11601W        W27070   6.769  13.920   0.013 -0.0533 -0.2657  0.3220
11602W        W27071   8.027   2.764   3.231 -0.2517  0.0239 -0.2376
11603W        W27072  14.355  17.981   4.429  0.0938 -0.2805 -0.0465
11604W        W27073   7.705   9.836   3.847  0.0270  0.1104 -0.2463
11605W        W27074  12.083   9.413   2.106 -0.0816 -0.0344  0.1500
11606W        W27075   7.138   1.775  10.491  0.1695 -0.1629 -0.3590
11607W        W27076   2.031   8.979   4.114 -0.1074  0.0905 -0.0935
11608W        W27077   9.729   4.646  13.802 -0.2240  0.3094 -0.0269
11609W        W27078   4.339   5.715  11.097  0.2721 -0.2565 -0.1310
11610W        W27079  10.154  12.812  15.799 -0.0028 -0.0823 -0.1226
11611W        W27080   6.112  16.654   4.403  0.0079  0.0534  0.1406
11612W        W27081   9.290   2.427  12.735 -0.0888 -0.1750 -0.3758
11613W        W27082  12.513   4.639   0.319  0.1088 -0.1397  0.0020
11614W        W27083   1.644   0.810  12.325  0.0029 -0.1539 -0.2302
11615W        W27084   3.060   8.216   0.534 -0.1856  0.0920 -0.2324
11616W        W27085  12.085   8.672  10.333 -0.0660  0.2939 -0.0581
11617W        W27086   9.023   2.901   3.763 -0.0836  0.0434 -0.3116
11618W        W27087   2.363   6.311   4.485  0.2072  0.0479 -0.0902
11619W        W27088   9.860  17.642   9.781 -0.1220  0.0623  0.0435
11620W        W27089   2.059  11.485   3.125 -0.3121  0.1451  0.0345
11621W        W27090   6.706   0.676  15.745  0.1018 -0.2371  0.2033
11622W        W27091  14.163   5.843  15.210 -0.2144  0.2521  0.0629
11623W        W27092   0.193   2.738   2.523  0.0460  0.1507  0.1052
11624W        W27093  10.626  14.417  15.448 -0.4823 -0.2232 -0.2566
11625W        W27094   4.697   4.531  11.614 -0.3237  0.2811 -0.4012
11626W        W27095  17.865   8.365  13.946 -0.2120  0.5627  0.0694
11627W        W27096   6.216  10.093   5.108 -0.1613  0.2316  0.0854
11628W        W27097   3.133  17.583   1.711  0.3363 -0.2894  0.0562
11629W        W27098   9.805  16.920  13.432 -0.2985 -0.0032 -0.4669
11630W        W27099  12.442  11.945  10.462 -0.1269 -0.0153 -0.0090
11631W        W27100  16.595   9.128  11.851  0.2232 -0.0112 -0.2098
11632W        W27101  16.526  11.147  14.259  0.0312 -0.0122 -0.1858
11633W        W27102   9.488   2.236   0.190 -0.2103  0.3046 -0.1244
11634W        W27103  18.415   0.632  10.363  0.1938  0.4963  0.1824
11635W        W27104  18.025  16.710  14.835 -0.1863 -0.0607 -0.1464
11636W        W27105  11.499  14.585  14.996  0.1381  0.2011 -0.0568
11637W        W27106   5.913  17.992  14.240 -0.2327 -0.0425 -0.2196
11638W        W27107   9.276   5.793  12.469  0.0952  0.2846  0.1588
11639W        W27108  14.779   0.918   0.239  0.0304 -0.2067 -0.1264
11640W        W27109   2.515  10.217   3.851 -0.0410  0.0182  0.0078
11641W        W27110  17.017   1.236  11.843  0.0154 -0.3017  0.2583
11642W        W27111   2.563   7.618  14.877  0.2270  0.1974  0.1965
11643W        W27112  17.922   8.202   1.008 -0.3180  0.0282 -0.0991
11644W        W27113  11.315   5.501  14.328  0.0002 -0.0166 -0.0074
11645W        W27114   0.598   5.507   0.847  0.0304  0.1621  0.1834
11646W        W27115  12.889  17.700  12.074  0.1838  0.1103 -0.1968
11647W        W27116   0.607   7.561   3.538 -0.1800  0.0416 -0.4610
11648W        W27117  15.551  13.023   2.601  0.0728 -0.0006  0.1904
11649W        W27118   8.323   7.038   1.855 -0.0178  0.2809  0.1609
11650W        W27119   7.983   2.929   1.787 -0.1103  0.2941  0.1605
11651W        W27120  16.698   9.439   1.534  0.0197  0.2354  0.0151
11652W        W27121  15.044   4.293   4.536 -0.1487  0.1406 -0.1711
11653W        W27122   2.171   0.414   1.020  0.1305 -0.5892  0.0005
11654W        W27123   3.941   9.501  11.841 -0.0488  0.0584 -0.2427
11655W        W27124  17.985   7.484  13.459 -0.1709 -0.2620  0.0443
11656W        W27125  17.722  15.919   4.975 -0.0306 -0.0119  0.0611
11657W        W27126   0.226  17.866   3.089 -0.1873  0.0835  0.0969
11658W        W27127   1.024   8.494   4.191  0.0699  0.0182 -0.1887
11659W        W27128  12.567   1.003   1.117 -0.0459  0.1725 -0.2222
11660W        W27129  17.197   7.202   1.553  0.1065 -0.2277 -0.1355
11661W        W27130   3.552  12.815   3.428  0.1005 -0.4080  0.1143
11662W        W27131   8.320   0.697  11.364  0.3696  0.3799 -0.1582
11663W        W27132   3.671   2.912  14.409  0.2030  0.3365 -0.2023
11664W        W27133   8.744  18.081  12.086 -0.0002  0.0689 -0.1865
11665W        W27134   1.223   9.726   5.408  0.2687  0.0665  0.2040
11666W        W27135   5.367   4.749  15.565  0.0332 -0.2384  0.3282
11667W        W27136   4.040   2.582  11.571 -0.1145  0.3439  0.2365
11668W        W27137  10.023  10.279   1.848  0.0082 -0.0331  0.2897
11669W        W27138   3.608   7.287  11.338 -0.1076  0.2668  0.1647
11670W        W27139   8.981   0.898  10.773  0.2986  0.3748  0.5831
11671W        W27140   3.340   7.838   2.193 -0.1229  0.0702  0.1825
11672W        W27141  12.566   5.850   1.100  0.1382  0.3019  0.0901
11673W        W27142  14.815   4.120  12.120  0.1917 -0.0957 -0.1417
11674W        W27143  10.953  16.603  12.602  0.1824 -0.0377 -0.2369
11675W        W27144   5.267   7.469  15.128  0.2755  0.0518  0.0751
11676W        W27145   7.642   4.863  15.334 -0.0475  0.0090 -0.0169
11677W        W27146   0.843   1.372  14.039  0.0958  0.1904  0.0121
11678W        W27147   1.033   3.819  13.595  0.0110 -0.0937 -0.2357
11679W        W27148  15.050   7.723  13.679  0.3017 -0.0330 -0.0786
11680W        W27149   5.168  13.602   1.323  0.1708 -0.3671  0.1749
11681W        W27150   3.913   9.236   3.388 -0.1376  0.2279 -0.0993
11682W        W27151  14.581   4.241  15.719 -0.2084  0.1106  0.1439
11683W        W27152  11.552   7.188   4.989 -0.0696 -0.3657  0.4096
11684W        W27153  12.722   8.896  11.536  0.0269  0.3831 -0.0629
11685W        W27154  14.043  17.587  15.712  0.0028  0.2750 -0.2329
11686W        W27155   4.638  18.144   0.793 -0.0506  0.0693  0.2198
11687W        W27156  16.392  12.290  14.160 -0.2334 -0.0348  0.0588
11688W        W27157   0.834   0.178  10.711 -0.0395 -0.1828 -0.1331
11689W        W27158   6.771   2.608  10.933  0.0819  0.0245  0.2451
11690W        W27159  12.167  15.154  13.053 -0.2853 -0.3044  0.0810
11691W        W27160  12.871  15.067   3.206 -0.0262  0.4589  0.1369
11692W        W27161   7.050   0.397  10.460 -0.1863  0.2783  0.1249
11693W        W27162   5.518   3.952   1.172  0.1187  0.0310  0.2125
11694W        W27163   4.985  16.764   4.630  0.2151  0.0027 -0.2381
11695W        W27164  16.923   7.586  15.714 -0.3376 -0.0891 -0.0702
11696W        W27165   1.286   8.352   0.027  0.2812  0.0549 -0.2107
11697W        W27166   5.258  12.114   1.284 -0.0719 -0.0254  0.2363
11698W        W27167  13.169  13.531  12.650 -0.1357  0.3020 -0.0890
11699W        W27168   0.430   8.486   4.026 -0.3688  0.1477  0.2046
11700W        W27169   5.304   0.399   2.956 -0.2278 -0.0337 -0.1637
11701W        W27170  13.497   2.602  12.772  0.0792  0.1296 -0.0209
11702W        W27171  10.770   7.145  12.190 -0.0334 -0.0346 -0.3932
11703W        W27172  16.987   6.222  15.112 -0.2286 -0.1517  0.2543
11704W        W27173  11.237  11.361   3.375 -0.0766  0.0602  0.0800
11705W        W27174  15.375  10.101   4.991  0.2249 -0.0485 -0.0181
11706W        W27175  11.018   9.151  13.800  0.0309 -0.2590  0.0356
11707W        W27176  11.097   0.437   0.184 -0.1680  0.0596  0.2216
11708W        W27177   8.893   4.983   5.088 -0.1503  0.2889 -0.0004
11709W        W27178  14.074  14.916   1.622  0.1734 -0.3687 -0.2579
11710W        W27179   8.649  14.151  10.231  0.2280  0.2074  0.2002
11711W        W27180   2.258   0.144  14.458  0.1988  0.0830  0.0223
11712W        W27181   2.176  14.122  13.587  0.0233  0.1815  0.1887
11713W        W27182  18.110   6.719  15.756 -0.0084 -0.3628  0.2011
11714W        W27183   9.008   5.861  11.419 -0.2057  0.0595  0.0557
11715W        W27184   6.402   6.200   0.035 -0.0758  0.0814  0.3951
11716W        W27185   0.168   5.830   0.115  0.0307 -0.2114  0.0663
11717W        W27186  12.007  14.641  13.352  0.2293 -0.1696 -0.0393
11718W        W27187  12.113  15.856  11.883 -0.1713  0.2725  0.2973
11719W        W27188   3.339  13.188   1.050 -0.0617  0.1508 -0.0094
11720W        W27189   8.370  17.278   4.651  0.0079  0.0512 -0.1923
11721W        W27190   2.734  11.369  14.045  0.2065 -0.0780 -0.1476
11722W        W27191  14.299   3.146   4.188  0.4019 -0.0454 -0.0497
11723W        W27192  16.587   1.610  11.802 -0.3034  0.3731 -0.1734
11724W        W27193   8.509   7.655   3.325 -0.0679 -0.0139  0.0849
11725W        W27194   3.170  11.578   4.536  0.3058 -0.0836  0.2755
11726W        W27195   4.926  14.319  12.427  0.1915 -0.3050 -0.0322
11727W        W27196   0.633   5.243  12.062  0.2271  0.0876  0.1340
11728W        W27197  12.114  18.092   4.742 -0.0872  0.0317 -0.3576
11729W        W27198   2.034  11.960   4.161  0.1953 -0.2821 -0.0923
11730W        W27199   8.887   0.729  14.434 -0.1389  0.0884  0.1184
11731W        W27200  10.916  15.808   0.064 -0.1757 -0.0511  0.3932
11732W        W27201  10.576   7.126  15.532 -0.3445  0.2715 -0.1363
11733W        W27202  12.826   9.285  15.201 -0.1611  0.2053 -0.2232
11734W        W27203   6.133   6.119  13.247 -0.1822  0.3001  0.0362
11735W        W27204   0.662   6.221   4.346  0.1477 -0.0162  0.1943
11736W        W27205  10.474  10.235   2.886 -0.0680 -0.0576  0.0276
11737W        W27206  14.732   2.153  12.870 -0.0011  0.1016 -0.3055
11738W        W27207   2.656  11.185   1.197  0.1599 -0.0380 -0.0638
11739W        W27208  10.357  17.098  11.715 -0.0668 -0.2498 -0.1660
11740W        W27209   8.192   1.274  11.525 -0.1890 -0.0805  0.0386
11741W        W27210  15.678  15.138  12.366 -0.0053 -0.2327  0.0233
11742W        W27211   5.224   3.459  15.335 -0.0215 -0.0961 -0.0809
11743W        W27212   8.981   1.846  13.902  0.3678  0.0508 -0.1755
11744W        W27213   7.696  14.489   3.739  0.0503 -0.1311  0.0449
11745W        W27214  15.262  13.852  10.866 -0.2134  0.1766 -0.0742
11746W        W27215  14.773   8.539  14.125  0.2040 -0.0578  0.1092
11747W        W27216  14.339  13.829  11.914  0.0617  0.0484 -0.2737
11748W        W27217   4.531  15.167   3.865  0.2495  0.1090 -0.2037
11749W        W27218  15.773  12.154   2.234 -0.1882  0.0188  0.0182
11750W        W27219   2.465   4.894  15.887 -0.1378 -0.1359 -0.2612
11751W        W27220  14.429   0.326  11.482  0.2291 -0.2402 -0.0236
11752W        W27221  16.704  11.315  15.266 -0.2791 -0.1429  0.0836
11753W        W27222   5.063  14.884   0.744 -0.0194 -0.0007 -0.3379
11754W        W27223   0.143  18.338   2.284 -0.2055  0.0668  0.0964
11755W        W27224   2.400  13.162   3.529 -0.1849  0.2938 -0.0805
11756W        W27225   6.260   2.757   0.324  0.0879 -0.0438 -0.0474
11757W        W27226   2.339   0.569  10.106 -0.0428  0.0885 -0.1512
11758W        W27227  15.729   7.757   3.542 -0.0304  0.0142  0.3727
11759W        W27228   0.371  10.686   4.080 -0.0210  0.0634 -0.1037
11760W        W27229   0.261   9.812  14.045  0.0680 -0.2308 -0.0454
11761W        W27230   3.613  17.877  14.704  0.0843  0.1585 -0.3265
11762W        W27231  15.509  16.970  13.517 -0.1710 -0.2105 -0.0893
11763W        W27232   5.718  13.243  13.936  0.1272 -0.2498  0.3281
11764W        W27233   6.236   8.327   1.884  0.3410  0.1820 -0.1331
11765W        W27234   3.180  10.329   0.683  0.0721  0.0343  0.4307
11766W        W27235  16.922   2.732   4.447  0.0696  0.0746 -0.2891
11767W        W27236   1.560  12.989   2.538  0.3346  0.0586  0.0797
11768W        W27237  18.041  12.174   5.208 -0.0511  0.0757  0.3560
11769W        W27238   7.565   2.088   1.454  0.1709  0.0735  0.0287
11770W        W27239  17.709   4.617  13.584  0.0225 -0.0443 -0.4738
11771W        W27240  13.500   2.854  12.319  0.0667 -0.0325  0.0638
11772W        W27241  14.500   1.970  15.475  0.1537 -0.2038  0.2663
11773W        W27242   6.761   4.521   2.948 -0.2850  0.2381  0.0833
11774W        W27243  12.124  17.976  12.760  0.0754 -0.2393 -0.1828
11775W        W27244   9.996  16.487  13.605 -0.3156  0.0833  0.2347
11776W        W27245  16.091   9.627   3.734  0.1256 -0.0911 -0.0189
11777W        W27246  15.768  12.818  11.457  0.1430 -0.0399  0.0775
11778W        W27247  12.207   0.171   4.168  0.3750 -0.0449  0.0905
11779W        W27248  17.727  12.840   4.805 -0.1934  0.2310  0.0143
11780W        W27249   1.306  15.205   4.104 -0.0168 -0.1670 -0.0289
11781W        W27250  15.840   8.583   4.758 -0.5180 -0.1567  0.1168
11782W        W27251   0.047   8.536  11.640 -0.3186 -0.2140  0.1514
11783W        W27252  11.709   5.271   3.643 -0.0198 -0.0386 -0.4299
11784W        W27253   4.507  17.222  10.733  0.0618  0.2192  0.2234
11785W        W27254   0.700  13.478  15.911 -0.1158  0.0831 -0.0182
11786W        W27255  11.793  15.877  13.732  0.0385 -0.0069  0.1743
11787W        W27256  10.923  10.084  15.248 -0.1291  0.0058  0.0992
11788W        W27257   0.216  17.879  13.664  0.1935  0.0135  0.0364
11789W        W27258   7.785  11.716   0.767  0.1321  0.1416  0.2108
11790W        W27259  12.168  12.411   1.276 -0.1243  0.2043  0.3933
11791W        W27260   5.803  13.871  10.390 -0.0359 -0.1782  0.0932
11792W        W27261   5.645  14.051  11.086 -0.0636 -0.2125  0.2352
11793W        W27262  11.917   5.959   1.348  0.1474 -0.1820  0.0117
11794W        W27263   1.532  14.388   4.627 -0.2540  0.0603 -0.0105
11795W        W27264   6.650   0.120  13.699 -0.2354 -0.1013  0.1587
11796W        W27265   9.509  15.078  15.860 -0.0722 -0.0146 -0.0354
11797W        W27266  16.686   0.725  12.739 -0.0538  0.1901  0.2369
11798W        W27267  10.831   8.939   4.223  0.2463 -0.0158 -0.1925
11799W        W27268  18.017  16.820  12.944 -0.2796 -0.1352 -0.0745
11800W        W27269   8.487   8.370   1.140 -0.1186  0.0913 -0.0386
11801W        W27270  10.133  17.538  14.583 -0.1640 -0.1187  0.1678
11802W        W27271  15.534   6.483  15.197 -0.4075  0.1009 -0.1660
11803W        W27272   2.574  11.972   1.416  0.0520 -0.1210  0.1535
11804W        W27273   5.195   7.766  12.737 -0.2737 -0.1271  0.1686
11805W        W27274   1.891   3.047   1.348  0.1039  0.0014 -0.2668
11806W        W27275   2.484  15.668  14.258  0.1883 -0.1358 -0.2491
11807W        W27276   0.907   6.495  12.276  0.2507 -0.0575  0.0858
11808W        W27277   8.987   1.929  11.376 -0.1635 -0.1699  0.1133
11809W        W27278   0.618  11.310  11.596  0.2092 -0.0336 -0.1529
11810W        W27279   0.668  13.301   1.597 -0.3493 -0.0455 -0.0181
11811W        W27280   7.974  11.239   4.843 -0.3143  0.1860  0.1236
11812W        W27281  14.762   2.488  11.275  0.0304  0.0990 -0.0720
11813W        W27282   2.869  13.437  12.063 -0.1210  0.0124  0.1468
11814W        W27283  16.171  15.269  12.501 -0.1349  0.0316 -0.0071
11815W        W27284   6.056  16.622  11.708 -0.1577  0.0649 -0.4300
11816W        W27285   7.839   2.761   3.730  0.2578  0.2914  0.2215
11817W        W27286  13.527   3.816  10.487  0.1085 -0.2660  0.0486
11818W        W27287  17.400   4.373   4.213  0.1271  0.1220  0.1109
11819W        W27288  11.191   5.708  13.671  0.1039  0.2989 -0.0749
11820W        W27289   7.130  10.273  14.455  0.2255  0.1357 -0.3735
11821W        W27290  16.691  16.990   1.338 -0.3903  0.0380 -0.2856
11822W        W27291   6.479   4.054   4.312 -0.2199  0.1414  0.0071
11823W        W27292   6.986   4.238   0.372 -0.0861 -0.1116 -0.4569
11824W        W27293  16.447   2.994   4.530  0.0556 -0.0342  0.4467
11825W        W27294   2.144   2.276  13.462  0.0573 -0.0894  0.2223
11826W        W27295   2.572   5.685   4.977 -0.1579 -0.0229 -0.1218
11827W        W27296   2.511  12.196  10.676  0.1978  0.2777 -0.0730
11828W        W27297  11.454   8.356  10.920 -0.0230 -0.2444  0.0664
11829W        W27298   6.426   5.538   0.855 -0.0235 -0.1458  0.4744
11830W        W27299   1.229  17.672   3.304 -0.0725 -0.2002  0.2127
11831W        W27300   6.478   9.009   1.214 -0.0662 -0.1549  0.1231
11832W        W27301   1.731   2.975   3.685  0.2645  0.0692 -0.1847
11833W        W27302  14.038   8.222  11.794  0.1975  0.1583  0.1931
11834W        W27303   6.348  16.982   0.884  0.1842 -0.2025 -0.1494
11835W        W27304  13.541  11.855   3.745  0.1325  0.1254 -0.1362
11836W        W27305   2.318  17.556  14.875 -0.3046 -0.0932  0.2580
11837W        W27306   4.050   9.622  13.159  0.3728  0.0132 -0.0168
11838W        W27307   6.606   8.129   3.835  0.0847 -0.2992 -0.0553
11839W        W27308   3.872  15.627   3.504 -0.0607  0.0712 -0.0227
11840W        W27309  13.269   6.085  12.092  0.0522  0.1699 -0.0601
11841W        W27310   5.072  13.099   2.736  0.1650 -0.0067 -0.2673
11842W        W27311   7.546   4.674   1.160 -0.1985 -0.0825  0.2044
11843W        W27312   4.457   6.706   2.204  0.2065 -0.1200 -0.0251
11844W        W27313   8.104   5.850   2.524  0.2037 -0.0834  0.0937
11845W        W27314  13.242   2.627   1.953  0.0136 -0.0729  0.0069
11846W        W27315  12.391   8.561   2.395  0.1438  0.0713 -0.0843
11847W        W27316  10.735  18.033  13.753  0.1515 -0.4165  0.0829
11848W        W27317  12.034   7.541  15.453  0.1485  0.0970  0.0595
11849W        W27318   2.694  17.844  13.884  0.0010 -0.2001 -0.0026
11850W        W27319   4.844   6.298  13.742  0.0324 -0.0605 -0.0302
11851W        W27320   6.794   3.451  15.685 -0.0896  0.1341  0.0904
11852W        W27321   1.456  17.216  15.008  0.0857 -0.2398 -0.1306
11853W        W27322  13.875  14.988   5.096 -0.1387 -0.0502  0.0031
11854W        W27323   7.936   2.024   5.451  0.0732  0.2048 -0.1426
11855W        W27324   5.432  15.277   9.162 -0.3183  0.0680 -0.0907
11856W        W27325  16.286   3.527  11.543  0.1053 -0.2657 -0.0473
11857W        W27326   2.758   8.589   2.000  0.1789  0.1849  0.1325
11858W        W27327   3.944  16.202  11.241  0.3054  0.2040 -0.2643
11859W        W27328   7.569   9.066   3.038 -0.0286 -0.0493 -0.0122
11860W        W27329  13.123   1.776   3.629 -0.0435  0.0052  0.3041
11861W        W27330   7.359  18.244   4.305  0.0749 -0.1437  0.1326
11862W        W27331   6.971   0.014  14.598  0.0251 -0.0752 -0.1150
11863W        W27332   8.913   6.742   1.218  0.3154 -0.0991  0.1436
11864W        W27333   9.313   1.976  14.853 -0.0274 -0.0649  0.3629
11865W        W27334   7.450  11.112   1.517  0.1499  0.1292 -0.1286
11866W        W27335   9.917   3.856  12.969 -0.3358 -0.3143  0.1132
11867W        W27336   0.477   1.305   3.929  0.0474  0.1544 -0.4016
11868W        W27337   9.506  18.211   0.331 -0.2782  0.0733  0.0515
11869W        W27338  16.673   9.666  10.767 -0.1289  0.0926  0.2488
11870W        W27339   1.644  15.902  14.396 -0.0051  0.2096  0.1623
11871W        W27340  13.386   2.693   3.430  0.1868  0.2000  0.2438
11872W        W27341   0.990  12.575  13.874  0.1427 -0.0790 -0.0029
11873W        W27342   3.021   0.084   2.884  0.1867  0.2302 -0.1539
11874W        W27343  11.180   7.297  14.089  0.1412  0.0700 -0.0674
11875W        W27344  15.664   3.566   3.973 -0.1937 -0.0974  0.2319
11876W        W27345   8.452  16.158  14.697 -0.3530 -0.2303 -0.0692
11877W        W27346  12.450   5.327   0.668 -0.1027  0.1387 -0.2987
11878W        W27347  12.549   1.504   3.319  0.0975  0.2587  0.0813
11879W        W27348   6.476   9.206   2.276  0.1934  0.0254  0.0808
11880W        W27349  10.504  17.110  14.673 -0.2369 -0.2246 -0.3940
11881W        W27350   0.123  12.923   2.249 -0.1306  0.0728  0.1637
11882W        W27351   1.121   8.511  15.628 -0.4107 -0.1929 -0.1282
11883W        W27352   9.892   7.625   4.964 -0.2671 -0.2081  0.0948
11884W        W27353  16.320  12.275   3.986 -0.1884 -0.0007  0.1692
11885W        W27354   1.697  18.011  12.508 -0.0123 -0.2180 -0.2486
11886W        W27355   9.845   7.880  13.535  0.0065  0.0071 -0.0151
11887W        W27356  13.255  12.153   5.061 -0.3125 -0.1160 -0.0445
11888W        W27357   0.630  13.966  12.483 -0.2415  0.4902  0.1670
11889W        W27358  17.932  13.418   5.209  0.0551 -0.2393 -0.1123
11890W        W27359  11.988  10.248   5.190  0.0685 -0.1523  0.0118
11891W        W27360  13.131   1.583  13.951  0.1205 -0.2205 -0.0701
11892W        W27361  10.030  16.129  15.110 -0.1518  0.1967 -0.2432
11893W        W27362  16.742  10.797   3.346  0.1458 -0.1575  0.0572
11894W        W27363   3.553  16.214  11.519 -0.0475 -0.1069 -0.3391
11895W        W27364  17.213  17.781   1.092  0.1735 -0.1233  0.1972
11896W        W27365   0.011  17.050   4.552  0.3658  0.1046  0.0115
11897W        W27366  11.597  13.469   1.298  0.1750  0.2673 -0.1507
11898W        W27367  18.061  12.727   5.230 -0.3594 -0.3030  0.0565
11899W        W27368   7.456  14.882  11.128 -0.2333 -0.1036  0.1458
11900W        W27369  15.211  14.331   5.040 -0.1871  0.0910 -0.2391
11901W        W27370  12.058  10.799   4.220  0.0870 -0.0977 -0.4768
11902W        W27371   0.922   3.561  14.509  0.4084  0.2240  0.2026
11903W        W27372   9.036  11.774  12.501  0.4487  0.2153 -0.1602
11904W        W27373   6.508  15.044  12.525 -0.0680 -0.1172  0.0741
11905W        W27374   4.835  12.554  11.093  0.0232 -0.1497 -0.2477
11906W        W27375  18.263  18.355  14.465 -0.3613  0.2922 -0.2129
11907W        W27376  13.750   5.144   0.997  0.0973  0.0551 -0.0964
11908W        W27377   7.687   9.417  14.181 -0.1245  0.0217  0.0266
11909W        W27378  10.084  12.072  15.473  0.1372 -0.1286 -0.0829
11910W        W27379  12.694   4.468   2.582 -0.0411  0.0676  0.2441
11911W        W27380  16.855   7.512   0.453 -0.1119  0.3538  0.1903
11912W        W27381   6.794   6.112   4.405 -0.2066 -0.4206 -0.2616
11913W        W27382  15.546  16.908  12.037  0.1005 -0.1750 -0.0567
11914W        W27383  13.182   4.388   5.051 -0.0778  0.1231  0.0393
11915W        W27384   8.966  11.398  13.555  0.0588  0.1212 -0.3637
11916W        W27385  14.803  16.490   3.126  0.0975 -0.0620 -0.0178
11917W        W27386   9.226   6.660   0.840  0.0590  0.0628 -0.0906
11918W        W27387  14.306  13.298  14.953  0.3294  0.1057 -0.2115
11919W        W27388   4.428   1.297  14.183  0.1200  0.1113  0.0379
11920W        W27389   9.330   9.409  12.096  0.0140 -0.1902 -0.2556
11921W        W27390   3.028  12.395  15.240 -0.0001  0.0489  0.4758
11922W        W27391   4.578   4.714   2.243  0.0288 -0.0331 -0.1778
11923W        W27392  12.643   8.458   3.275  0.2564 -0.1070  0.0719
11924W        W27393   3.328  12.990   3.844  0.4412 -0.0354  0.2960
11925W        W27394   1.897   8.626   2.722  0.0659  0.0878 -0.4070
11926W        W27395   1.246  15.951   1.990  0.1433  0.0303  0.1148
11927W        W27396  10.158  11.521   1.298  0.3876 -0.1864  0.0648
11928W        W27397  16.092  13.295  13.116 -0.3359  0.0891 -0.1827
11929W        W27398   6.738  17.778  14.432 -0.0700  0.3805 -0.1507
11930W        W27399  13.466   1.044  12.347 -0.0763  0.2914 -0.0971
11931W        W27400  10.918   8.116   9.848 -0.2673  0.0245  0.1996
11932W        W27401   0.611   2.053   4.775  0.0736  0.0381 -0.2014
11933W        W27402   5.018  17.360   4.120  0.0331  0.2325  0.1467
11934W        W27403   8.072   9.348  11.207  0.0274  0.4596 -0.3302
11935W        W27404  17.522  13.827  11.604  0.0746 -0.1190 -0.0440
11936W        W27405   7.409   8.145  12.598 -0.0155  0.1425 -0.0422
11937W        W27406  15.360   0.576   5.210 -0.1681  0.0212  0.0549
11938W        W27407  15.030  15.479   1.781 -0.1224  0.0122  0.0021
11939W        W27408  11.564  17.401   1.554 -0.2338 -0.1514 -0.0072
11940W        W27409   8.528   4.854  12.700  0.0569 -0.1281 -0.1658
11941W        W27410  16.661   1.154  15.026 -0.0970  0.0063 -0.1990
11942W        W27411   3.019  17.423  13.539  0.1316 -0.2538 -0.1500
11943W        W27412  18.044   9.699   4.995 -0.2179 -0.0956 -0.3637
11944W        W27413   9.465  13.686   5.498 -0.0543 -0.2574 -0.1620
11945W        W27414  13.779  11.416   2.581  0.0010  0.0236 -0.2652
11946W        W27415   2.906  15.619   1.540 -0.0557 -0.0324  0.1782
11947W        W27416   4.805  17.592   0.832 -0.3335  0.4326 -0.1116
11948W        W27417   5.090   0.329  13.704 -0.1705  0.1271 -0.5766
11949W        W27418   9.077   8.725   1.743 -0.0247  0.0750  0.1042
11950W        W27419  11.332  16.509   5.590  0.0652 -0.4915  0.1356
11951W        W27420   3.176  15.051   1.434 -0.3872  0.1802 -0.0653
11952W        W27421  11.261   4.509   2.840 -0.5183  0.0466 -0.0084
11953W        W27422  18.303  10.635  11.920 -0.1439  0.0296 -0.0994
11954W        W27423  10.412  11.311  15.856  0.0108  0.2697 -0.2599
11955W        W27424   9.015   0.837  11.726  0.2029  0.0318 -0.5652
11956W        W27425  12.509   7.772  15.392 -0.1329 -0.1473  0.2210
11957W        W27426  15.196  11.599   0.152  0.0053  0.2331  0.1474
11958W        W27427   3.599   5.026  14.637  0.0371 -0.1231 -0.2291
11959W        W27428   0.664   3.645   3.841 -0.2888 -0.2931  0.1725
11960W        W27429  11.420  17.085  14.474  0.2289 -0.1399 -0.2238
11961W        W27430   7.214  14.770  15.924  0.1375 -0.1807 -0.1271
11962W        W27431   9.907   8.147  11.526  0.1737  0.0129  0.0631
11963W        W27432  14.274  12.440  14.707 -0.0310  0.1821 -0.0159
11964W        W27433  14.368  11.447  15.355 -0.3810  0.2296 -0.1355
11965W        W27434  14.023  10.229   3.363  0.0695 -0.2335  0.2981
11966W        W27435  15.790   1.676  15.994  0.2282 -0.0869  0.0652
11967W        W27436   6.671   5.121  14.494  0.3011 -0.1380 -0.1357
11968W        W27437   1.131   0.135  11.157 -0.0814 -0.0678  0.2306
11969W        W27438  12.708   7.583   1.022 -0.0064  0.3121  0.1538
11970W        W27439   2.554  16.757   0.649 -0.1750 -0.1888 -0.3769
11971W        W27440  18.418  13.289  11.371  0.1377  0.3420 -0.3276
11972W        W27441  17.400  12.787   1.034 -0.1225  0.0105  0.3869
11973W        W27442   5.813   4.757  11.475 -0.3521  0.0206  0.2642
11974W        W27443  17.609   5.105   3.823  0.2252  0.0567  0.0191
11975W        W27444  10.295   4.303   6.173  0.2779  0.3032 -0.0546
11976W        W27445   8.716   2.783  15.722 -0.2243 -0.2772  0.6201
11977W        W27446  11.113   6.309   3.835  0.4596  0.2002 -0.0594
11978W        W27447   2.864  12.335   0.464  0.1794 -0.0302  0.2548
11979W        W27448  14.935   8.405  11.285  0.3936 -0.1536  0.1009
11980W        W27449   9.230   4.240  12.603  0.0569 -0.0251  0.2610
11981W        W27450   0.635  14.707   1.680 -0.0875  0.0618  0.3894
11982W        W27451  11.165  11.138   3.840 -0.1060  0.1600 -0.0082
11983W        W27452  16.000   0.101   0.659  0.1524 -0.1981  0.2969
11984W        W27453  16.530   3.651  13.684  0.1314 -0.0039  0.2020
11985W        W27454   4.231  15.857  15.186  0.2115 -0.0516 -0.2092
11986W        W27455  18.418  12.484  11.379  0.4072 -0.1298 -0.2093
11987W        W27456   8.265  14.803  12.135 -0.0877  0.0871  0.0099
11988W        W27457   8.247  13.296   0.448 -0.2122 -0.2066 -0.2486
11989W        W27458   9.596  11.329  15.303 -0.1745 -0.1422  0.0705
11990W        W27459   2.629   2.240  14.910  0.0654  0.2743 -0.2177
11991W        W27460  18.250   0.135  13.571  0.0259 -0.2690  0.0781
11992W        W27461  11.905  17.736  11.617 -0.2129  0.0295  0.4103
11993W        W27462   3.628  12.421   2.644  0.1888 -0.1800  0.1247
11994W        W27463  15.360  16.675   4.349 -0.3456  0.0781 -0.4042
11995W        W27464   2.244   8.067  12.249  0.0233  0.1183 -0.2107
11996W        W27465   7.363   6.448  11.707 -0.1524 -0.2229  0.1246
11997W        W27466  17.676  12.675   2.991 -0.1791  0.0586 -0.1561
11998W        W27467  15.101  13.393   0.767 -0.0150 -0.0329  0.3122
11999W        W27468  11.539   6.697   2.411  0.1615  0.2085  0.1771
12000W        W27469   9.408   6.280   1.161  0.3296 -0.2371 -0.1789
12001W        W27470   4.981   3.189   1.050 -0.1403 -0.1847 -0.1434
12002W        W27471  17.648  14.319   4.972 -0.3276 -0.1718 -0.3668
12003W        W27472  11.637   3.476  12.609 -0.0783 -0.3085 -0.3973
12004W        W27473  12.868   3.931   2.614  0.1460 -0.2378 -0.0880
12005W        W27474   5.184   9.928  15.399  0.0457  0.0361 -0.1188
12006W        W27475   0.440   4.551   2.872  0.0095  0.1364 -0.0821
12007W        W27476   3.663   8.953  11.992 -0.0671  0.3329  0.0243
12008W        W27477  18.390  10.073  12.624  0.0943 -0.1969 -0.3343
12009W        W27478   5.223   7.554   5.471 -0.3304  0.2213 -0.1894
12010W        W27479  15.190  17.579   5.191  0.0637 -0.0546 -0.2719
12011W        W27480   0.650   1.630   1.478 -0.1795 -0.2482  0.1048
12012W        W27481   9.676   4.948  15.128 -0.0993 -0.0654  0.0917
12013W        W27482   0.150  14.735  12.423 -0.3207 -0.0440 -0.1749
12014W        W27483  13.014   0.634   2.381 -0.2176 -0.1395 -0.1322
12015W        W27484   2.316  16.930   3.455  0.2318  0.2675  0.1909
12016W        W27485   8.235   7.660   1.913  0.3098 -0.1114  0.0386
12017W        W27486   6.899  14.603   2.646  0.0517  0.2352  0.1278
12018W        W27487  10.143   0.865   3.284 -0.0260  0.0965 -0.1755
12019W        W27488  18.224   2.346   3.542  0.1786  0.0751 -0.3071
12020W        W27489   9.940  17.771  12.096  0.1671 -0.0523  0.1194
12021W        W27490  13.004  12.229  12.054  0.3532 -0.1527  0.0646
12022W        W27491  13.869  12.822   2.370  0.1668  0.2408  0.2949
12023W        W27492   1.197   7.742   4.910 -0.0818 -0.2800  0.2137
12024W        W27493   8.374   2.084  12.557  0.2513  0.0678 -0.1195
12025W        W27494  10.159  14.182   5.194  0.0402  0.0791  0.0131
12026W        W27495   7.229   9.866  12.713 -0.2248  0.1144  0.0607
12027W        W27496   7.478   8.902   0.566  0.1051  0.1183 -0.2925
12028W        W27497  17.516   9.507   3.695 -0.2492 -0.0131 -0.1934
12029W        W27498   4.740  11.340  11.172  0.1322 -0.1899  0.1056
12030W        W27499   1.351  16.460  13.671 -0.1409 -0.3411  0.3374
12031W        W27500   3.118   1.916   2.220 -0.1306  0.1540  0.2727
12032W        W27501  14.818   5.769   3.639 -0.4322  0.0542  0.0071
12033W        W27502   6.363   8.048   2.344  0.3509  0.1413  0.2932
12034W        W27503   6.943  14.854  12.926 -0.0808  0.0404 -0.2253
12035W        W27504  10.321  17.812  12.393  0.1279  0.1046  0.1449
12036W        W27505  14.746   7.594   4.295 -0.2132  0.2576  0.3193
12037W        W27506   6.304   0.219   2.994  0.2982 -0.2162  0.2315
12038W        W27507   3.365   3.674   5.615  0.0262 -0.1218  0.3263
12039W        W27508  10.860   6.265  12.609  0.0582 -0.3519 -0.3228
12040W        W27509   0.567   2.664  14.401 -0.0122  0.0495 -0.2431
12041W        W27510  12.345  16.084   1.567  0.2078  0.0718  0.2293
12042W        W27511   1.665  16.566  12.060  0.1646  0.0638  0.4855
12043W        W27512   2.094   4.918  15.491 -0.1305 -0.1938 -0.1955
12044W        W27513   0.482  10.765   0.297  0.0454 -0.1601 -0.1726
12045W        W27514   8.188  14.080  13.765  0.0714  0.0838  0.1567
12046W        W27515   3.907   9.282  13.635 -0.2204 -0.1437  0.0203
12047W        W27516   2.336   8.133  11.722 -0.2643 -0.0855  0.0936
12048W        W27517   7.551  15.964  14.531  0.0371 -0.1566  0.2857
12049W        W27518   0.684   2.214   0.722  0.2045 -0.1481 -0.2798
12050W        W27519   1.876  14.128  15.931  0.0521  0.1911  0.2411
12051W        W27520   1.697  15.288  11.178  0.0025 -0.0537 -0.1439
12052W        W27521   4.321   8.387  11.014 -0.3905  0.0970 -0.1615
12053W        W27522  12.696  11.613  15.371 -0.1018 -0.0645  0.3684
12054W        W27523   0.243   9.550   2.118 -0.1589  0.0574  0.0900
12055W        W27524  13.814  18.313  15.356 -0.0486  0.0842  0.0839
12056W        W27525  10.202   3.093  13.883  0.0046 -0.1984 -0.2599
12057W        W27526  13.063   4.833   0.285  0.2801 -0.0882  0.2345
12058W        W27527  11.604   4.994  13.590  0.1528  0.1029 -0.0813
12059W        W27528   9.597   7.722  14.632  0.1201 -0.2325 -0.0458
12060W        W27529   1.556   9.749  13.603 -0.3115 -0.0103  0.2190
12061W        W27530   9.309   3.400   3.421 -0.2352 -0.0669  0.0523
12062W        W27531  10.688   5.856  13.573  0.0852  0.0220  0.0729
12063W        W27532  17.959   1.491   0.286 -0.0556 -0.0205 -0.0680
12064W        W27533   5.266   4.979   2.802 -0.1362 -0.1365 -0.0936
12065W        W27534  15.748  12.067   2.735 -0.0229  0.0537  0.1231
12066W        W27535  10.187  12.421   3.488 -0.3245 -0.0780 -0.1004
12067W        W27536  11.343   9.891   1.407 -0.0159 -0.2238  0.1012
12068W        W27537   7.398   9.495  14.911  0.0349  0.0987 -0.3284
12069W        W27538  13.371   5.442  12.211  0.0633  0.0358  0.3152
12070W        W27539  10.030  11.310  15.421  0.1233  0.0156  0.0172
12071W        W27540   7.931   9.909  12.331  0.2538  0.1709 -0.1167
12072W        W27541   3.994   3.143  14.069  0.1710  0.0117 -0.0745
12073W        W27542   9.720   0.283  14.255 -0.2101 -0.0117  0.1492
12074W        W27543  16.835  14.972  13.274 -0.1797  0.0172  0.1446
12075W        W27544   1.013  10.880   3.654  0.2999  0.0448  0.0470
12076W        W27545   0.278   7.979   1.663  0.1039  0.1260  0.0002
12077W        W27546  10.327  17.387  13.999 -0.2405  0.2233 -0.1998
12078W        W27547   1.648   0.159  11.279  0.1564 -0.1409  0.0504
12079W        W27548   2.657  18.044   0.238  0.0451 -0.2921 -0.3557
12080W        W27549  17.025  14.412   4.593  0.1703 -0.1567  0.2835
12081W        W27550   5.170  14.416   1.537 -0.1311  0.0383 -0.1358
12082W        W27551  10.763   1.351  15.065 -0.1104  0.1958 -0.0762
12083W        W27552  14.390  17.182   5.091  0.0113 -0.0106 -0.1132
12084W        W27553   1.923   6.969   2.107 -0.0391  0.1322 -0.0265
12085W        W27554   6.590  12.648   4.852 -0.0550 -0.0954 -0.2511
12086W        W27555   8.944  13.814   1.443 -0.2545 -0.0040 -0.0132
12087W        W27556  10.520   5.300   1.486 -0.1154 -0.0078  0.3062
12088W        W27557   8.554  16.794  11.628  0.0594 -0.3192 -0.0821
12089W        W27558   6.665  12.123   4.739  0.0362 -0.3343  0.1702
12090W        W27559  14.359   1.489  15.529 -0.1242  0.3454 -0.1549
12091W        W27560   6.185   0.400  12.355  0.3386 -0.0984 -0.0543
12092W        W27561   0.636   9.645   3.238  0.2427 -0.5087 -0.0073
12093W        W27562  16.525  10.684  10.273 -0.0781  0.1457  0.2286
12094W        W27563  12.943  13.887   4.396 -0.1435  0.0396 -0.1029
12095W        W27564  13.326   2.342   4.271  0.0043  0.2522  0.5280
12096W        W27565   3.324  11.820   2.189  0.0029 -0.1317 -0.0945
12097W        W27566  17.019   2.854  15.599  0.1872  0.0818  0.1698
12098W        W27567   8.738   4.390   1.259  0.3252  0.2938 -0.0195
12099W        W27568   3.174  15.783  12.400  0.2793 -0.2317  0.1788
12100W        W27569  10.865   7.079   4.221 -0.1264  0.0982 -0.1505
12101W        W27570  11.044  17.337   4.078 -0.2749  0.1420  0.0806
12102W        W27571  12.402   9.790   3.209  0.3512 -0.2041  0.1273
12103W        W27572  15.368  12.589  15.293 -0.2028 -0.0216  0.0679
12104W        W27573  15.711   7.423   1.650  0.2994 -0.1450 -0.0456
12105W        W27574   5.914   5.475   5.294 -0.0772  0.0004  0.0953
12106W        W27575   1.371   9.889  11.263 -0.0120  0.4146 -0.0998
12107W        W27576   5.037  11.079  13.737 -0.0225 -0.1270 -0.0468
12108W        W27577  10.003   5.222   0.244 -0.1688 -0.3086  0.3217
12109W        W27578   2.705  13.605   4.805 -0.1258  0.2039 -0.0366
12110W        W27579   9.611  15.984   4.421  0.1749  0.1307  0.2019
12111W        W27580  10.667   4.039   4.881  0.0936  0.0198  0.4221
12112W        W27581   8.900   5.248   0.510  0.1434  0.2609 -0.2802
12113W        W27582   4.764   2.659  15.193  0.2730  0.0258 -0.0598
12114W        W27583   1.903  14.767   2.341  0.0042 -0.0651 -0.2622
12115W        W27584   8.577  17.034  12.391 -0.0324  0.2692  0.1393
12116W        W27585  15.798  12.914   0.873 -0.1742  0.2865  0.2205
12117W        W27586  10.467   8.530   2.457  0.0549  0.2410  0.1243
12118W        W27587   0.888   7.572   2.766  0.1577  0.4040  0.2066
12119W        W27588   9.593  14.451   1.805 -0.3530  0.1475 -0.2828
12120W        W27589  18.300   7.689   1.829  0.0219  0.1729  0.1833
12121W        W27590   8.197   0.793   4.628  0.2923 -0.1866 -0.4006
12122W        W27591   7.431   8.791   2.575  0.2595  0.1212 -0.1720
12123W        W27592   0.749   5.311  13.659 -0.3040  0.2225 -0.1504
12124W        W27593   0.374   4.182   3.874 -0.3643  0.2577 -0.0125
12125W        W27594   1.166  11.395  15.133 -0.1395  0.2118 -0.1057
12126W        W27595   2.643  16.995   1.108 -0.0337  0.0502 -0.2376
12127W        W27596  10.493   5.939   5.592  0.1138  0.0441 -0.0735
12128W        W27597   9.053   2.979   3.247 -0.2728  0.1495 -0.1181
12129W        W27598   7.339   5.242   2.768 -0.2373  0.0742  0.2009
12130W        W27599   2.201  14.100  15.009 -0.0316  0.1394  0.0956
12131W        W27600  16.782   1.403   0.506  0.0201 -0.2902 -0.1703
12132W        W27601  14.104   6.773  12.074 -0.0528 -0.1152 -0.3375
12133W        W27602  12.987  13.125   0.526 -0.1595  0.3298 -0.2551
12134W        W27603  10.030   9.328  14.508  0.0743  0.0734  0.1914
12135W        W27604   4.783  16.109   9.602 -0.0361 -0.1204 -0.4207
12136W        W27605  10.881  10.913   5.557  0.0413 -0.0907 -0.2628
12137W        W27606  11.911   1.938  14.220 -0.1647 -0.0124  0.0948
12138W        W27607  14.867  17.827  15.929  0.0115  0.4671  0.3051
12139W        W27608   4.391   3.462  13.388 -0.1728  0.3442  0.1052
12140W        W27609  17.250   0.487  15.665  0.0465 -0.0562 -0.4248
12141W        W27610  16.737  16.349   0.462 -0.2722  0.0624  0.0288
12142W        W27611   1.684  16.989  12.361  0.1086  0.1624 -0.1918
12143W        W27612   8.066   8.874  12.490  0.0784  0.0440 -0.0834
12144W        W27613  13.083  14.807   4.001 -0.0087 -0.1315 -0.1112
12145W        W27614   9.246   5.474   4.497  0.0615 -0.2589 -0.0983
12146W        W27615  16.847  12.367   3.982  0.2287 -0.1745 -0.0883
12147W        W27616  11.137   5.062  11.153  0.2431  0.4579 -0.4559
12148W        W27617  15.516  13.615   2.080 -0.1110 -0.3188 -0.0772
12149W        W27618  11.141   1.100   5.275  0.4328 -0.0485 -0.2255
12150W        W27619   7.270   8.593  14.923 -0.1034  0.2002 -0.0581
12151W        W27620  10.797   7.361   5.673 -0.1651  0.1037 -0.0855
12152W        W27621   6.620   3.081  15.984  0.0607  0.0330  0.1801
12153W        W27622  10.267  15.150  15.015  0.0961 -0.1337 -0.1072
12154W        W27623  17.720  12.326  13.552  0.5465  0.0011  0.1580
12155W        W27624   0.574  10.630  12.970 -0.1003 -0.4353 -0.3283
12156W        W27625  15.319  10.797   2.912 -0.0223 -0.3844  0.4072
12157W        W27626  11.840  16.130   0.829 -0.1876  0.0351  0.0521
12158W        W27627  18.038  13.499  12.836  0.3297 -0.1418  0.0342
12159W        W27628   6.601  10.084   2.911 -0.1947 -0.1769 -0.0921
12160W        W27629  10.269   9.746  14.062  0.1420 -0.1560 -0.1200
12161W        W27630  16.128   1.494  14.396 -0.3395 -0.1038  0.1629
12162W        W27631   2.226   0.393   1.984 -0.3085  0.2701  0.3768
12163W        W27632  13.608   8.614   3.575  0.0198  0.0137  0.0263
12164W        W27633   3.038   0.661  15.477 -0.0013 -0.1954 -0.0809
12165W        W27634  15.917  14.118   0.789  0.0199 -0.0795 -0.2762
12166W        W27635  12.457  16.907  13.592 -0.2234 -0.0884 -0.1563
12167W        W27636  14.855  14.112  13.538 -0.0946  0.3279  0.2072
12168W        W27637  13.317   4.244  10.195  0.0719 -0.2009  0.0301
12169W        W27638   4.665  10.120   2.920 -0.2817 -0.0786  0.2556
12170W        W27639  13.929   7.721   1.615  0.1086 -0.1192  0.1904
12171W        W27640  13.473   7.617  14.346 -0.2168 -0.0366 -0.2109
12172W        W27641   0.999  15.214  15.361 -0.3089  0.0682  0.1972
12173W        W27642  13.230   5.107   0.732  0.0728  0.1906 -0.0800
12174W        W27643   5.096  12.164  14.397 -0.0162  0.0519  0.1303
12175W        W27644  10.747  13.601  11.509 -0.0939 -0.0253  0.1270
12176W        W27645  13.557  16.810   4.789 -0.1404  0.2528  0.0859
12177W        W27646  10.709  11.057  13.577  0.2882 -0.0514 -0.0156
12178W        W27647  10.352   1.724  14.347 -0.0545  0.2045  0.1112
12179W        W27648  16.902  15.119   4.032 -0.1548 -0.1130 -0.1920
12180W        W27649   6.530  14.829   1.052 -0.0041  0.1002 -0.1753
12181W        W27650   2.582  10.494   4.770 -0.3221 -0.0150 -0.0724
12182W        W27651  18.048   6.447  11.572 -0.1763 -0.2421  0.0321
12183W        W27652  15.239   1.543   4.103 -0.0832 -0.0220  0.1340
12184W        W27653  18.154  11.575   3.792  0.1070 -0.2769  0.3590
12185W        W27654   3.795  13.462   3.248  0.1637 -0.0197  0.1284
12186W        W27655  18.179   4.539  12.127  0.1195  0.1294  0.1080
12187W        W27656   7.363   1.599   3.315 -0.1228 -0.1608  0.0074
12188W        W27657   9.227  16.405   9.952  0.3542 -0.1796  0.1066
12189W        W27658   1.270  10.544   3.919  0.1088 -0.0232 -0.3523
12190W        W27659  12.284  11.553  12.103  0.4818 -0.2000 -0.1459
12191W        W27660  10.477  10.821  12.230 -0.3003  0.2555  0.3546
12192W        W27661   0.176   4.830  13.995 -0.0151 -0.1847  0.0786
12193W        W27662   1.803   0.684   0.577 -0.0317 -0.0536 -0.1216
12194W        W27663  12.264  16.450   9.780 -0.0002 -0.0669 -0.1572
12195W        W27664  12.549   3.077  12.604  0.1473  0.0543 -0.2809
12196W        W27665  16.888  10.071   1.800 -0.1435 -0.3967 -0.5493
12197W        W27666  18.327  13.366  13.873 -0.0578 -0.1433 -0.1063
12198W        W27667   4.547  10.841  14.549 -0.0407  0.2967  0.0284
12199W        W27668  12.265  11.511  13.420  0.1549 -0.2324  0.1011
12200W        W27669  16.260  12.028   4.974 -0.0243  0.2153  0.0902
12201W        W27670  11.896   4.440   1.369 -0.3139  0.1726  0.1843
12202W        W27671   3.120   0.274   1.570 -0.0434 -0.0176 -0.0304
12203W        W27672   9.670  17.153   3.975  0.4561 -0.2083  0.1352
12204W        W27673  12.911   8.947   1.513 -0.2727  0.0059 -0.0663
12205W        W27674   4.095   6.416   0.817  0.2847  0.0031  0.2048
12206W        W27675   6.814  16.220   3.431  0.2873  0.0727 -0.5797
12207W        W27676   9.326  17.300   3.538  0.1260  0.0780 -0.0005
12208W        W27677  12.743  13.946   5.227  0.0440  0.1320 -0.1620
12209W        W27678   9.100  11.732  14.715  0.3106  0.1513  0.2945
12210W        W27679   0.971  16.778   1.114  0.0853  0.2113 -0.2367
12211W        W27680  16.857   2.119  14.115  0.3317 -0.0391  0.0355
12212W        W27681   7.192   2.416  14.307  0.3255 -0.1306  0.1734
12213W        W27682  18.218  14.700  11.109 -0.4748 -0.2070  0.1405
12214W        W27683   1.441   3.875  12.767  0.0859  0.1062  0.0547
12215W        W27684   3.054   3.641   1.916 -0.1037 -0.0415  0.2997
12216W        W27685  17.550  14.164  15.349  0.0063 -0.0468 -0.2706
12217W        W27686   2.889  16.141  12.733 -0.1037 -0.0160 -0.0811
12218W        W27687   6.029   9.849  13.608 -0.1385  0.0637 -0.2581
12219W        W27688  17.822  11.264  13.606  0.0795 -0.2432 -0.0957
12220W        W27689  14.284   5.436   6.064  0.1312 -0.1149 -0.0531
12221W        W27690   6.562   7.073   2.584  0.1356 -0.1068 -0.0306
12222W        W27691  16.701  15.372   3.630  0.4845  0.1499 -0.1029
12223W        W27692   7.207   0.909   4.742 -0.0545 -0.0938 -0.0149
12224W        W27693   6.980   4.510   4.368 -0.0060 -0.1896  0.0223
12225W        W27694   1.185   1.688   1.462  0.1902  0.1452  0.2898
12226W        W27695  14.660  17.639   3.942  0.3214 -0.1618 -0.1878
12227W        W27696   7.555  12.037   1.914 -0.2746  0.0593 -0.0378
12228W        W27697   4.047   2.197  14.006 -0.0996 -0.0871  0.2775
12229W        W27698   0.125  15.618  12.633  0.0018  0.2451  0.0992
12230W        W27699   6.812  10.729  13.884 -0.1686  0.4063 -0.3576
12231W        W27700   5.334  11.686  15.593 -0.1372 -0.0729  0.0179
12232W        W27701  15.880   7.429   0.611 -0.0744  0.1079 -0.1415
12233W        W27702  10.069   3.474  14.759  0.1167  0.2118 -0.1593
12234W        W27703  16.319   2.642   2.913  0.1766  0.0679  0.0744
12235W        W27704  16.556  14.214  11.689  0.2504  0.0888  0.1541
12236W        W27705   8.592   3.806  12.318 -0.1979 -0.1277  0.3383
12237W        W27706   7.238  16.643  14.974 -0.2871 -0.3273 -0.0027
12238W        W27707   2.664  12.340   1.872 -0.2227 -0.0816 -0.0535
12239W        W27708   2.013   5.424   6.062  0.2089 -0.0131  0.0085
12240W        W27709  14.323   5.402  13.006 -0.1448  0.3843 -0.2555
12241W        W27710  15.397   1.629  11.008  0.0064  0.1630 -0.1362
12242W        W27711   6.047   1.734  11.902 -0.0820 -0.0002 -0.2242
12243W        W27712   0.399   6.344   5.551 -0.0197  0.0312  0.0931
12244W        W27713  14.627   2.404  11.908 -0.0679  0.0536  0.0859
12245W        W27714   0.026  18.420   3.732  0.0482  0.2423  0.2259
12246W        W27715  10.219   1.146  11.587 -0.0350  0.0050  0.2161
12247W        W27716  11.064   0.153  12.854  0.1788  0.0496  0.0952
12248W        W27717  11.690  18.211   1.528 -0.0280  0.1295  0.1407
12249W        W27718  10.655   5.199  11.302 -0.0960  0.3324  0.1328
12250W        W27719  17.142  18.016  15.206  0.0752  0.0873 -0.0473
12251W        W27720  10.126  10.702   0.718  0.0339 -0.0890 -0.1931
12252W        W27721  13.957  17.521  12.938  0.0307 -0.1855 -0.0694
12253W        W27722  12.716  12.553   1.375 -0.2134  0.0593 -0.1878
12254W        W27723   3.602  18.425   1.664 -0.1002 -0.1643 -0.3010
12255W        W27724  11.256  12.953   0.626 -0.0244  0.0823  0.1883
12256W        W27725   0.336   5.423   2.136 -0.2081 -0.1652  0.2640
12257W        W27726  13.733   8.826   5.255  0.0917  0.0165  0.4596
12258W        W27727  13.546   9.252   5.562 -0.1947  0.6018 -0.1175
12259W        W27728  12.769  18.105  11.183 -0.0730 -0.0395 -0.1161
12260W        W27729   5.182   3.579  11.731  0.0594 -0.1145 -0.0362
12261W        W27730  11.517   1.854   1.321  0.1994  0.1930  0.0260
12262W        W27731   4.118  10.563   2.192  0.0451 -0.1894  0.0198
12263W        W27732  12.968   6.976  11.360  0.2536 -0.2797  0.2807
12264W        W27733   8.723   1.190  14.552 -0.0498  0.2364  0.2648
12265W        W27734   0.431   6.204   3.271  0.1131  0.3416 -0.1983
12266W        W27735  12.128  12.417  13.626 -0.2085 -0.0656  0.1168
12267W        W27736   3.302  12.636  11.679 -0.0118  0.0427 -0.1126
12268W        W27737  10.022  15.995  13.705  0.0832  0.1156  0.1917
12269W        W27738  16.517  17.012  15.922  0.4646 -0.0908 -0.1208
12270W        W27739   8.066   7.281   1.539 -0.1481  0.1869  0.1209
12271W        W27740  18.163   2.165   4.455 -0.1409 -0.2732 -0.0530
12272W        W27741  13.693   4.504  15.714 -0.1992 -0.2641 -0.0884
12273W        W27742  12.264  14.187   0.234 -0.0987  0.1794 -0.2862
12274W        W27743   3.542  17.134   0.818 -0.1447 -0.0711 -0.1807
12275W        W27744   1.213  12.350   2.002  0.3793 -0.0942 -0.0204
12276W        W27745   8.895   8.898  11.373  0.1562 -0.1753  0.2368
12277W        W27746  15.386  12.189  14.985 -0.0041 -0.2281 -0.0985
12278W        W27747   1.284   2.515   2.752  0.2733  0.3616 -0.2178
12279W        W27748  16.789   0.588   5.547  0.0815 -0.0220  0.1400
12280W        W27749   0.271   4.925   0.378  0.0499  0.0596 -0.0358
12281W        W27750   1.652   6.593   0.088  0.1208  0.1666 -0.2041
12282W        W27751  11.123   8.294   1.748  0.0215 -0.4380 -0.0756
12283W        W27752  14.028  12.677   3.037 -0.1961 -0.3892  0.1609
12284W        W27753   3.179   3.115   1.100  0.1562  0.2239  0.0940
12285W        W27754   4.221   1.464  13.025 -0.0193  0.1508  0.0007
12286W        W27755  16.164  15.192   0.907 -0.1830 -0.2104 -0.0741
12287W        W27756  11.693   8.827   0.185 -0.1172 -0.1445  0.1481
12288W        W27757  11.844  15.535   1.349  0.1296 -0.3138  0.1788
12289W        W27758   7.958   4.362   4.251  0.0605 -0.2376  0.2328
12290W        W27759   0.526  17.758   3.626  0.0137 -0.1320  0.0214
12291W        W27760  16.874   4.056   1.842  0.1616 -0.1168  0.2728
12292W        W27761   7.575  14.791  15.288  0.1107 -0.0982 -0.2621
12293W        W27762   8.459  12.867   0.347 -0.1086 -0.0322 -0.1397
12294W        W27763   4.489   6.445   5.775 -0.1450  0.0854 -0.1643
12295W        W27764   5.802   5.763  15.153  0.1985 -0.1440  0.1402
12296W        W27765   3.323   4.159  10.463  0.1668 -0.3524 -0.1961
12297W        W27766  13.491   6.667   0.874  0.3535 -0.3481  0.0784
12298W        W27767   3.951   2.383   4.784 -0.1658  0.0489 -0.1482
12299W        W27768  16.750   0.272   4.130 -0.0331  0.1833 -0.1605
12300W        W27769   9.959   5.962   4.943 -0.1737 -0.1381  0.1955
12301W        W27770   5.204  14.551  12.145 -0.0441 -0.3434  0.1567
12302W        W27771   6.408  10.952  14.772  0.1615  0.1710  0.1813
12303W        W27772   7.966   3.457  16.029  0.0059 -0.0316 -0.3546
12304W        W27773  17.197  14.032   0.684  0.1624 -0.0270  0.0157
12305W        W27774  10.402  14.367   2.962  0.2112  0.0940 -0.2164
12306W        W27775  17.498   5.656  14.014 -0.2777  0.2226 -0.2688
12307W        W27776  12.980   0.009  12.403  0.0172  0.1518  0.0583
12308W        W27777  10.342  12.722   2.330  0.1861 -0.0882 -0.1200
12309W        W27778   7.607  12.549   4.914 -0.0998  0.0401  0.2280
12310W        W27779   6.420   5.119  13.405 -0.0316  0.3471  0.2010
12311W        W27780  16.570   4.888   1.214 -0.1072 -0.3679 -0.0182
12312W        W27781  10.376  16.250  13.349  0.2966 -0.4076 -0.1646
12313W        W27782  17.921  16.551  13.782 -0.2286 -0.2413 -0.0011
12314W        W27783   8.865  12.886  15.078 -0.0851  0.0611 -0.0188
12315W        W27784  11.366  14.221   2.947  0.1793  0.3460 -0.2066
12316W        W27785   5.269  15.184   1.124  0.1399  0.1666 -0.0838
12317W        W27786   2.905  17.340   2.474 -0.0396  0.0355  0.0231
12318W        W27787   7.301   8.122  10.361 -0.0143 -0.1861  0.1109
12319W        W27788  16.005   4.438  12.038  0.1943  0.3025  0.1273
12320W        W27789   7.809  18.436  11.139  0.0664 -0.3365 -0.0828
12321W        W27790  16.704   7.652  14.378 -0.1870 -0.0753  0.2144
12322W        W27791  13.310  17.561   3.997 -0.2061  0.1333  0.2244
12323W        W27792  14.360  12.402  11.480 -0.0521 -0.2172 -0.0839
12324W        W27793   2.589   5.318  14.452  0.1466 -0.2495 -0.2381
12325W        W27794   0.022   5.434  12.428 -0.0373 -0.3603 -0.3443
12326W        W27795   0.861  16.686  12.299  0.1827  0.0464 -0.1861
12327W        W27796  15.391   5.062   2.592  0.0635 -0.2806  0.1666
12328W        W27797  16.526   7.423  14.829  0.1789 -0.0045 -0.1014
12329W        W27798   0.034   4.389   0.177  0.0068  0.0770  0.0124
12330W        W27799   3.146   7.183   3.891 -0.0876 -0.0654 -0.0010
12331W        W27800  13.057   5.129  14.922  0.1543  0.1114  0.1464
12332W        W27801  15.323   2.554  15.630  0.2423 -0.2183 -0.1795
12333W        W27802   5.417   2.100   3.150  0.1627 -0.2439  0.0222
12334W        W27803  14.144   1.525   3.354  0.0758 -0.3056 -0.0793
12335W        W27804   2.134   9.655   1.075 -0.3689 -0.3411 -0.0773
12336W        W27805   1.388  18.088  14.134  0.1338  0.0799 -0.0587
12337W        W27806  15.235  17.856   1.584 -0.0109  0.4206  0.0428
12338W        W27807  16.249  15.960  14.917 -0.2005 -0.0087 -0.3391
12339W        W27808   5.670   0.633  13.095 -0.0192 -0.1211 -0.0290
12340W        W27809   1.474   0.724   4.627 -0.0635 -0.0162 -0.2042
12341W        W27810   3.136  15.394   2.983 -0.0294  0.1762 -0.0067
12342W        W27811  16.030  14.242   5.668 -0.1755 -0.1770  0.0028
12343W        W27812   4.246   6.380  13.339 -0.1672 -0.2533  0.0166
12344W        W27813  11.336  10.434   4.319 -0.0330 -0.0559 -0.2376
12345W        W27814  13.061   4.185   6.299 -0.1052  0.0172 -0.0160
12346W        W27815   3.777   3.619  12.617  0.1431  0.0706  0.1551
12347W        W27816  17.371  15.318   1.170 -0.1989 -0.1738 -0.3154
12348W        W27817   2.138  17.076   4.356 -0.0902 -0.2142  0.3177
12349W        W27818   9.375   0.014   0.771 -0.2418 -0.0731  0.2310
12350W        W27819   2.010  10.399   2.721  0.1526 -0.3588 -0.2175
12351W        W27820  14.052  13.710  12.839  0.3572  0.1470 -0.0145
12352W        W27821   6.904   7.027  10.577 -0.1815  0.0443 -0.0783
12353W        W27822  13.416   5.456  14.026  0.0291 -0.1851 -0.0462
12354W        W27823   2.896   3.889  14.934 -0.0883  0.1533  0.3038
12355W        W27824   5.733   6.048  15.927 -0.2369 -0.1702 -0.3227
12356W        W27825   9.587   6.294  12.995  0.1046 -0.0343 -0.0424
12357W        W27826   3.857   5.227  14.197  0.0799  0.0440  0.0999
12358W        W27827   6.565  16.391  13.616 -0.4419  0.0430 -0.0955
12359W        W27828  17.951   6.784  13.540  0.0306 -0.1906  0.0729
12360W        W27829  14.821  17.630   2.343  0.1512 -0.3663 -0.0100
12361W        W27830  17.486   5.750   2.766 -0.1589  0.2533 -0.4878
12362W        W27831   0.331  13.276   4.178  0.1790  0.0232  0.0111
12363W        W27832  16.258   4.080  13.462  0.0011 -0.0169  0.3339
12364W        W27833   1.472   9.269   4.755  0.0874  0.0069  0.0220
12365W        W27834  16.922   3.547   2.533 -0.1047 -0.2200  0.2786
12366W        W27835  17.209  17.084   0.641 -0.1420 -0.0286 -0.0533
12367W        W27836   4.011  14.387  15.540 -0.0210 -0.2203  0.2509
12368W        W27837   0.659   4.089  12.571  0.0669  0.1449 -0.0028
12369W        W27838   1.440  13.253  11.826  0.2496 -0.1915 -0.2757
12370W        W27839  14.650  11.391   2.877 -0.1866 -0.0625  0.1540
12371W        W27840  14.359   1.337   4.903 -0.3026  0.0531  0.1381
12372W        W27841  14.525   3.720  12.288  0.1266 -0.0559  0.2427
12373W        W27842   0.416  16.558   4.543  0.1456 -0.0452 -0.3767
12374W        W27843  17.816  18.355   4.304 -0.0984 -0.0370  0.2348
12375W        W27844  18.347   2.122   0.260 -0.2062  0.0737  0.1426
12376W        W27845  10.087   9.363  11.754 -0.2754  0.0836 -0.2461
12377W        W27846  13.320   5.706  14.920  0.0055 -0.3655 -0.2512
12378W        W27847   3.711  12.019   2.954 -0.4263 -0.1530  0.2003
12379W        W27848  17.126   4.008  13.273  0.0592  0.0036  0.1972
12380W        W27849  13.623  15.053   3.851 -0.1024 -0.0138 -0.0561
12381W        W27850   3.953  10.919  12.122  0.1432  0.0872 -0.0190
12382W        W27851  11.084  13.461  10.317  0.2176  0.0099  0.0873
12383W        W27852  10.603   7.867   3.454 -0.0112 -0.1289  0.0504
12384W        W27853  14.030  16.848  13.528  0.2840  0.0922  0.0370
12385W        W27854   2.472  13.328  12.396  0.0917  0.2804  0.1327
12386W        W27855  15.364  11.097  11.437  0.0792 -0.0859  0.0050
12387W        W27856   9.672   1.916   5.621 -0.2746  0.1617  0.1011
12388W        W27857   8.233  14.200  11.815  0.0565 -0.0262  0.0744
12389W        W27858  10.649  15.807   3.579  0.2794  0.0432  0.0462
12390W        W27859  14.493   8.960   1.671 -0.0062  0.0110 -0.2662
12391W        W27860  10.481  17.026   1.692  0.0176 -0.1501 -0.1393
12392W        W27861  17.171  16.082   0.707  0.1510 -0.0280 -0.0101
12393W        W27862  17.561   2.994  11.619  0.0862 -0.3367 -0.0389
12394W        W27863   7.366  15.086   1.022  0.2519 -0.1834  0.1431
12395W        W27864  12.710  17.490  15.327 -0.1554  0.1015  0.4789
12396W        W27865  10.113  16.487   0.017 -0.1158  0.2530 -0.0793
12397W        W27866   1.018   9.168  14.938 -0.1840 -0.1924 -0.1705
12398W        W27867   9.051   1.614   2.304  0.2226 -0.1130 -0.2324
12399W        W27868   9.796   7.866  11.921 -0.0533 -0.2690 -0.0580
12400W        W27869   5.635   7.347  10.603  0.2137  0.0796 -0.0295
12401W        W27870  16.328  17.678   0.719 -0.5488 -0.0375 -0.0401
12402W        W27871  13.972  17.702   5.064 -0.1083 -0.0860  0.3779
12403W        W27872   9.024   6.358   4.763  0.0821  0.1758 -0.0304
12404W        W27873  12.600   4.395   6.404  0.2281  0.2625 -0.3377
12405W        W27874   0.408   8.301  11.304 -0.0327  0.0779 -0.2291
12406W        W27875  17.554  14.078  13.542  0.1192 -0.0026  0.1123
12407W        W27876  12.984   4.114  12.691  0.0289 -0.1177  0.1872
12408W        W27877   5.255  17.043  11.327  0.1016  0.1667 -0.2034
12409W        W27878  11.117   9.588  14.515  0.2665  0.2525  0.0769
12410W        W27879   3.373   4.171   4.171 -0.3187 -0.0735  0.1385
12411W        W27880   5.723   4.158   0.279  0.2939  0.1259  0.0699
12412W        W27881   4.149   6.146  11.092  0.0015 -0.2292  0.1254
12413W        W27882  17.689   0.053   0.763  0.2873 -0.0532 -0.1548
12414W        W27883   7.632   6.723   0.384  0.1354 -0.4055 -0.0542
12415W        W27884   0.205  15.916  13.070 -0.1816 -0.1398 -0.0191
12416W        W27885   0.513   5.472  11.499 -0.3002 -0.0271 -0.1320
12417W        W27886  10.922   6.021   1.025 -0.0530 -0.3015 -0.0627
12418W        W27887  16.590  17.884   1.093  0.0472  0.1385 -0.0103
12419W        W27888   7.859   4.891   2.672  0.0774  0.2845 -0.1492
12420W        W27889   7.542   5.295   1.966  0.1399  0.1613 -0.1764
12421W        W27890   2.363   7.433   4.811 -0.2460  0.1850 -0.1882
12422W        W27891   2.071   7.455  14.091 -0.0827  0.0157 -0.4313
12423W        W27892  10.426  12.305  12.822  0.0451 -0.0833 -0.1984
12424W        W27893  13.790  17.183  12.571 -0.0184  0.1970  0.0867
12425W        W27894  16.686  17.722  11.808 -0.0730  0.0729 -0.0185
12426W        W27895   1.977   3.515   5.283  0.0620  0.1497  0.2284
12427W        W27896   4.698   0.201   0.753 -0.1579  0.0249 -0.0649
12428W        W27897  16.762   1.740   4.514 -0.0134  0.1006 -0.0813
12429W        W27898  16.266   2.538   1.625  0.0564 -0.1436  0.1244
12430W        W27899  12.128   3.718   2.070  0.0275  0.4392 -0.0294
12431W        W27900   7.392   3.246  10.669  0.1738 -0.0989  0.1309
12432W        W27901   0.323   7.703  13.079 -0.1196  0.2293 -0.0201
12433W        W27902   5.871   1.695   2.362  0.1104 -0.1972 -0.0813
12434W        W27903  11.102   1.838   1.635  0.1677  0.2199  0.2105
12435W        W27904   1.704  11.727   0.262  0.0569  0.1080  0.0667
12436W        W27905  15.194  15.128   3.619  0.0919  0.0817 -0.3049
12437W        W27906   8.551  15.278  15.098  0.0636 -0.2671 -0.1797
12438W        W27907   7.714   8.263   2.942  0.1565 -0.2157 -0.1591
12439W        W27908  12.628   0.277   2.250  0.0684 -0.1178 -0.0851
12440W        W27909   9.321  17.676   3.808  0.3342  0.1083  0.0873
12441W        W27910   5.834   1.902  13.777 -0.1590  0.1746 -0.5458
12442W        W27911   8.804   7.944   1.980 -0.2610  0.1426  0.0405
12443W        W27912   3.724   3.365   0.748 -0.1454 -0.0216  0.0884
12444W        W27913   9.651   2.055  14.134 -0.0037 -0.0357  0.1041
12445W        W27914  12.812   5.158  13.341 -0.0354 -0.0322  0.2005
12446W        W27915   5.071  17.217  13.273 -0.1309 -0.0190  0.0459
12447W        W27916   8.567  11.365  10.794 -0.1306  0.0260 -0.0971
12448W        W27917  18.399   6.380   4.001  0.1925  0.0637 -0.0426
12449W        W27918  14.517   9.814   5.734 -0.0049 -0.1696 -0.0932
12450W        W27919   2.985  17.443  11.243  0.1728  0.1104  0.1315
12451W        W27920  15.114   9.654   4.844 -0.0067 -0.0735 -0.0574
12452W        W27921  12.577  15.903  12.679 -0.0190  0.0358  0.0347
12453W        W27922  15.826  16.776   4.195  0.3281  0.0580 -0.1727
12454W        W27923   7.163   0.477   3.268  0.0743 -0.3537 -0.2513
12455W        W27924  17.902   2.251   5.481 -0.1557  0.1123 -0.0801
12456W        W27925   3.246   5.157   4.720  0.1838  0.3243  0.0729
12457W        W27926   8.312  15.590   1.789 -0.2535  0.0625 -0.1122
12458W        W27927   0.707   0.767   3.010  0.3635  0.0507 -0.3753
12459W        W27928   6.906   9.420  14.684 -0.3612  0.1103 -0.0235
12460W        W27929  16.568   0.269  14.920 -0.1156  0.2111 -0.0614
12461W        W27930  16.839   6.683  15.776  0.3234  0.1128 -0.3710
12462W        W27931   1.508   8.843   2.001 -0.1564  0.2084  0.1030
12463W        W27932   0.235   0.614   4.877  0.3146 -0.1982 -0.2659
12464W        W27933  15.288   8.393   4.469 -0.3727  0.0145 -0.2229
12465W        W27934  16.695   3.680  12.306 -0.1212 -0.2173 -0.1428
12466W        W27935  15.446  11.165   4.108 -0.0570  0.1428 -0.1146
12467W        W27936   9.086  15.473  11.005  0.0996 -0.2756  0.1549
12468W        W27937  18.266  12.334   0.652  0.3957 -0.0513  0.1200
12469W        W27938  10.413  13.638  14.668  0.1152 -0.1201  0.0927
12470W        W27939   7.848  15.593   9.884  0.2171 -0.1543 -0.0633
12471W        W27940  16.072  13.064  15.836 -0.4349 -0.2548 -0.1929
12472W        W27941  10.793   3.879   1.543 -0.0787  0.4186  0.1692
12473W        W27942  16.168   9.771  15.597  0.0388  0.0563 -0.3205
12474W        W27943  17.127   1.717   5.450  0.0992  0.2495 -0.1117
12475W        W27944   7.405  11.136  10.798  0.1585 -0.2212  0.0009
12476W        W27945   6.730  15.613  13.662 -0.0114 -0.1682  0.0245
12477W        W27946   7.199   0.070   2.194  0.1492  0.1187 -0.1188
12478W        W27947   8.968   4.511   0.247 -0.0121  0.1210 -0.3861
12479W        W27948   1.771   1.410  13.262 -0.2355  0.0802 -0.0317
12480W        W27949  10.524  11.365  13.904  0.1234 -0.1855 -0.1728
12481W        W27950   6.929   2.254   2.027  0.3315  0.3047 -0.0858
12482W        W27951   7.661  13.698   9.115  0.1994  0.1783 -0.0598
12483W        W27952  18.078   8.702   5.795 -0.0085 -0.0866 -0.2829
12484W        W27953  10.463  14.944   3.590  0.0783  0.2792 -0.2182
12485W        W27954   4.506   1.103   0.270  0.0475  0.2282  0.2164
12486W        W27955   6.216   2.894   1.196 -0.0568 -0.1036  0.0897
12487W        W27956   6.879   5.395  10.475  0.1307  0.4477  0.2862
12488W        W27957   6.115   0.758  12.713 -0.0693  0.0023 -0.2314
12489W        W27958   8.027   3.712  14.721 -0.1522 -0.2781  0.1675
12490W        W27959   7.017   4.143   4.693  0.0633  0.4227  0.1542
12491W        W27960   8.638  10.499  14.548 -0.0173  0.1304 -0.0035
12492W        W27961  16.511   0.580   1.371  0.2882  0.2164 -0.3379
12493W        W27962  13.993  11.382   5.857  0.0958 -0.0304  0.2657
12494W        W27963   2.082  13.556   0.762 -0.4058  0.1258 -0.3314
12495W        W27964  14.206   4.271   2.141 -0.0606  0.0866 -0.2210
12496W        W27965   4.579   2.514   3.072  0.2747  0.0646  0.1248
12497W        W27966  16.286  16.611   5.165 -0.0748 -0.4484  0.2439
12498W        W27967  15.719   5.146   2.160  0.2898 -0.0165 -0.0332
12499W        W27968  15.107   0.016   5.152  0.2036  0.2332 -0.2695
12500W        W27969   3.926   9.135  14.733 -0.1811 -0.1604  0.0681
12501W        W27970  14.965  16.404   0.881 -0.0180  0.1238 -0.2980
12502W        W27971   7.581   9.171  12.728 -0.3275 -0.4133  0.2935
12503W        W27972  15.262   0.291   4.716 -0.2206  0.1682 -0.1490
12504W        W27973  17.571   7.113  11.413  0.2204  0.2834  0.2356
12505W        W27974   9.588  12.747  11.514  0.0344  0.3806 -0.0293
12506W        W27975  10.503  17.342  16.003  0.0000 -0.1694 -0.0366
12507W        W27976   1.957   3.435   3.534  0.0212 -0.1111 -0.0182
12508W        W27977  15.464   8.487   3.916 -0.0563 -0.1813  0.0050
12509W        W27978   2.764   2.901   4.409 -0.0826  0.0150  0.0041
12510W        W27979  11.531  11.760  11.555 -0.3955 -0.1965  0.4299
12511W        W27980   6.071  10.492   2.110 -0.0367 -0.1391  0.1490
12512W        W27981  11.179   7.704   1.523 -0.3823 -0.1500 -0.1353
12513W        W27982   7.957  12.083  12.812  0.3285 -0.1810 -0.1254
12514W        W27983   6.459  10.112  13.766  0.1829 -0.0793 -0.1483
12515W        W27984   2.759   0.837  10.752 -0.1323  0.0852 -0.0554
12516W        W27985   3.013  11.651   5.070 -0.1265  0.1415  0.2374
12517W        W27986  12.316  10.559   1.939 -0.0044 -0.0201 -0.0645
12518W        W27987   4.978   7.892  14.061 -0.1996 -0.0741  0.1998
12519W        W27988  13.400   0.068  12.152 -0.1005 -0.0152  0.0111
12520W        W27989   4.430   0.920  10.832 -0.2677 -0.2994  0.3505
12521W        W27990  15.374  16.765  15.505  0.1588 -0.0846 -0.2135
12522W        W27991  17.663   9.823   0.559 -0.0494  0.1543 -0.3318
12523W        W27992   5.304  12.900  13.257 -0.3350 -0.0257  0.4534
12524W        W27993  12.977   0.954   3.023  0.2635 -0.1088  0.0210
12525W        W27994  13.346   7.909  13.933  0.1384  0.1339 -0.1634
12526W        W27995  10.523   8.152   2.818  0.0993  0.5065 -0.1799
12527W        W27996   9.539   9.151  11.535  0.1099  0.1308 -0.1670
12528W        W27997  13.610  16.266  14.772  0.2403  0.5155  0.0711
12529W        W27998   9.703   6.523   3.557 -0.1990  0.0043 -0.1334
12530W        W27999  13.782   6.699   0.022  0.0125  0.1359 -0.0772
12531W        W28000  14.134   8.058   5.411 -0.3520 -0.2414 -0.0605
12532W        W28001   9.002  14.463  15.568 -0.2059  0.1840  0.0707
12533W        W28002   3.761  13.506  13.892  0.0068  0.0446  0.1144
12534W        W28003   8.636  16.247   3.574 -0.1221 -0.3392 -0.1266
12535W        W28004   7.070   1.444  15.092  0.1607  0.0982  0.3244
12536W        W28005  15.090  11.936  13.138 -0.0365 -0.0686  0.1625
12537W        W28006  11.935   5.382   0.550  0.2686  0.0959 -0.0230
12538W        W28007  15.906   8.855  15.877  0.1777 -0.2270  0.1395
12539W        W28008   8.802   5.212   3.230  0.0836  0.0341 -0.1306
12540W        W28009   8.892   5.706  13.309  0.0584  0.0437 -0.0841
12541W        W28010   0.796  11.249  14.010  0.2422 -0.0154  0.3170
12542W        W28011   9.980   4.129  14.876  0.1238 -0.0882 -0.0273
12543W        W28012   6.921  17.270   5.497  0.0758 -0.2568  0.1292
12544W        W28013   7.834   5.691  14.464  0.4851  0.2372  0.0430
12545W        W28014  14.339  18.114  12.296 -0.0618  0.2431  0.2476
12546W        W28015  11.994  12.081  14.012 -0.0081  0.2486 -0.1461
12547W        W28016  18.195   9.407  14.849  0.2144  0.0217 -0.0642
12548W        W28017   2.462   8.934  14.665  0.1018  0.1827  0.4740
12549W        W28018   3.003   1.946   4.041 -0.1979 -0.1721 -0.0849
12550W        W28019   8.107  18.426   1.582 -0.1801 -0.1004  0.0709
12551W        W28020  12.961  14.910   4.479  0.1601  0.0137 -0.0997
12552W        W28021   7.689   4.418   1.571 -0.0532  0.2467  0.0164
12553W        W28022  18.396   4.438   2.751 -0.0331  0.3213  0.1691
12554W        W28023   0.981   0.328   2.208 -0.3580  0.0790 -0.1424
12555W        W28024  17.616   2.194  13.334 -0.2071 -0.0338 -0.0629
12556W        W28025  14.069   0.636  11.620  0.0299  0.3642  0.0451
12557W        W28026  13.157  15.713   2.245 -0.0982 -0.0216 -0.4134
12558W        W28027   5.387  11.719  12.006  0.1181 -0.0913  0.0235
12559W        W28028  12.601   4.976   2.020 -0.2450  0.0653 -0.0338
12560W        W28029   2.083  11.833  12.161 -0.1389 -0.0107 -0.0049
12561W        W28030  16.454  10.485   3.619 -0.0555  0.1178  0.1981
12562W        W28031  16.064  10.594   0.249 -0.1284  0.2742  0.1496
12563W        W28032  18.410  14.476   4.478 -0.1746  0.0027  0.2344
12564W        W28033  10.676  10.327   1.057 -0.4452  0.0658  0.1834
12565W        W28034  11.429  12.608   2.281 -0.2233 -0.2113 -0.0603
12566W        W28035   2.728  10.512  10.607  0.3131  0.2480  0.0449
12567W        W28036   0.503   4.263  12.125  0.2055 -0.1306 -0.2063
12568W        W28037  15.120  12.354  10.718  0.1000 -0.1147  0.0685
12569W        W28038   2.244   6.064  13.490  0.2608 -0.2574 -0.0068
12570W        W28039  12.547  15.219  14.067  0.0125 -0.4903 -0.0389
12571W        W28040   4.166  17.229   1.923  0.1866  0.0107 -0.2791
12572W        W28041   1.436  17.986   2.451 -0.3328 -0.1720 -0.1675
12573W        W28042   8.849  12.143  14.658 -0.0253 -0.2401  0.0542
12574W        W28043   4.020  10.046  12.953  0.2740  0.2732  0.0494
12575W        W28044  14.277   6.316  15.373  0.0181  0.0067 -0.2508
12576W        W28045  10.807   9.263   4.666 -0.0321 -0.3082  0.4507
12577W        W28046   3.350  10.186  11.706  0.1434 -0.0795 -0.1406
12578W        W28047   8.095   4.137   2.966 -0.0624 -0.2287  0.1070
12579W        W28048  13.941   9.064  13.681  0.0211  0.0069  0.0968
12580W        W28049   3.178   4.058   0.221  0.2129  0.4201 -0.2545
12581W        W28050   6.972   7.995   2.143 -0.0730 -0.0174 -0.0208
12582W        W28051   6.754   9.361   5.165 -0.1160  0.0532 -0.0400
12583W        W28052   7.189  11.566   9.935  0.0220  0.0671 -0.1592
12584W        W28053  15.883  17.460  13.787 -0.0266  0.3602  0.1069
12585W        W28054  14.995   9.046   1.032  0.0413  0.0538  0.2119
12586W        W28055   4.187   1.980   0.397 -0.2057  0.2316  0.3354
12587W        W28056  15.651   7.247   6.170 -0.0174 -0.1330 -0.0283
12588W        W28057   6.113  15.708  12.429  0.1509  0.0527  0.0079
12589W        W28058   3.557  17.972   5.146  0.1773 -0.0755  0.0090
12590W        W28059   1.897  14.850  10.942  0.0528 -0.1811  0.1534
12591W        W28060   5.369   7.301  11.008 -0.1896 -0.0733 -0.1536
12592W        W28061   3.245   8.661   4.028  0.1562 -0.3964  0.1600
12593W        W28062  13.308   2.004  12.336 -0.0600  0.0753  0.0610
12594W        W28063   3.552   7.894  15.724 -0.0610 -0.0867 -0.0694
12595W        W28064  10.617  14.243  13.449 -0.1331  0.2165 -0.2038
12596W        W28065   3.995   0.125   1.333 -0.4841  0.1384  0.0942
12597W        W28066   4.050  18.209   3.552  0.1369 -0.2326  0.1785
12598W        W28067   2.824   2.210  12.664 -0.1761  0.1004  0.1169
12599W        W28068   2.620  13.466  15.920 -0.0920 -0.2297  0.0041
12600W        W28069   5.602  18.301  12.618  0.0675 -0.1545 -0.0041
12601W        W28070  14.399   7.953  11.837 -0.4703 -0.2278 -0.1825
12602W        W28071   4.700  13.100   3.918 -0.1452  0.2012  0.2063
12603W        W28072   4.498   1.221   1.100  0.2367  0.3137  0.0366
12604W        W28073  16.776   1.862  13.603  0.1343 -0.1451 -0.0980
12605W        W28074   1.414   6.810   4.559 -0.0261  0.0800  0.0817
12606W        W28075   3.120   5.886  14.825  0.1174  0.0709 -0.0601
12607W        W28076  13.460   0.684  13.782 -0.0237  0.1818  0.2477
12608W        W28077   2.323  10.778  11.504 -0.3871 -0.0690  0.1983
12609W        W28078  16.842  13.272   2.044  0.3074 -0.0153 -0.0526
12610W        W28079   8.334  15.486   4.430  0.0414 -0.0029  0.1466
12611W        W28080   6.286   3.126  13.028  0.1679 -0.0033  0.1137
12612W        W28081   5.536  18.094   5.147 -0.2813 -0.3129 -0.0997
12613W        W28082   9.696   0.118   4.558  0.0757 -0.0006  0.3120
12614W        W28083  13.110   4.238  13.489  0.0513  0.1071  0.1307
12615W        W28084   6.636   2.571  13.122  0.1881  0.1185  0.1797
12616W        W28085  13.303   0.914   1.826 -0.1262 -0.1052 -0.0529
12617W        W28086  11.800  18.191   4.074 -0.1357  0.1761  0.2964
12618W        W28087   8.865  15.490  15.399  0.0852  0.1289  0.1189
12619W        W28088   4.747  16.411   3.865  0.0949 -0.0336  0.1029
12620W        W28089   2.528   2.215   5.018 -0.4727 -0.2066 -0.1096
12621W        W28090   9.496  12.074   3.416 -0.2945  0.2316  0.3867
12622W        W28091   5.922   1.167  12.930 -0.1877  0.0966 -0.2139
12623W        W28092  10.300   4.302   4.522 -0.0809 -0.1310  0.0982
12624W        W28093   1.897   9.154  14.473 -0.1749  0.0387 -0.2613
12625W        W28094   9.622   8.781   4.525 -0.2480 -0.1589 -0.3547
12626W        W28095   6.051   1.037   1.190  0.0384 -0.1768  0.1224
12627W        W28096   0.939  11.363  12.065 -0.3965 -0.0956  0.2578
12628W        W28097  16.350   4.027  11.971 -0.1547 -0.0291 -0.1271
12629W        W28098   2.706  16.543   1.236 -0.0048  0.2321  0.0628
12630W        W28099   8.440  18.050  13.913 -0.0593 -0.4844  0.0911
12631W        W28100   4.299  14.392  12.274  0.0163  0.1152  0.0890
12632W        W28101  16.517  12.093   0.037  0.1577  0.1266 -0.2415
12633W        W28102   4.291  18.140   2.196 -0.2476  0.3078 -0.2493
12634W        W28103  13.088   0.951   1.191 -0.0225  0.3292 -0.2583
12635W        W28104  13.712   8.516   1.645 -0.1362 -0.0506  0.1965
12636W        W28105  16.676  16.386   4.347 -0.1026  0.1534 -0.0060
12637W        W28106  14.832  12.192   2.359  0.1477  0.0679  0.1000
12638W        W28107   6.985  11.624   3.247  0.1292  0.0907 -0.1342
12639W        W28108   0.489  11.168   4.296  0.2282 -0.0194  0.1376
12640W        W28109  11.124   0.749  15.587 -0.0820  0.1895 -0.1457
12641W        W28110   0.743   4.349   1.340 -0.0185  0.3107 -0.4544
12642W        W28111   1.776   4.425   0.343 -0.2857  0.0380  0.2075
12643W        W28112   5.114   6.198  14.817 -0.1680 -0.0627  0.2139
12644W        W28113  12.083  11.521   3.889 -0.1384  0.1973 -0.1352
12645W        W28114  12.902   7.532   3.098 -0.0043  0.3091  0.0704
12646W        W28115  16.271  13.356  12.639  0.0152  0.4042  0.4027
12647W        W28116   3.422   3.645  11.734  0.2164  0.0914  0.5281
12648W        W28117   8.445  13.740  11.989  0.0554 -0.1733 -0.0995
12649W        W28118   3.848   0.717  10.416  0.0419  0.0400 -0.2318
12650W        W28119  10.759  12.427  12.453 -0.0621  0.2236  0.1462
12651W        W28120   1.155   1.916   3.019 -0.1394 -0.0998 -0.0253
12652W        W28121   7.302  14.284  15.934  0.1703  0.0711 -0.2323
12653W        W28122  14.155  10.862  14.401 -0.0403 -0.0937 -0.0575
12654W        W28123   4.395   5.203   5.594  0.3203 -0.1067  0.1060
12655W        W28124   9.054  15.781  15.774 -0.1640 -0.4231  0.0629
12656W        W28125  14.735   1.044  12.070 -0.1830  0.2445 -0.0899
12657W        W28126   2.337   6.675   5.284 -0.0140  0.0029  0.0438
12658W        W28127  16.084  17.482  10.988  0.0189  0.3288  0.4877
12659W        W28128   6.621  12.475  13.525  0.2122 -0.1323 -0.2256
12660W        W28129  14.866   0.446   5.197 -0.1602 -0.1372  0.1282
12661W        W28130   1.916  16.068  11.147  0.0207  0.4636  0.3212
12662W        W28131  10.124   3.607   0.572  0.0925 -0.7131  0.0353
12663W        W28132   0.903  10.752   0.906  0.2521 -0.2997  0.0240
12664W        W28133   6.337   7.896  13.305  0.0864 -0.2776 -0.2033
12665W        W28134  18.322  10.483  14.439 -0.0526 -0.0156  0.0839
12666W        W28135  15.551   1.852  11.774  0.0320 -0.1141 -0.0351
12667W        W28136   4.121  11.947  11.560 -0.1708 -0.1711  0.1739
12668W        W28137   7.445  14.940  12.596 -0.0758  0.1670 -0.1483
12669W        W28138   0.460  11.580  14.328 -0.0420  0.1536 -0.3067
12670W        W28139  16.583  10.310  11.410  0.0876  0.4002 -0.0427
12671W        W28140   3.459   4.160  11.828 -0.1781  0.1428 -0.0017
12672W        W28141   9.971  18.298   1.066  0.0551 -0.2029  0.1732
12673W        W28142   4.946   0.778  14.439 -0.2316 -0.0203  0.1656
12674W        W28143   1.546  15.533   1.386  0.0680 -0.0124  0.0882
12675W        W28144  15.856  13.314   0.254  0.1469 -0.1004 -0.2242
12676W        W28145  17.267   7.454  11.656 -0.1351  0.0272  0.1515
12677W        W28146  11.173   1.889  13.400  0.0184  0.0752 -0.0578
12678W        W28147  12.210  15.589  15.997 -0.3300 -0.0927 -0.2199
12679W        W28148   8.947   7.017   3.851  0.1041 -0.0938  0.0229
12680W        W28149   1.115   8.147  14.784  0.3065  0.1050  0.3242
12681W        W28150   3.908   0.967   9.972 -0.0688  0.0514  0.0906
12682W        W28151  17.942  17.757   0.660 -0.0944  0.3124  0.0247
12683W        W28152   0.033  11.402   4.707  0.0739 -0.0836  0.0514
12684W        W28153  16.004   6.106   3.804  0.0457 -0.1801 -0.0413
12685W        W28154   9.112   9.616  13.726  0.1340  0.0242  0.1327
12686W        W28155  18.130   5.179   3.843  0.2869 -0.2998  0.1478
12687W        W28156   0.495  15.445   3.685  0.3585  0.0394  0.3905
12688W        W28157   0.628   5.993   5.297 -0.3499 -0.0857  0.1008
12689W        W28158   3.861   6.850   0.070 -0.3216 -0.0011  0.0786
12690W        W28159   8.578   2.618  13.926  0.1277  0.0799  0.2241
12691W        W28160  17.004   0.273  11.858 -0.0236  0.0527  0.1548
12692W        W28161   5.547  17.895   1.363 -0.0708 -0.2932  0.0185
12693W        W28162   8.736   6.125   0.374  0.1288 -0.0988  0.1727
12694W        W28163   1.102   8.055   1.909 -0.4301  0.2230  0.1393
12695W        W28164   2.623   7.529   2.567 -0.0324  0.0960 -0.2465
12696W        W28165   4.131  12.152  13.796 -0.1339  0.0295  0.3528
12697W        W28166  13.345   4.445   0.074  0.0986  0.1711  0.2278
12698W        W28167   7.655  13.015   2.103 -0.3771  0.2821 -0.0475
12699W        W28168   4.780   9.442   1.668 -0.1549 -0.1552  0.3049
12700W        W28169   2.693  12.839  15.233  0.1351 -0.1957  0.1115
12701W        W28170   6.184  12.208  11.474  0.1050  0.1468  0.0380
12702W        W28171  12.840  14.094  13.182  0.1429  0.1185 -0.0371
12703W        W28172  16.966   9.449  13.289  0.3466  0.2661  0.2623
12704W        W28173  17.686  10.817  11.044 -0.2413 -0.1911  0.3905
12705W        W28174   5.369   1.547  15.347 -0.2558 -0.3209  0.2217
12706W        W28175  16.589  17.644  14.485 -0.1326  0.1024  0.0241
12707W        W28176  12.989   6.674   4.283  0.0769  0.0429  0.2915
12708W        W28177  10.222   5.068   3.438  0.0347 -0.1686 -0.0854
12709W        W28178   4.647  17.578  15.084 -0.1352  0.0198 -0.0920
12710W        W28179  16.537   9.891  11.712  0.3963  0.0289  0.3182
12711W        W28180   3.887   5.506   2.375  0.0719 -0.1739  0.2317
12712W        W28181   9.824   2.867  11.873  0.1541 -0.1754 -0.0362
12713W        W28182  13.241   7.362   0.361  0.0778  0.4968 -0.2902
12714W        W28183  11.624   4.027  15.934  0.0595  0.1868  0.0585
12715W        W28184   6.428  12.755   0.341  0.1374  0.5386  0.3048
12716W        W28185  14.348  16.177  11.102 -0.2793  0.0254  0.0691
12717W        W28186  10.010  11.200   0.934 -0.1378 -0.2180  0.2296
12718W        W28187   0.322  13.518   0.244  0.2933  0.2713 -0.1337
12719W        W28188   3.759   0.700   4.280 -0.2664  0.0539 -0.1093
12720W        W28189   8.320   8.521   3.319 -0.0908 -0.2295 -0.1927
12721W        W28190  11.682   3.518   1.336 -0.3848  0.1897 -0.1571
12722W        W28191   9.276   3.684  15.631  0.0104 -0.0965  0.4842
12723W        W28192   6.980  16.783   2.548 -0.2088 -0.0580  0.0341
12724W        W28193   7.816  18.304  11.728  0.0439 -0.2187 -0.0498
12725W        W28194   1.729   4.901  13.040 -0.0214 -0.1543 -0.1220
12726W        W28195   2.984  11.124   3.912 -0.0371  0.1188  0.0203
12727W        W28196   7.314  18.296  12.974  0.0313  0.0060 -0.1735
12728W        W28197  14.760   5.128  15.617 -0.0163  0.0136  0.2851
12729W        W28198   6.201   0.196  15.817  0.1441 -0.0135 -0.2260
12730W        W28199   6.962  16.230  11.956  0.1738  0.1823  0.1959
12731W        W28200   5.418   1.996  15.070 -0.2090 -0.0925  0.2057
12732W        W28201  10.577   5.399  14.475  0.0775 -0.0847 -0.0423
12733W        W28202  12.197   1.548   2.562 -0.0138 -0.1982  0.0476
12734W        W28203  18.355   1.121   5.838  0.3309  0.2019  0.0100
12735W        W28204   6.902   4.384  11.738  0.0593 -0.2643 -0.1457
12736W        W28205   2.932   7.386  11.556  0.0578 -0.1514 -0.5014
12737W        W28206   4.123  12.373  11.885  0.0804 -0.1552 -0.2031
12738W        W28207  17.187  14.218  14.813  0.0008  0.0279 -0.1169
12739W        W28208  13.741  11.245  11.395 -0.1750  0.2387 -0.0016
12740W        W28209   5.948   7.076  14.818 -0.0125  0.1811  0.4744
12741W        W28210   8.217   9.303   0.329  0.2269 -0.1131  0.1462
12742W        W28211   2.925  10.344  14.359 -0.2297  0.0427 -0.0336
12743W        W28212   6.606   5.603  11.958  0.0620 -0.4454 -0.0040
12744W        W28213  10.633   8.440   4.268 -0.1404  0.5535  0.2447
12745W        W28214  16.606   4.378  13.131  0.1877  0.1673  0.1951
12746W        W28215  16.139   0.590  11.002  0.3527  0.1539 -0.1265
12747W        W28216   3.525  10.167   1.471 -0.3248  0.0486  0.3307
12748W        W28217   4.762   0.026   4.219  0.0283  0.4374 -0.0738
12749W        W28218  13.606   6.678   5.605  0.0042 -0.1083  0.0075
12750W        W28219   4.530   0.963  15.138 -0.2657 -0.1034  0.3229
12751W        W28220  13.646   8.348   3.052  0.1347 -0.2757  0.0887
12752W        W28221   5.208  11.753   2.172 -0.0982 -0.0292 -0.0678
12753W        W28222  11.772  17.604  12.506 -0.1873 -0.0373 -0.3900
12754W        W28223  14.962  15.633  13.909 -0.1561 -0.0823 -0.0561
12755W        W28224  10.881   2.953  12.940 -0.0036 -0.0288  0.4592
12756W        W28225   6.750   6.018  14.287 -0.0415  0.1180 -0.0978
12757W        W28226  13.045  16.065  11.303 -0.0266  0.0642 -0.1422
12758W        W28227   1.508   8.596   3.571 -0.1951 -0.2882 -0.1611
12759W        W28228  14.903  18.048   4.976 -0.1780 -0.2754  0.1817
12760W        W28229   5.882  18.120  14.825  0.2484  0.0607 -0.3002
12761W        W28230   4.149  15.332   1.788  0.2592 -0.1029 -0.0907
12762W        W28231   6.598   7.669  12.130  0.1455 -0.1733  0.0055
12763W        W28232   1.951   2.110  14.260 -0.0198  0.1125 -0.0956
12764W        W28233   5.149   8.173  13.579 -0.2943 -0.1463  0.2781
12765W        W28234  16.750   6.500   1.907 -0.4619  0.0247  0.1763
12766W        W28235   6.540  17.666  12.978 -0.0835  0.0412 -0.1330
12767W        W28236   2.208  16.375  12.877 -0.0918 -0.0442  0.0365
12768W        W28237   4.820   6.307   2.093  0.2135 -0.0034  0.0389
12769W        W28238  15.777   3.055   5.129 -0.0151 -0.1218  0.3048
12770W        W28239   7.498   9.888  11.549 -0.1574  0.1749  0.0354
12771W        W28240   4.003   4.028   6.466  0.3088 -0.0145  0.1204
12772W        W28241  10.761   7.039  11.254  0.3290 -0.0519 -0.1330
12773W        W28242   6.183  16.622  13.953  0.1293 -0.1129 -0.0472
12774W        W28243  16.725   9.425   0.582 -0.3002 -0.0458 -0.2202
12775W        W28244  15.917  14.981   2.270  0.2649  0.1476  0.0389
12776W        W28245  15.630   2.060  15.703 -0.0444 -0.0038  0.0386
12777W        W28246  13.310  10.241  10.376  0.0560 -0.0559  0.0712
12778W        W28247  14.035   0.949  13.028  0.1498  0.1162  0.0245
12779W        W28248   7.152   7.571   4.932 -0.0604  0.0250 -0.1048
12780W        W28249  10.799   5.516   2.625  0.1310 -0.0023 -0.0970
12781W        W28250  11.657   3.845  10.839 -0.0062  0.0683  0.2633
12782W        W28251   8.890  17.380  12.662 -0.0277 -0.0640  0.0546
12783W        W28252  15.827   5.097  11.873  0.1250  0.2102  0.1326
12784W        W28253   2.113  14.524  11.297 -0.0490 -0.2554 -0.1008
12785W        W28254   5.596  10.274   2.258 -0.0702  0.0962 -0.1135
12786W        W28255  11.240   7.145  14.578  0.0253 -0.2219 -0.0888
12787W        W28256  17.206   8.491  15.836  0.0370 -0.2454  0.0546
12788W        W28257   3.059   1.225  13.756 -0.1348  0.0491  0.0832
12789W        W28258   8.417   6.501  14.260 -0.0295  0.0206 -0.1093
12790W        W28259   2.575  15.675   3.828  0.0379  0.3429  0.1376
12791W        W28260  17.613   0.078  15.059  0.3446  0.0853 -0.0001
12792W        W28261   7.945  12.262  13.432  0.1469 -0.0167  0.1220
12793W        W28262  12.484  14.418   1.527 -0.0997 -0.1911 -0.1580
12794W        W28263  10.645   8.140  15.510 -0.1136  0.0988 -0.0308
12795W        W28264  12.067   7.690   2.803 -0.5463  0.0617  0.0517
12796W        W28265  12.201  17.672   4.570 -0.0539 -0.0222 -0.0949
12797W        W28266   4.793   0.336  14.123 -0.0293  0.1829 -0.1230
12798W        W28267   5.934   9.828  10.920 -0.0631  0.1066 -0.1136
12799W        W28268  15.726  11.029   2.168 -0.1360  0.3688  0.1816
12800W        W28269  18.435  17.364   2.759 -0.1505  0.0330  0.1123
12801W        W28270  11.648   4.563   4.215  0.2015 -0.1917  0.1271
12802W        W28271   8.343   3.640  15.760 -0.5045  0.2559 -0.1532
12803W        W28272  12.553  16.957   4.645 -0.0581  0.0021 -0.1544
12804W        W28273   5.523  14.858  11.425 -0.1008  0.0246  0.0741
12805W        W28274  14.018  18.105   1.149 -0.1356  0.2544  0.0740
12806W        W28275   7.264   1.021   1.962  0.3347  0.1142 -0.1922
12807W        W28276   7.269   8.371   2.418  0.1639  0.0995  0.0002
12808W        W28277   5.224   3.242   5.441  0.0927  0.1586  0.3470
12809W        W28278  16.988  10.915  11.185  0.3265 -0.1774  0.1432
12810W        W28279   8.311  17.972   3.921 -0.1491  0.2597  0.0121
12811W        W28280  16.596  18.114  10.972 -0.3217 -0.2615  0.0006
12812W        W28281   8.584  18.065   2.426 -0.0912  0.0047  0.1122
12813W        W28282  10.285   2.331  13.471  0.2296 -0.1093  0.5947
12814W        W28283  11.614   7.033   3.689 -0.2397  0.0989  0.1939
12815W        W28284   9.429  14.540   3.131  0.0106 -0.1382 -0.3940
12816W        W28285   9.585   0.151  13.356 -0.1836  0.0081 -0.0117
12817W        W28286  10.379   8.564  12.112  0.1919 -0.0970  0.1971
12818W        W28287  17.138   2.127  15.039 -0.0506  0.0597 -0.0495
12819W        W28288  17.158  13.140  11.322 -0.0630 -0.0289  0.2159
12820W        W28289   3.078  18.273  15.404  0.3964 -0.1714  0.0410
12821W        W28290   6.678   2.817   1.800  0.1735 -0.2175  0.0570
12822W        W28291   9.472  17.707  15.909 -0.1153  0.0964 -0.1150
12823W        W28292   6.653   7.342   4.444  0.0630  0.3843 -0.3369
12824W        W28293  12.566   3.631   4.677  0.0934  0.0543  0.0315
12825W        W28294   1.103  11.858  12.103  0.1137 -0.1924 -0.3632
12826W        W28295   4.834  10.740  14.086  0.0435  0.1038 -0.0862
12827W        W28296  13.930   3.742   3.487 -0.2599  0.1632  0.0952
12828W        W28297  13.445   3.398   0.535 -0.3094 -0.2279  0.0399
12829W        W28298  18.068  10.233  15.875  0.1661  0.0078  0.3095
12830W        W28299   3.121   9.586   0.332  0.1962 -0.0520 -0.1464
12831W        W28300   2.107  15.596   4.568 -0.1376 -0.2356 -0.0063
12832W        W28301  14.513  17.487  12.877  0.2481 -0.0123  0.3328
12833W        W28302   6.820   8.863  12.309 -0.2719 -0.1215  0.1600
12834W        W28303  11.621   5.217  14.110 -0.0785  0.1885  0.0874
12835W        W28304  17.762  13.828   3.342 -0.0158  0.1123  0.1274
12836W        W28305   3.697   3.962   5.903  0.1889 -0.1137  0.0582
12837W        W28306   1.719  10.612   1.512  0.0979 -0.0000 -0.2905
12838W        W28307   4.749  13.975   1.002  0.0408  0.1733 -0.1521
12839W        W28308   0.255  17.308  11.181 -0.0491 -0.2780  0.0938
12840W        W28309   6.371  16.583  15.553 -0.1026  0.3726 -0.0567
12841W        W28310   9.337   8.853   6.004  0.2400  0.1173 -0.0250
12842W        W28311   6.057   1.729   5.887 -0.2079 -0.0638  0.1970
12843W        W28312  17.616   9.523  15.685  0.2768 -0.2138 -0.2574
12844W        W28313  11.881   8.157  13.591 -0.2646 -0.0050  0.0460
12845W        W28314   8.161  10.158   1.035 -0.3309 -0.3818 -0.1069
12846W        W28315  15.870  10.586   2.016 -0.0062 -0.0861 -0.3294
12847W        W28316   4.509  15.502   2.351  0.3124 -0.1099 -0.0312
12848W        W28317  10.249  12.145  14.968 -0.0261 -0.3863 -0.2780
12849W        W28318   2.418  16.964  14.321 -0.0405  0.1171 -0.1185
12850W        W28319   1.406   6.558   1.428  0.2631 -0.1700 -0.1231
12851W        W28320   8.978   0.321  11.685  0.0899 -0.2690 -0.0980
12852W        W28321  18.029  17.564   1.896  0.2942  0.2807 -0.1088
12853W        W28322   4.701   8.840   3.152  0.0541 -0.0335 -0.1481
12854W        W28323   3.073  11.212   2.919  0.4574  0.0361 -0.0128
12855W        W28324  13.224   2.979   0.958 -0.3196  0.0180  0.0493
12856W        W28325   2.944   2.080   1.540 -0.1375  0.1461 -0.0673
12857W        W28326   0.512   6.400   2.352 -0.0432 -0.2226 -0.1775
12858W        W28327   1.811  13.758  13.628  0.1437 -0.4840 -0.1097
12859W        W28328  14.930  10.150  12.642 -0.0622  0.0648  0.2065
12860W        W28329   1.337  12.305  13.423 -0.0456  0.3287 -0.1783
12861W        W28330  14.243   8.258   0.979 -0.0061  0.1542  0.0080
12862W        W28331  12.095  14.977   4.362  0.3113 -0.2171  0.2943
12863W        W28332  10.332  15.334   1.276 -0.0119  0.1013 -0.0413
12864W        W28333   3.813  17.069  15.103  0.0128 -0.1244 -0.2716
12865W        W28334   8.199   8.706  14.862  0.0687 -0.0611  0.0775
12866W        W28335   3.338   5.042   4.197  0.2520 -0.2266 -0.0235
12867W        W28336   0.807  12.027   4.920  0.0113  0.2330  0.0656
12868W        W28337   8.167  12.961  13.496  0.0239 -0.2490  0.1188
12869W        W28338   0.326   5.256   3.446 -0.3077  0.0422 -0.2904
12870W        W28339  15.603  10.661   2.500  0.3766  0.2346  0.2893
12871W        W28340   2.292   9.125  15.883 -0.1527 -0.6688 -0.0592
12872W        W28341   1.975  10.810   3.233  0.0741  0.2115  0.1795
12873W        W28342   9.628   3.869   4.234 -0.3117 -0.0659 -0.1575
12874W        W28343   3.215   4.454   6.084  0.0803 -0.2400 -0.3021
12875W        W28344   2.188   0.121   5.269  0.0264  0.2678  0.1492
12876W        W28345  18.454   9.676   5.386 -0.3457 -0.3778  0.0024
12877W        W28346  10.474   2.663  12.791 -0.0234  0.1687  0.2334
12878W        W28347   1.464   4.377  13.699 -0.3113 -0.0217  0.1709
12879W        W28348   2.969  13.526  15.466 -0.1706  0.1708  0.1726
12880W        W28349   4.736  11.413  14.764 -0.0049  0.1231 -0.0409
12881W        W28350  17.920   5.151   0.068 -0.0176 -0.1071  0.3924
12882W        W28351  17.458   0.828   3.260 -0.0179 -0.2775  0.1328
12883W        W28352   5.932   1.757  12.455 -0.2127 -0.1797 -0.0094
12884W        W28353  15.063   9.485   3.666 -0.0729 -0.2737 -0.0706
12885W        W28354   6.455  13.389  13.838  0.3200 -0.1692  0.2331
12886W        W28355  16.135   7.990  11.101  0.1310 -0.1995 -0.1298
12887W        W28356  10.811  13.146  14.131  0.1348 -0.1033  0.0577
12888W        W28357  16.696  16.020  14.560  0.0701  0.1213 -0.1045
12889W        W28358  10.085   5.967  13.762 -0.0186  0.2154  0.2365
12890W        W28359   9.005   5.828   5.577  0.3796 -0.0897  0.1740
12891W        W28360  10.956   6.551   1.201 -0.1594  0.0269  0.2098
12892W        W28361   0.873   2.654  13.543 -0.1502 -0.0918  0.0287
12893W        W28362   2.525   4.809   5.001 -0.0148  0.1357  0.1072
12894W        W28363   9.732  13.760   0.937  0.1588 -0.1123 -0.1615
12895W        W28364   1.996  17.564   1.564  0.0547  0.0005 -0.4488
12896W        W28365   3.480  16.945   3.863  0.1238  0.1464 -0.0069
12897W        W28366  12.019  17.213   3.179 -0.3057 -0.2041 -0.1304
12898W        W28367   4.101  13.370   4.204 -0.1748  0.0891  0.1256
12899W        W28368   7.529  15.799   0.089 -0.1306 -0.2565  0.0223
12900W        W28369   7.767   9.042   4.451 -0.1225 -0.3420 -0.2462
12901W        W28370  15.586   8.623  12.458 -0.0583 -0.0214  0.0733
12902W        W28371  15.435   8.744   1.146 -0.1659 -0.0833 -0.2834
12903W        W28372  11.237  13.287   0.224  0.1237  0.0084 -0.2123
12904W        W28373   0.344  14.222  14.598  0.3027  0.0478  0.0611
12905W        W28374   9.142   5.441  13.823  0.1319  0.0245 -0.1908
12906W        W28375   6.659   8.146  14.174 -0.1243  0.0090  0.0129
12907W        W28376   9.926  13.214  13.597 -0.3790  0.0846 -0.1759
12908W        W28377   3.208  16.668  12.809  0.0973 -0.2141  0.1633
12909W        W28378  15.128   6.765   4.499 -0.1294 -0.1629  0.0063
12910W        W28379  14.057  17.992   4.000 -0.1464 -0.3004 -0.0043
12911W        W28380   5.543  16.550  15.796  0.2544 -0.2291  0.2015
12912W        W28381   4.648  15.933   2.811 -0.1755 -0.3076 -0.1413
12913W        W28382  12.850  13.680  12.275 -0.2637 -0.1778  0.1047
12914W        W28383  13.075  17.636  12.897  0.0950 -0.2729 -0.0447
12915W        W28384  13.449  13.240   0.305 -0.2040 -0.2790 -0.0916
12916W        W28385  16.700  10.370   9.930 -0.3449  0.0385  0.1285
12917W        W28386   4.661  15.005   2.446 -0.3159  0.1939 -0.0101
12918W        W28387  16.237   4.608   2.369 -0.0285 -0.3415  0.1801
12919W        W28388  14.891  10.355   3.260 -0.0988  0.0125 -0.0239
12920W        W28389   9.596  15.228   1.206 -0.0212 -0.0655  0.0389
12921W        W28390  10.283   7.586  10.945 -0.1242 -0.1375 -0.0453
12922W        W28391   8.215   7.035  14.288  0.1619  0.0067 -0.0995
12923W        W28392   6.370   4.636  15.144 -0.3088  0.0536 -0.0859
12924W        W28393   5.216  12.456   5.459  0.1830 -0.0737  0.0612
12925W        W28394  11.888  13.315   5.517  0.1092 -0.4817 -0.0988
12926W        W28395   4.189  15.768   2.722  0.2050 -0.2010  0.1590
12927W        W28396   9.832   2.158  13.169 -0.2618 -0.0059 -0.1077
12928W        W28397  15.426  14.312  14.812 -0.2669  0.0577  0.1694
12929W        W28398  10.776   8.644  13.572  0.1572 -0.0525  0.0743
12930W        W28399   7.751  14.617   0.724  0.6595 -0.1349 -0.0420
12931W        W28400  16.954   5.535   3.011 -0.1572  0.0938  0.0608
12932W        W28401  14.116   1.964   1.196 -0.0672  0.1439  0.0642
12933W        W28402  14.197  17.020  12.871 -0.1386 -0.2715  0.0382
12934W        W28403  14.678   4.871   1.402 -0.0944  0.0011  0.0549
12935W        W28404   3.245  13.627   1.681  0.1672  0.2498  0.0366
12936W        W28405   3.912   1.990  11.166  0.0409  0.1061 -0.1413
12937W        W28406  12.070   6.711   4.753  0.0300  0.1271 -0.0868
12938W        W28407   1.452   6.873  13.519 -0.0262 -0.0682  0.0452
12939W        W28408  17.981  17.074  14.516 -0.0598 -0.3136  0.2388
12940W        W28409  10.801   0.452  11.919 -0.0893 -0.0867 -0.0873
12941W        W28410  13.946   6.220  11.835 -0.0031  0.2804 -0.0659
12942W        W28411  15.403   8.790   3.306  0.1840  0.1831 -0.3369
12943W        W28412   5.050  11.011  14.808 -0.1608  0.1572  0.0895
12944W        W28413   5.665   4.307  13.622 -0.1151 -0.1580  0.1900
12945W        W28414   5.706   2.926   2.484  0.0852 -0.0358  0.1454
12946W        W28415   6.262   9.611   5.024 -0.1108  0.1427 -0.1536
12947W        W28416   0.057   1.231   3.678  0.1476 -0.0150 -0.2814
12948W        W28417   0.384   6.224   6.039  0.4482 -0.0413  0.0395
12949W        W28418   8.635   8.899   3.251 -0.1971  0.1839  0.0040
12950W        W28419   1.769   9.849   3.653  0.2579 -0.0850 -0.1694
12951W        W28420   8.149  13.473  12.358 -0.0662  0.3350  0.0700
12952W        W28421   7.690   1.694   2.193  0.3793  0.0492 -0.4578
12953W        W28422  13.029   0.736  12.835 -0.1454 -0.0350 -0.0839
12954W        W28423   5.483  13.490   1.704  0.0212 -0.1334 -0.2944
12955W        W28424  16.957   7.694  10.853  0.0208 -0.1001  0.0661
12956W        W28425   8.465   6.892   1.387 -0.1131 -0.2358 -0.1680
12957W        W28426   2.165  18.372   2.839 -0.1788 -0.0297 -0.1036
12958W        W28427   1.403  11.816  15.079  0.1415  0.0222  0.3329
12959W        W28428   7.790   0.212  15.087 -0.0225  0.0157  0.2167
12960W        W28429   4.272  14.932   4.414  0.0116  0.1262 -0.3236
12961W        W28430   9.931  15.654   1.984 -0.1126 -0.3126 -0.1744
12962W        W28431  16.506  18.388   4.406 -0.1305 -0.2550  0.1399
12963W        W28432  17.808  12.413   3.431 -0.2818  0.0644  0.1458
12964W        W28433  13.763   1.834   3.565 -0.4308  0.0624 -0.2021
12965W        W28434   2.873  15.681   2.035  0.4227 -0.1201  0.0358
12966W        W28435   1.389   3.292   0.096 -0.2381 -0.2063  0.1897
12967W        W28436   7.419   5.256   6.004  0.0233  0.3017 -0.0792
12968W        W28437   1.383  12.053   3.368  0.1087  0.1989 -0.1385
12969W        W28438   7.504   8.720  11.887 -0.1691  0.0105  0.0254
12970W        W28439   6.940   7.247  14.715 -0.0591 -0.0386 -0.1193
12971W        W28440   9.897  16.923   0.309 -0.1025 -0.1932  0.1330
12972W        W28441   4.738  17.830   2.283  0.4229 -0.1230 -0.0378
12973W        W28442   2.046  10.846   2.433  0.1134 -0.0854  0.0946
12974W        W28443  17.456   0.893   4.077 -0.0635  0.0009  0.2661
12975W        W28444   9.201  13.238   5.818 -0.3254  0.0822 -0.1782
12976W        W28445   2.769  10.458  15.920  0.4014  0.2359 -0.5097
12977W        W28446   9.987  11.318  13.960 -0.0341  0.0584  0.1888
12978W        W28447  11.562  12.897   0.026 -0.1510  0.2180 -0.2101
12979W        W28448   0.496  15.282  11.685 -0.1206  0.2214  0.2530
12980W        W28449  11.699  15.880   3.359  0.1643 -0.0282 -0.1366
12981W        W28450   8.004   2.251   1.218 -0.0089 -0.3404 -0.2578
12982W        W28451  14.749  12.914  12.159 -0.0722  0.0054  0.0003
12983W        W28452  12.979   9.839  13.385  0.0645 -0.1079 -0.0572
12984W        W28453  13.779   0.504   1.941  0.1000  0.2442  0.2236
12985W        W28454  14.706   6.100   1.099 -0.0240  0.3130  0.0998
12986W        W28455  13.108   3.398   1.310  0.1529  0.0366  0.2405
12987W        W28456  16.895   3.588   5.779 -0.2544 -0.0757 -0.1711
12988W        W28457  12.561   6.309  12.783 -0.1506 -0.1655  0.2020
12989W        W28458   2.775  12.023  12.610  0.2140 -0.2287  0.0979
12990W        W28459   6.070   8.421   0.339 -0.1218 -0.1444 -0.1536
12991W        W28460  14.986  16.886   1.863 -0.0111 -0.3731 -0.1748
12992W        W28461   2.808  16.685  14.286  0.0612 -0.0135  0.2944
12993W        W28462  16.746  16.001   3.765 -0.2033 -0.1239 -0.0351
12994W        W28463   3.995   2.000  15.140  0.0170  0.0652 -0.1164
12995W        W28464  14.940   8.469  15.711 -0.1560  0.1522  0.1614
12996W        W28465   4.541   1.001   3.404 -0.1669  0.0115 -0.0502
12997W        W28466  11.492   7.406   2.040 -0.0996  0.3847 -0.1512
12998W        W28467  12.335   9.096  14.960 -0.0637 -0.1486  0.1591
12999W        W28468   9.148  16.398   0.557  0.0972 -0.2873  0.0165
13000W        W28469  14.558   4.751  10.991  0.0324  0.1737  0.2007
13001W        W28470  17.080   3.503   4.197 -0.0812  0.2212 -0.0977
13002W        W28471   2.212  10.432   2.201  0.1606  0.0565 -0.4269
13003W        W28472  17.423  13.979   4.714  0.1262 -0.0063  0.0063
13004W        W28473   0.806   6.820   3.832  0.2136  0.1439  0.0142
13005W        W28474  16.642   1.095  15.708 -0.0605 -0.1339  0.0192
13006W        W28475  11.674  18.441  11.538 -0.0753  0.1702 -0.0245
13007W        W28476   0.996   4.697   0.925 -0.2730 -0.0871 -0.1863
13008W        W28477  15.071   0.693   3.891  0.1564  0.1756  0.1145
13009W        W28478   9.358   0.854   4.009  0.1695 -0.0500 -0.1212
13010W        W28479  13.342  15.263   0.177  0.3567 -0.0689  0.3491
13011W        W28480  16.539  14.936   3.408  0.0185  0.0468  0.1814
13012W        W28481   4.358   2.894   1.793 -0.2228 -0.0020 -0.2533
13013W        W28482  11.663   9.041   1.994  0.2168 -0.3433 -0.1636
13014W        W28483   2.596   8.171   0.261 -0.0918  0.2678 -0.0032
13015W        W28484  12.685  16.063  14.784  0.2151 -0.0478  0.0678
13016W        W28485  12.254  10.355   5.700 -0.2293 -0.0381  0.0985
13017W        W28486  13.264   0.512  12.366  0.1308 -0.0095 -0.0928
13018W        W28487   5.766  15.531  11.965 -0.0303 -0.0269 -0.2676
13019W        W28488   6.461  13.376   2.560 -0.1966  0.1077  0.2069
13020W        W28489   5.511  18.203  10.626 -0.0151 -0.1533 -0.0725
13021W        W28490   2.848   6.969  15.261  0.0197 -0.2403  0.0446
13022W        W28491   2.911   1.594   1.593  0.0647  0.0646  0.0421
13023W        W28492  11.408  11.219  14.944  0.0101 -0.0719  0.4803
13024W        W28493   9.263   7.141  15.933  0.0044  0.0137  0.1793
13025W        W28494   3.692  17.406   1.860  0.1724 -0.1402 -0.0498
13026W        W28495   2.200  10.909   1.140 -0.2230  0.0786  0.2416
13027W        W28496   2.192   7.592   3.393  0.1057 -0.1086  0.1168
13028W        W28497   4.020  17.034  14.392 -0.3206  0.0113  0.1181
13029W        W28498  14.096   4.046  15.874  0.0898 -0.0755  0.0036
13030W        W28499   1.620  14.367  14.770 -0.0138 -0.0779 -0.2222
13031W        W28500  14.776   9.171  13.764 -0.0278 -0.0986  0.3597
13032W        W28501  17.406  12.830  15.864  0.0657 -0.0711 -0.0184
13033W        W28502  11.032   2.155  11.194 -0.0096 -0.1225 -0.0127
13034W        W28503   7.344  11.580  11.986  0.0155 -0.2053  0.2431
13035W        W28504   1.643   8.200   2.899 -0.0687  0.2477  0.3160
13036W        W28505  12.897   1.074   4.864  0.0681 -0.0474  0.1003
13037W        W28506   3.883  10.927   1.641 -0.0724 -0.1608 -0.0099
13038W        W28507   5.130   4.630   2.398  0.3612 -0.1810  0.2207
13039W        W28508  13.346  14.053  13.345 -0.3516  0.0267 -0.1933
13040W        W28509   0.968   5.543  15.040  0.3097 -0.0160 -0.1490
13041W        W28510   0.836   7.269   1.532 -0.0089 -0.0720  0.0100
13042W        W28511  14.095   4.947   4.262  0.0812 -0.1059 -0.1148
13043W        W28512  11.356  13.840  14.466 -0.1827  0.0876 -0.2260
13044W        W28513   9.956  15.876  11.161  0.1152  0.0933  0.0731
13045W        W28514   6.946   8.691  11.791 -0.0125  0.0427  0.0589
13046W        W28515  10.863  15.718   3.127  0.2145  0.2358  0.1343
13047W        W28516   5.379   2.117   1.725 -0.0626 -0.1589 -0.1251
13048W        W28517   3.517   6.547  12.446 -0.0530  0.0125  0.1310
13049W        W28518   7.328   4.974   4.961  0.1923 -0.1880  0.1252
13050W        W28519   6.253   3.198  15.152 -0.0300  0.3483 -0.3594
13051W        W28520   5.480  12.276   2.246  0.1373  0.1556  0.1263
13052W        W28521   1.517  10.111  15.267  0.1076  0.5285  0.0007
13053W        W28522  14.104  14.226  11.786  0.0877  0.0333 -0.0967
13054W        W28523  14.978  13.060   1.228  0.2586  0.0766  0.0014
13055W        W28524  16.739   0.952   5.229  0.1744 -0.2592  0.0342
13056W        W28525  15.049   5.817   0.878 -0.1843  0.2154 -0.0792
13057W        W28526   9.269   3.068  15.917 -0.2207 -0.0859  0.0032
13058W        W28527   6.254   5.334   4.929 -0.1495  0.0592  0.0381
13059W        W28528   8.722  15.147   4.451  0.2234 -0.1310  0.0141
13060W        W28529  11.534  10.600   2.023  0.0367  0.1487  0.1769
13061W        W28530   7.717  18.358   4.942 -0.3771  0.2414  0.0304
13062W        W28531   6.193   7.398  13.485  0.2699 -0.0003 -0.1895
13063W        W28532   4.916  10.618  12.575 -0.1643 -0.0996 -0.1950
13064W        W28533  12.688  16.879   4.067  0.0870  0.1204  0.3165
13065W        W28534  11.526   5.280  15.634  0.3747 -0.1354  0.0726
13066W        W28535  16.753   6.225  11.005 -0.0272  0.0043 -0.1094
13067W        W28536  12.252   4.716   1.043  0.0958 -0.0672  0.0922
13068W        W28537  15.458   6.433   2.466 -0.1910  0.1708 -0.3783
13069W        W28538  12.820   2.791  15.509  0.0936  0.2420 -0.0227
13070W        W28539  11.332  12.159   2.688  0.1821 -0.2591  0.1413
13071W        W28540  15.302  17.599   2.423  0.0973  0.1387  0.0186
13072W        W28541  14.018   8.226  15.175  0.0295 -0.3097 -0.3315
13073W        W28542   6.782  13.303   1.699 -0.2331 -0.2225  0.1570
13074W        W28543  10.989   3.523   2.549  0.2808  0.1609 -0.2230
13075W        W28544  13.004   0.085  15.738  0.6337 -0.1326  0.1268
13076W        W28545  15.666  10.677   3.339 -0.2099  0.1764 -0.1806
13077W        W28546  17.189   3.937   0.079  0.2544  0.0987 -0.0611
13078W        W28547   8.389  16.199   2.547 -0.0796 -0.0781 -0.1193
13079W        W28548   2.571   9.695   2.854 -0.1190 -0.1484 -0.0915
13080W        W28549   9.435  14.299  14.156  0.1074 -0.0106  0.1329
13081W        W28550  10.932  12.450  14.655 -0.0731 -0.1048  0.1872
13082W        W28551  12.476  11.811  13.118  0.0721  0.2120  0.2776
13083W        W28552   0.486   1.893  13.334  0.1675  0.0072  0.0405
13084W        W28553  14.944   7.576   1.905  0.2194 -0.4445 -0.2307
13085W        W28554  13.868   4.656  11.961  0.2010  0.0017 -0.0669
13086W        W28555   7.982   1.761   5.947 -0.2127 -0.2836 -0.1216
13087W        W28556  10.126   9.040  13.411 -0.0961  0.0957  0.0139
13088W        W28557  14.995   1.143  14.317  0.0667  0.0535  0.3262
13089W        W28558  10.989  11.012  12.820  0.2010  0.2032 -0.2952
13090W        W28559  17.883   6.565  13.020 -0.3954 -0.3010 -0.3106
13091W        W28560   1.814  15.398   0.004 -0.0120 -0.1966 -0.0976
13092W        W28561  10.800   6.139   5.239 -0.1752 -0.0322  0.0280
13093W        W28562   4.158  10.560  13.657 -0.1048  0.0052 -0.1649
13094W        W28563   2.503  16.101   1.960 -0.3674  0.1768  0.1524
13095W        W28564  15.428  15.578  12.183  0.4558  0.1329  0.1446
13096W        W28565   6.779  10.829  12.210  0.1601  0.1719  0.3192
13097W        W28566  15.073  11.048  12.147 -0.6313 -0.2078  0.1574
13098W        W28567  15.777  10.141  13.296 -0.1136  0.1607 -0.0212
13099W        W28568   2.318   1.328   3.537  0.2727  0.3695 -0.0013
13100W        W28569   2.603   2.817   5.728  0.0482 -0.2184  0.4169
13101W        W28570   8.192   4.473   2.630 -0.4021  0.1720  0.3522
13102W        W28571   7.781   0.513  11.575  0.2218 -0.1184  0.0390
13103W        W28572   1.011  12.051   9.778  0.3221  0.0276 -0.2634
13104W        W28573   0.029  15.636  13.487  0.1329 -0.1478  0.2053
13105W        W28574  11.867   1.526   4.617  0.4135  0.0737 -0.0262
13106W        W28575   4.078  12.268   2.714 -0.2825 -0.0234 -0.2881
13107W        W28576   3.415   2.637   3.857  0.0708 -0.1263  0.1257
13108W        W28577   5.605   8.807   4.933  0.0113  0.0445  0.2869
13109W        W28578  11.833   4.056   4.375  0.1001 -0.2281 -0.1109
13110W        W28579   9.007   3.748   3.491  0.2004  0.2648  0.1254
13111W        W28580  16.335  16.089  12.940 -0.3833 -0.0886 -0.2191
13112W        W28581   7.765   8.575   3.336  0.1247 -0.2047 -0.0074
13113W        W28582   1.943   9.694  14.622  0.0679 -0.0733  0.3162
13114W        W28583   0.464   0.846   4.174  0.2801  0.0545  0.0557
13115W        W28584   8.286   9.371  14.256  0.1469 -0.3446  0.1617
13116W        W28585  16.943   9.114  12.824  0.3054 -0.1167  0.0733
13117W        W28586  13.332  14.127  14.541  0.1113 -0.0237 -0.0112
13118W        W28587  13.107   5.380  11.159 -0.4080 -0.1449  0.2435
13119W        W28588   4.919  16.634  12.035  0.0934 -0.0804  0.1941
13120W        W28589  16.476  15.914   4.155 -0.0323 -0.2618 -0.0098
13121W        W28590   3.529   9.903   6.075 -0.0116  0.1267  0.0191
13122W        W28591   0.409  10.116   5.275 -0.2766 -0.0057 -0.1347
13123W        W28592  17.786  12.691   0.286  0.1292  0.2784  0.2308
13124W        W28593  12.252   7.561  12.784 -0.1139  0.0097  0.0421
13125W        W28594   6.134   3.854   3.055 -0.2485  0.1661 -0.2278
13126W        W28595  17.133   7.061  13.043  0.0150  0.0078  0.0302
13127W        W28596  16.531  16.114   2.937 -0.0402  0.2623  0.2734
13128W        W28597  10.652   1.043   0.933  0.1135  0.1534 -0.2230
13129W        W28598  13.919  14.604   3.935  0.3005 -0.1580  0.1205
13130W        W28599   0.504   5.580  12.528  0.0743  0.0989  0.2018
13131W        W28600  11.325   2.032  12.032  0.1647 -0.2731 -0.2542
13132W        W28601  13.123   3.497  12.730 -0.1004  0.2175  0.1874
13133W        W28602   8.742  10.078  10.981  0.3201  0.2016  0.0936
13134W        W28603   4.291  13.636  12.551  0.1204  0.1353  0.1418
13135W        W28604   1.014  17.206  15.211  0.2330  0.0905  0.1996
13136W        W28605  14.502  10.196  12.325 -0.2792  0.2382  0.0561
13137W        W28606   3.753   4.423   3.805 -0.1477  0.2746  0.0141
13138W        W28607  10.161   0.379   0.833 -0.1230 -0.3387 -0.1649
13139W        W28608   2.758   2.120  11.358  0.0587  0.0642 -0.0206
13140W        W28609   2.851   0.876   0.829  0.4366  0.2251 -0.0344
13141W        W28610  17.380   0.932  12.548 -0.2485 -0.0168  0.1197
13142W        W28611   4.570  10.670   1.377  0.0213 -0.3107 -0.0757
13143W        W28612  17.482  14.986   1.601 -0.1610  0.0666  0.0738
13144W        W28613   9.263   1.554  13.289  0.2721  0.5876  0.2736
13145W        W28614   0.531   5.382  14.915 -0.0643  0.2027  0.1665
13146W        W28615   9.318   8.332   3.147 -0.0408 -0.1655 -0.2426
13147W        W28616  12.239   9.702   0.399  0.0385  0.1124 -0.1222
13148W        W28617  15.480   5.994  14.081  0.1770  0.1415 -0.4726
13149W        W28618   0.694  15.539  15.670 -0.1834 -0.2311  0.1238
13150W        W28619   5.873   5.030   3.766 -0.3408  0.0030 -0.1903
13151W        W28620   1.523   8.602   5.266  0.0348  0.0138 -0.5437
13152W        W28621  13.312  16.518   1.554  0.0678 -0.1240 -0.2916
13153W        W28622   6.710   7.883  13.688 -0.1037  0.0550  0.1789
13154W        W28623   4.158   2.438   1.819  0.0158  0.1929 -0.0763
13155W        W28624  15.220   2.841   4.184 -0.2186  0.1071 -0.2266
13156W        W28625   7.633   1.916  10.968 -0.2435  0.1325  0.0645
13157W        W28626  14.857   4.121  11.516  0.0453  0.0022 -0.0993
13158W        W28627  13.146   3.195  11.128  0.4418  0.0354  0.0202
13159W        W28628   8.377  16.189   2.020 -0.1120  0.0438 -0.1769
13160W        W28629  17.959   0.032   3.454  0.0450  0.0437  0.0803
13161W        W28630   7.057   5.550   6.247  0.0884  0.0883 -0.2527
13162W        W28631   2.044   8.461   0.096 -0.1052 -0.0545 -0.0604
13163W        W28632  15.879  14.049  13.604  0.1886 -0.1011 -0.0576
13164W        W28633  16.813  17.600  13.982 -0.1975 -0.1528 -0.1363
13165W        W28634   4.271   5.784   2.506  0.1377 -0.0931  0.0297
13166W        W28635   4.322   9.179  15.051  0.2192  0.0782 -0.4485
13167W        W28636   1.790   3.519  12.816 -0.1905 -0.1785  0.3474
13168W        W28637  12.857   8.018  12.759 -0.0686  0.0788  0.0019
13169W        W28638   2.692   8.141  14.881  0.0283  0.0642 -0.0199
13170W        W28639   1.493   3.891   1.322 -0.2836  0.1137  0.0792
13171W        W28640  15.982   5.540  15.874  0.3269  0.2260 -0.0848
13172W        W28641   5.335   8.081   3.078 -0.0213 -0.0533  0.0141
13173W        W28642   1.268   3.767   4.598 -0.2014  0.0227  0.2872
13174W        W28643   5.523   1.068   4.754  0.0053 -0.2056 -0.0647
13175W        W28644   2.479   1.042  14.907 -0.1167 -0.1000  0.1344
13176W        W28645  17.517  16.735   3.360 -0.0123  0.1277 -0.1637
13177W        W28646  17.667   1.665  13.069 -0.1474 -0.1332 -0.0055
13178W        W28647  13.190   0.022  13.317  0.0226 -0.3422 -0.2131
13179W        W28648  12.809   6.946   3.386  0.1125 -0.1017 -0.0194
13180W        W28649   8.089   9.674  13.824  0.0998 -0.2059  0.2111
13181W        W28650   5.122   1.666   4.011  0.1484 -0.1660 -0.1269
13182W        W28651  15.188   3.572  12.881 -0.0123 -0.0937  0.0685
13183W        W28652   2.438  11.505   2.808  0.0624  0.2941  0.0399
13184W        W28653   8.098  12.428  14.865 -0.1983  0.1517  0.0563
13185W        W28654   7.532   1.022  15.338  0.2707  0.3926 -0.2819
13186W        W28655   6.066   8.973   6.646 -0.0899 -0.0847  0.1777
13187W        W28656   5.996   6.694   3.368  0.1550 -0.2009  0.2603
13188W        W28657   9.991  12.501   4.660 -0.3624  0.2189 -0.0838
13189W        W28658  16.030  15.239   3.880 -0.3460 -0.1215 -0.1320
13190W        W28659  17.181  10.148  12.871  0.3029 -0.4124 -0.1472
13191W        W28660  16.974  10.097   2.786  0.5152  0.2354 -0.0605
13192W        W28661  17.915  17.066  11.008  0.1901  0.1572  0.2253
13193W        W28662  11.042   3.840   4.528  0.2385  0.0006 -0.0738
13194W        W28663   6.504   9.738  14.531 -0.1085  0.3996  0.1527
13195W        W28664   5.563  11.310   2.564 -0.0605  0.0033  0.1063
13196W        W28665  11.683  12.322   3.026 -0.3215  0.4301 -0.0731
13197W        W28666   1.798   1.576  11.341  0.1810 -0.1690 -0.0559
13198W        W28667  11.993   8.278   2.507  0.1788  0.0940  0.0044
13199W        W28668   5.837  14.416  13.374  0.0578  0.0670  0.1123
13200W        W28669   4.346  14.758  11.518 -0.1675  0.0181 -0.1115
13201W        W28670  11.456   7.590  12.221  0.0908 -0.2745  0.3410
13202W        W28671  10.480  12.394  13.606  0.1601  0.0495 -0.2367
13203W        W28672   4.859  12.187   2.353  0.0776 -0.1308 -0.1645
13204W        W28673   8.622   7.115   3.248 -0.1602  0.1357  0.1837
13205W        W28674  14.343   3.206   0.021  0.0627  0.0815  0.2117
13206W        W28675   2.163   4.202  12.750 -0.0211 -0.1552 -0.1079
13207W        W28676  11.950  18.050  13.194  0.2711  0.2537 -0.2425
13208W        W28677   6.534   0.199  14.518  0.6067 -0.3565  0.0431
13209W        W28678   0.403   7.037  11.549  0.1963  0.0684 -0.0057
13210W        W28679   0.142   4.403   1.287  0.2024  0.0509 -0.3643
13211W        W28680   7.202   4.055  13.034 -0.3377  0.2599  0.0938
13212W        W28681   2.894   1.080   1.813 -0.1944 -0.1254  0.1035
13213W        W28682   8.155  13.875   0.991  0.0441  0.1636 -0.0425
13214W        W28683   8.426  14.529   4.127  0.0587  0.4859  0.1449
13215W        W28684  10.872  13.520   0.623  0.0369 -0.0709 -0.3164
13216W        W28685   1.445   9.141  11.791  0.2038 -0.0574 -0.1066
13217W        W28686   4.951   5.070   0.496  0.1640 -0.0386 -0.1782
13218W        W28687  14.930   0.204  11.982  0.1980  0.0502  0.0018
13219W        W28688  11.898  11.464  15.197  0.3216 -0.0448  0.3924
13220W        W28689  11.825  16.199   4.771  0.2516 -0.0117  0.0438
13221W        W28690  17.915  18.210  12.509  0.4765  0.0568  0.0298
13222W        W28691  15.728  17.105   1.302 -0.1056 -0.3137 -0.0626
13223W        W28692   8.456  17.463  13.914  0.0300 -0.2389 -0.3206
13224W        W28693  12.281  13.615   0.022 -0.3173 -0.0347  0.4635
13225W        W28694   2.403  14.243   3.458 -0.0135  0.1291 -0.0515
13226W        W28695   0.040   0.641  11.871 -0.0290  0.1280 -0.1911
13227W        W28696   2.949   8.388  12.573 -0.1375 -0.2322 -0.1380
13228W        W28697   3.820  10.459   3.315  0.1492 -0.0154 -0.2106
13229W        W28698   6.342   0.228   1.095 -0.0547 -0.1642  0.0031
13230W        W28699  17.213  14.619   3.479 -0.0184  0.2925  0.2765
13231W        W28700  14.994  16.617  14.464 -0.2460  0.0588  0.0548
13232W        W28701   4.535   2.759   0.960 -0.0558  0.0583 -0.2823
13233W        W28702   6.644   7.249  15.366 -0.1128  0.3819 -0.1382
13234W        W28703   8.796  13.126  11.236 -0.3870  0.2964 -0.0249
13235W        W28704  13.962   7.089   5.382 -0.0193 -0.0912  0.1209
13236W        W28705  16.238   5.793  12.844  0.0293  0.0280 -0.1021
13237W        W28706  12.681   2.112   0.177  0.1223 -0.3334 -0.2394
13238W        W28707   5.728  13.447   4.036 -0.0023  0.0578 -0.1997
13239W        W28708  10.743   1.822  14.849  0.2820 -0.1026  0.1772
13240W        W28709   4.355   7.721  15.129 -0.1541  0.0927 -0.2741
13241W        W28710  16.827   7.886  11.652 -0.4793  0.0362 -0.0371
13242W        W28711  11.798  10.106  11.452 -0.2093 -0.0630  0.0750
13243W        W28712   6.454   2.028  11.634 -0.0002  0.0540 -0.1980
13244W        W28713   6.127   9.548   2.310 -0.1710 -0.1489  0.0226
13245W        W28714   7.527   9.738   1.920 -0.1001  0.0058 -0.1098
13246W        W28715   8.176   1.651  12.761 -0.0811 -0.3165 -0.2073
13247W        W28716  15.525  17.019   2.096  0.0408  0.1850  0.1576
13248W        W28717   6.608  12.740  12.872  0.2815 -0.0567  0.1678
13249W        W28718   7.167   9.883   1.613  0.1447 -0.0678 -0.1790
13250W        W28719   1.277  11.869  12.640 -0.0065 -0.0748 -0.1648
13251W        W28720  14.602   3.532  11.818  0.0092 -0.0022  0.0366
13252W        W28721  15.444   8.413   5.480  0.2101 -0.3428 -0.2458
13253W        W28722   6.073   6.907   2.592  0.0864  0.0023 -0.0945
13254W        W28723   6.947  17.167  15.783  0.0015 -0.1109 -0.0808
13255W        W28724  13.248   6.690  14.508  0.0385 -0.1258 -0.1320
13256W        W28725  14.854   1.237   4.057 -0.2266  0.2448 -0.0538
13257W        W28726  10.520  17.953   5.752  0.0307 -0.0441  0.0501
13258W        W28727   7.622  11.257  12.452  0.0517  0.2299 -0.2722
13259W        W28728  16.051  13.239   2.681 -0.1890  0.0103  0.0626
13260W        W28729   3.545   5.402   0.430 -0.0409 -0.1632  0.0014
13261W        W28730   4.454   4.391   4.391 -0.1198 -0.3130  0.1091
13262W        W28731   1.455   6.575  12.174 -0.3962  0.0829  0.2187
13263W        W28732   7.759   6.360   5.213 -0.0747  0.2407 -0.1431
13264W        W28733  11.404  17.774   1.866  0.2162 -0.2676  0.0462
13265W        W28734  14.003   5.889   4.056 -0.1807 -0.1640 -0.1606
13266W        W28735   0.992  13.713   1.552  0.2205  0.0455 -0.0538
13267W        W28736  14.993  10.544   1.487  0.0051  0.1195  0.1486
13268W        W28737  14.563  10.000   3.181  0.0306  0.0166  0.2383
13269W        W28738   1.561  18.158  14.556 -0.2315  0.0528  0.1370
13270W        W28739  12.276   2.824  13.731  0.1172 -0.0561 -0.0290
13271W        W28740   2.237  13.841   3.015 -0.1556  0.0385  0.2173
13272W        W28741   4.849  12.157  12.272 -0.0691 -0.1052 -0.2117
13273W        W28742  13.763  10.164  15.636  0.2697 -0.0077  0.0808
13274W        W28743   1.527  18.204  12.973 -0.0463 -0.3399  0.1530
13275W        W28744   9.788   5.253   3.175  0.4184  0.2733 -0.2612
13276W        W28745   9.588   7.530   1.643  0.2101 -0.0723  0.6530
13277W        W28746   3.291   4.844   0.112 -0.2524 -0.0979  0.1335
13278W        W28747   2.329   9.942  11.275  0.1022  0.0369 -0.3009
13279W        W28748  11.579   3.032  12.304 -0.5775  0.2185 -0.0375
13280W        W28749  15.950   7.440   2.235 -0.1906  0.4464  0.2530
13281W        W28750  11.816   0.519   0.047 -0.2639  0.3721 -0.1368
13282W        W28751   2.298   2.329   4.238  0.4316 -0.0292  0.1241
13283W        W28752   7.061  18.314  11.888  0.1722 -0.0351 -0.1422
13284W        W28753   3.143  13.987   2.319 -0.2183 -0.1689  0.0342
13285W        W28754   6.062   5.680  13.656 -0.1168  0.2381  0.0945
13286W        W28755  10.413  12.665   0.563 -0.2447  0.0303  0.3988
13287W        W28756   3.772  14.263   3.666  0.0582  0.1927  0.1185
13288W        W28757   5.973   1.934   4.309 -0.1183 -0.1366  0.3287
13289W        W28758   5.292   6.513  15.474  0.2445 -0.3761  0.0537
13290W        W28759   8.486  15.534   5.382  0.2903  0.0893 -0.0304
13291W        W28760   4.275   6.462  15.843 -0.1818 -0.0750  0.0850
13292W        W28761   8.102   5.483  11.014 -0.1863 -0.2603  0.1586
13293W        W28762   1.013   8.597  12.423 -0.0917 -0.1678 -0.1877
13294W        W28763   0.170  13.519  15.812  0.1997  0.0536 -0.0112
13295W        W28764   4.897   5.636  13.216  0.2752 -0.2307 -0.2627
13296W        W28765   9.560  13.352   3.900  0.2020 -0.2089  0.2641
13297W        W28766   9.031  13.889   5.367 -0.1183 -0.1579  0.0445
13298W        W28767   0.349   5.107  12.596 -0.3028  0.1655  0.1658
13299W        W28768  14.973   5.484  12.109 -0.1239 -0.2563  0.2485
13300W        W28769   8.128   6.587   1.725 -0.0560  0.1851 -0.0052
13301W        W28770   8.581  10.013  13.830  0.1762 -0.1068  0.0866
13302W        W28771   2.283   9.455   4.935  0.0530  0.1597 -0.2196
13303W        W28772   4.213   5.732   0.842 -0.0865 -0.2059  0.3240
13304W        W28773  12.787   5.062   6.270 -0.0806 -0.3722 -0.0749
13305W        W28774   2.200   2.731  13.793 -0.1426  0.2529  0.2791
13306W        W28775  16.294   2.194   3.262  0.0092 -0.2155  0.1138
13307W        W28776   5.083   3.979   4.475  0.0782  0.1446 -0.1842
13308W        W28777   3.223   0.297  12.171 -0.0384  0.1429  0.1238
13309W        W28778   2.105   7.840  12.637 -0.0115  0.3296  0.3278
13310W        W28779   1.191  10.426   3.434  0.3217 -0.0086  0.0556
13311W        W28780   9.307   9.803  14.194  0.1262 -0.0954  0.0779
13312W        W28781   5.698   8.390  15.439 -0.2203 -0.3512 -0.1209
13313W        W28782   4.396  12.150  12.471 -0.1781 -0.1707 -0.3361
13314W        W28783   6.146   1.137  11.839  0.3115 -0.1705 -0.1330
13315W        W28784  13.831   0.554   5.211 -0.1214 -0.0164  0.0867
13316W        W28785  10.110   8.122   2.579  0.0007 -0.0414 -0.0263
13317W        W28786   1.932   3.558  15.206 -0.0043  0.1990  0.3023
13318W        W28787  13.955  12.009   5.902 -0.0132  0.4763 -0.1381
13319W        W28788   4.472  15.750  10.572 -0.1270  0.0645  0.3707
13320W        W28789  17.563  10.600   1.463 -0.3273 -0.0273  0.2115
13321W        W28790   7.171  17.236  10.817 -0.1196  0.4196  0.0196
13322W        W28791  10.050  16.921   1.302  0.2071 -0.0264 -0.1207
13323W        W28792   7.157   7.805   1.702  0.0302 -0.0579 -0.3297
13324W        W28793   0.201   6.751  11.889 -0.0784  0.0432  0.4080
13325W        W28794  17.324  16.496  11.685 -0.2226  0.3176  0.0800
13326W        W28795   8.162   0.608  14.724  0.0552  0.2229 -0.1667
13327W        W28796   7.673   2.796   6.125 -0.1068  0.0408 -0.0328
13328W        W28797   6.206  12.325  11.946  0.1770 -0.0441 -0.2531
13329W        W28798   2.233  17.527  10.868 -0.0443  0.3562 -0.0224
13330W        W28799   6.226   9.886  15.801  0.0311  0.3047 -0.2505
13331W        W28800  14.239   3.217  13.071 -0.0837  0.1306  0.1250
13332W        W28801  13.734   4.999  12.325  0.1612 -0.0773  0.1611
13333W        W28802   3.509   2.342  15.225  0.0094 -0.0560  0.3346
13334W        W28803   1.886   2.045  11.509 -0.2326 -0.1923 -0.0316
13335W        W28804   2.408   3.647  15.113 -0.2119 -0.0337  0.1044
13336W        W28805   9.652   8.246   1.108  0.0452  0.1031  0.1995
13337W        W28806   7.089   6.098  15.181  0.0343  0.2024  0.0662
13338W        W28807   6.279   9.645   1.825  0.0271 -0.3211  0.0349
13339W        W28808  14.899  12.801   3.164  0.0986  0.0464 -0.1179
13340W        W28809   9.654   2.444  12.284  0.0403 -0.2365 -0.0076
13341W        W28810  10.767   4.633   5.451  0.1568  0.1191  0.1951
13342W        W28811   2.155  10.768  14.197 -0.3415  0.0135  0.0591
13343W        W28812   9.470  12.780  14.346  0.1875 -0.0266 -0.1163
13344W        W28813  11.321   0.752  10.020  0.1497  0.0956 -0.0295
13345W        W28814  15.758  16.018  11.710 -0.2515 -0.3238  0.0089
13346W        W28815   9.418  10.731  15.811 -0.0886  0.5357  0.1039
13347W        W28816  10.572   4.321   3.990  0.0091  0.1249 -0.0606
13348W        W28817  11.734  13.492  14.631 -0.1105 -0.0251 -0.0022
13349W        W28818   4.988  16.544   0.557  0.0473 -0.1382  0.0931
13350W        W28819   6.702   3.448   2.892  0.1957 -0.1895  0.0993
13351W        W28820   6.929  15.381   3.196 -0.1055  0.1491 -0.0035
13352W        W28821  17.668  13.157   3.183  0.1785 -0.1629 -0.1934
13353W        W28822   9.531  17.876   2.452 -0.1936  0.1870  0.1773
13354W        W28823  16.216   9.249  15.590 -0.0911 -0.0201  0.1342
13355W        W28824  16.710  13.776  14.133  0.2980 -0.1742 -0.1177
13356W        W28825  11.556   1.627  15.106  0.1545 -0.2691 -0.1004
13357W        W28826  16.782   5.371   1.105  0.1044 -0.1429  0.1111
13358W        W28827   4.333  11.463  15.515 -0.0122  0.0037 -0.0048
13359W        W28828  16.002   0.901   2.662 -0.1759 -0.1687 -0.0744
13360W        W28829   7.012  14.705  12.415 -0.0139  0.1091  0.1653
13361W        W28830   5.307  12.502   0.065  0.1151  0.2173  0.2023
13362W        W28831   1.873   7.767   4.873 -0.1046 -0.0698  0.2607
13363W        W28832  10.958   3.149  14.899 -0.0229  0.2447 -0.0612
13364W        W28833   4.331   1.730   0.791  0.0387 -0.3326 -0.0507
13365W        W28834   7.845  12.620  15.704 -0.1691 -0.1100 -0.0864
13366W        W28835  11.825   9.368   4.621 -0.0387 -0.1837 -0.3265
13367W        W28836   5.488  17.657   3.104 -0.0190 -0.0069 -0.1014
13368W        W28837   4.351   8.762  12.628 -0.0690  0.1072 -0.1084
13369W        W28838   5.390   7.742  10.841  0.0042  0.0006 -0.0620
13370W        W28839   6.444   1.000  11.356 -0.3755  0.0327 -0.1854
13371W        W28840  11.569  14.901   4.592 -0.1006  0.0752 -0.0284
13372W        W28841  14.545   8.729   0.782  0.1739  0.2631 -0.0760
13373W        W28842   0.585   8.555  15.444  0.1617 -0.0377  0.3333
13374W        W28843   2.575  18.350  13.039  0.2861  0.1714 -0.1702
13375W        W28844   4.196   0.091   6.034 -0.3864  0.2087  0.0316
13376W        W28845  15.287  13.518  13.561 -0.1721 -0.0233  0.5123
13377W        W28846  10.613   5.258   3.065  0.3097 -0.0731 -0.1814
13378W        W28847  10.835   6.789  12.751  0.1467 -0.1358 -0.0576
13379W        W28848   6.912   4.076   2.232  0.0854 -0.1548 -0.0457
13380W        W28849  17.156  17.820  13.199 -0.0797  0.0275  0.2246
13381W        W28850   9.507   7.500   4.667 -0.0179 -0.1319 -0.0400
13382W        W28851   1.962  16.877  10.343  0.2014  0.0312  0.1018
13383W        W28852  16.779  12.950  10.549 -0.2901  0.0121 -0.2087
13384W        W28853   3.853  17.486  13.527 -0.0509  0.1577 -0.3984
13385W        W28854   9.465  15.986   0.443  0.0602 -0.1067 -0.2663
13386W        W28855  13.639   0.031  13.095  0.1407  0.1614  0.2448
13387W        W28856   6.907  12.717  12.463  0.1360  0.2740  0.2894
13388W        W28857   3.399   5.967   5.308  0.2006 -0.1564 -0.0603
13389W        W28858  16.759  14.964   1.840 -0.0911 -0.4125 -0.3423
13390W        W28859   6.044  13.326   0.015  0.1147 -0.0337 -0.3611
13391W        W28860  15.578   2.886  11.366 -0.0821  0.0399  0.0004
13392W        W28861   9.562   9.677   4.058 -0.0783 -0.3204 -0.0260
13393W        W28862  10.372   0.562  12.205  0.0702  0.0412 -0.0427
13394W        W28863   5.268  15.786   0.139 -0.1339  0.1353 -0.1053
13395W        W28864  13.410  10.715   3.069 -0.3141  0.1337  0.1214
13396W        W28865  15.250  12.875  12.183  0.0334 -0.0853  0.1041
13397W        W28866   6.303   2.067  10.794 -0.1481 -0.0591 -0.1011
13398W        W28867   2.604  18.146   2.311  0.1097 -0.2503  0.2925
13399W        W28868  12.288   9.156  13.279  0.1325  0.1708 -0.0966
13400W        W28869   1.113   8.847  10.684  0.0266  0.0043 -0.1901
13401W        W28870   3.915   8.708  14.474  0.0111 -0.1092  0.1113
13402W        W28871   8.951   4.901   5.572  0.1258 -0.2998 -0.2155
13403W        W28872  16.298   3.440  12.058 -0.1072 -0.1232 -0.0491
13404W        W28873  15.423   1.848   2.688  0.1931  0.0301  0.2479
13405W        W28874   4.924  17.817  15.484 -0.0750  0.1655 -0.0243
13406W        W28875   8.372   2.371  12.991  0.1210 -0.0520 -0.2309
13407W        W28876   5.049   1.342  15.878  0.2351  0.2607 -0.0741
13408W        W28877  14.181   2.159   4.163 -0.0987 -0.2436 -0.0512
13409W        W28878  17.751   0.776  11.537  0.0957 -0.0469 -0.0184
13410W        W28879   6.424   5.361   5.475 -0.4144  0.2738 -0.0416
13411W        W28880  10.650  12.501  11.945  0.0339 -0.0422 -0.1492
13412W        W28881   0.284   0.837   1.319  0.0998  0.1242  0.1204
13413W        W28882  12.076  16.505   0.303  0.2176 -0.1240 -0.1364
13414W        W28883   4.102   1.248   5.074  0.1585  0.0867 -0.1074
13415W        W28884  18.244   5.208  12.829  0.1598 -0.4770  0.2264
13416W        W28885  13.440   9.209   2.257  0.2058  0.1928  0.3786
13417W        W28886   2.290  14.538  11.979  0.0959  0.2826  0.2024
13418W        W28887   9.148  16.187   3.514  0.0954  0.0632  0.1069
13419W        W28888   8.834   4.649  13.266 -0.0632  0.2189  0.2325
13420W        W28889   8.685  15.605  13.458  0.1034 -0.0475 -0.1012
13421W        W28890  14.728  10.676  13.629  0.0333 -0.1160 -0.0932
13422W        W28891   0.086  16.163   2.391 -0.1076  0.0002  0.0951
13423W        W28892   1.874   0.869  13.185 -0.0922  0.0972 -0.1575
13424W        W28893   9.070  17.413   4.816  0.2493  0.1709 -0.1247
13425W        W28894  11.884  12.729  15.585  0.1110 -0.1015  0.1264
13426W        W28895  11.165  13.601  11.737  0.0538  0.2319  0.1857
13427W        W28896   7.325  10.977  12.118 -0.3574 -0.0782 -0.0341
13428W        W28897  18.368   6.901  15.260  0.1688  0.1929 -0.0184
13429W        W28898   9.962  10.155  14.038  0.0303 -0.5469 -0.0348
13430W        W28899  14.417  15.941   4.547  0.2420 -0.1841 -0.0979
13431W        W28900  14.885  11.105   0.776 -0.0358 -0.1446  0.1079
13432W        W28901  11.263  13.550   3.385  0.2495 -0.1298  0.2043
13433W        W28902   6.840   5.693  11.490 -0.0989  0.0543  0.2568
13434W        W28903  12.543   9.539   2.221 -0.1612 -0.1015  0.0977
13435W        W28904  14.642   8.700   1.298 -0.1438 -0.2139  0.0945
13436W        W28905   1.523  10.260   1.863 -0.1955  0.1669 -0.1053
13437W        W28906   3.922   3.273   5.820 -0.0547  0.2039  0.4026
13438W        W28907   2.507   5.280   4.605  0.0118  0.0439 -0.0340
13439W        W28908  15.603   0.739   1.729 -0.2581 -0.1565  0.4526
13440W        W28909  17.566   9.908   5.092  0.1294  0.4321  0.3032
13441W        W28910   6.421  13.930  14.862  0.0942 -0.0655  0.2887
13442W        W28911  11.972  11.567   3.107 -0.1973 -0.1840  0.2110
13443W        W28912  15.363  15.458   0.979  0.2156 -0.1690 -0.2069
13444W        W28913   7.029   0.001  12.366  0.1512  0.0072  0.1141
13445W        W28914   5.907   3.748  13.488  0.0219 -0.2298 -0.0722
13446W        W28915   5.911  15.766  13.442  0.0975 -0.2424  0.1503
13447W        W28916   0.041  18.261  13.923 -0.1769  0.1203 -0.0075
13448W        W28917   9.473   0.761   2.448 -0.1080 -0.0855 -0.0472
13449W        W28918   0.035   3.643  12.387 -0.1063  0.2865 -0.4780
13450W        W28919   4.730   2.894   6.112 -0.1638  0.2285  0.1877
13451W        W28920  10.281   9.582  14.902  0.0614 -0.0598 -0.0527
13452W        W28921   2.829   4.722  13.158 -0.0633  0.0670  0.1401
13453W        W28922  16.857   6.270   1.440  0.1268  0.1496  0.0456
13454W        W28923  16.241   4.022   4.469  0.2211 -0.3358  0.3097
13455W        W28924   3.107   3.487   2.763  0.2493 -0.0998  0.0004
13456W        W28925   8.506  12.623   1.180 -0.2269  0.0112 -0.1657
13457W        W28926  10.100   9.890  15.736 -0.0470 -0.0818 -0.1770
13458W        W28927  13.628  12.880  14.157  0.2731 -0.4044 -0.1651
13459W        W28928   0.324  13.537   3.477 -0.0208 -0.0253 -0.1895
13460W        W28929   1.255  15.988   0.551 -0.2679  0.1379 -0.0210
13461W        W28930  13.113  15.293  12.803  0.2007 -0.2317  0.0592
13462W        W28931   3.279  15.971   2.294  0.1606 -0.0177 -0.0754
13463W        W28932  17.808   8.052  11.303  0.0576  0.0228  0.3283
13464W        W28933  14.444   4.729   2.254 -0.1269  0.0943  0.1446
13465W        W28934   3.905   6.232   3.737  0.1108  0.3355 -0.0084
13466W        W28935  13.942  14.100   0.598  0.1487  0.0272 -0.1799
13467W        W28936  17.499   7.900  10.891 -0.0088  0.1015 -0.2250
13468W        W28937   6.592  13.318   3.112  0.1614 -0.0448 -0.1527
13469W        W28938   0.383  16.375  10.932 -0.1377 -0.3687  0.2425
13470W        W28939   2.729  18.246   4.033 -0.3250  0.1343 -0.0423
13471W        W28940   7.680  10.031  12.823  0.0175 -0.2119  0.1985
13472W        W28941  14.746   0.398   2.994  0.2285 -0.1176 -0.0713
13473W        W28942  14.686  14.290   1.040  0.0515 -0.2716 -0.1416
13474W        W28943  13.176  16.616  15.509 -0.0383 -0.3552  0.1041
13475W        W28944  17.882  10.469   2.668 -0.1378 -0.2487  0.2829
13476W        W28945  12.484   5.473  11.263  0.0400  0.0081  0.0963
13477W        W28946  10.934   2.303  14.614  0.2600  0.2463  0.1082
13478W        W28947  14.318   7.431   6.054  0.1210  0.0992 -0.1916
13479W        W28948   8.091   2.487  11.661 -0.2867 -0.1577  0.0285
13480W        W28949   0.284  16.258  11.613 -0.0757 -0.0433 -0.0704
13481W        W28950   6.693  13.724   4.144 -0.2863  0.2198  0.3206
13482W        W28951   8.585  11.706  12.263  0.2477 -0.1913  0.4405
13483W        W28952  15.764   0.862   3.395 -0.0817 -0.1137  0.0002
13484W        W28953  10.409  12.459   4.350 -0.4352 -0.0702  0.1326
13485W        W28954   3.565   6.763   3.814  0.4307 -0.1907  0.0667
13486W        W28955  10.223   7.373  13.132 -0.1434 -0.0388  0.0746
13487W        W28956  10.488   3.894   3.792 -0.0050 -0.0898 -0.3003
13488W        W28957  11.673  11.248  10.473 -0.1105 -0.2987  0.2089
13489W        W28958   2.513   5.550   1.157 -0.1558 -0.2788  0.1388
13490W        W28959   7.050   5.268  14.756 -0.0778 -0.0541  0.1178
13491W        W28960   6.858   0.373   3.667 -0.0055 -0.1440 -0.1905
13492W        W28961  17.288   9.398   1.424  0.0772  0.0113 -0.0856
13493W        W28962  12.556  13.972   4.719 -0.0004  0.4220  0.2201
13494W        W28963   2.037   5.159  15.943  0.0480  0.1269 -0.1068
13495W        W28964   2.364   2.879   4.162  0.2120 -0.1743 -0.4786
13496W        W28965   4.952  12.073  10.978 -0.1404 -0.0697  0.0673
13497W        W28966   0.593   5.822  15.230 -0.0008  0.0944 -0.0858
13498W        W28967   1.170  12.735   2.852  0.2001  0.2189  0.1473
13499W        W28968   0.382   2.317   2.036  0.0109  0.2131 -0.2010
13500W        W28969  10.486   9.449  12.711 -0.1778  0.1154  0.3350
13501W        W28970  15.472  13.131  11.688 -0.1359 -0.1329 -0.3547
13502W        W28971   7.214  16.401  12.838  0.2436 -0.0368 -0.0600
13503W        W28972   0.215   5.959  10.268  0.2566  0.3118  0.1472
13504W        W28973  16.074  16.896  14.675 -0.2431 -0.0457 -0.1086
13505W        W28974   1.171   8.710   0.953 -0.3236 -0.1585 -0.3408
13506W        W28975  15.668  10.092   0.430 -0.5033  0.1242 -0.0466
13507W        W28976  13.687   9.370  14.608  0.4042 -0.2991 -0.3606
13508W        W28977   8.407  17.470  14.715 -0.3018 -0.1085 -0.0841
13509W        W28978   0.456   2.199  14.725  0.0175 -0.2764 -0.0637
13510W        W28979  11.707   0.051  12.074 -0.4690 -0.1550  0.1414
13511W        W28980   2.380   6.206  11.282  0.0407 -0.0011 -0.0287
13512W        W28981   5.797   9.574  13.964 -0.1319  0.0016 -0.1542
13513W        W28982   3.213  17.853  15.042 -0.0122 -0.2018  0.0091
13514W        W28983   4.945  12.491  15.389  0.1790  0.0679  0.2095
13515W        W28984  16.096   0.528   5.860  0.1656  0.0493  0.1443
13516W        W28985   3.867  17.666   4.839  0.0692  0.2701  0.0502
13517W        W28986  17.048  10.571  11.573 -0.0371  0.1690  0.2908
13518W        W28987   9.673  12.818   4.565 -0.1079 -0.0197 -0.1470
13519W        W28988   9.658  10.275   2.237 -0.0943 -0.0262  0.3877
13520W        W28989   8.433   0.178   1.169  0.0574  0.1969  0.2131
13521W        W28990   3.962  10.889   0.214  0.1268 -0.0061  0.0101
13522W        W28991   2.521   7.315  15.421 -0.1459  0.1064  0.2599
13523W        W28992  11.177   9.302   2.700 -0.1770  0.1727  0.0532
13524W        W28993   9.192  12.663   1.670 -0.0495  0.1858  0.3636
13525W        W28994   2.913   4.929   3.863 -0.2443  0.3228 -0.1956
13526W        W28995  13.602   1.283   1.583  0.0925  0.0647  0.2772
13527W        W28996   6.857  13.220  12.882  0.1891  0.1280 -0.1504
13528W        W28997   1.382   7.077  14.873  0.1769  0.0965 -0.0928
13529W        W28998   0.823   9.488   1.414  0.0561 -0.1612  0.1001
13530W        W28999  12.181   1.888  11.196  0.0352 -0.0599  0.0426
13531W        W29000  11.278   3.197  13.594  0.2404  0.0140  0.1454
13532W        W29001   9.631   4.630  12.640  0.2132 -0.3396  0.1470
13533W        W29002  11.021   1.195  12.930  0.3326 -0.3380 -0.2021
13534W        W29003   8.535   3.017  13.671 -0.0470  0.0390 -0.2554
13535W        W29004  14.016  17.864   2.645 -0.0241  0.0623 -0.0862
13536W        W29005   4.075  12.520   5.327  0.2153  0.2029 -0.0094
13537W        W29006   7.247  14.877  13.638 -0.0444  0.0489  0.3115
13538W        W29007  16.814   7.312  11.814  0.1534  0.0693 -0.0834
13539W        W29008   3.957   1.530   4.629  0.0365  0.0411  0.1754
13540W        W29009   6.033   4.053   4.980 -0.0648 -0.0953 -0.1733
13541W        W29010  15.608  13.773  15.644  0.2914 -0.2302  0.2765
13542W        W29011   5.629  11.136   3.003  0.1465 -0.0528 -0.0343
13543W        W29012   8.750  14.723  12.956 -0.0785 -0.0557  0.1202
13544W        W29013   0.542   4.645   3.872 -0.0751 -0.1300 -0.1791
13545W        W29014   7.752   9.779   2.448  0.0311 -0.1417 -0.0810
13546W        W29015  12.591   5.787   0.586  0.4045 -0.1016 -0.2603
13547W        W29016   5.744  11.747   4.833 -0.0974 -0.1566  0.3598
13548W        W29017   7.703   5.227   5.556 -0.1436  0.0776 -0.0787
13549W        W29018  13.507  10.263  10.830 -0.0988  0.0113  0.1206
13550W        W29019  14.906  16.738  13.449  0.1489  0.0016 -0.1447
13551W        W29020  11.473  17.489  14.086 -0.1186 -0.2525 -0.0862
13552W        W29021  14.378  15.811  13.358 -0.0568 -0.2734  0.0129
13553W        W29022  18.368  18.329  16.024 -0.3146 -0.0110  0.0835
13554W        W29023   5.552   9.349  15.088 -0.1402 -0.1980  0.0473
13555W        W29024   3.979  14.383   0.100  0.1446 -0.0310 -0.2826
13556W        W29025  11.200  11.091   6.034 -0.0180 -0.0507  0.2252
13557W        W29026   0.294  10.583  14.335 -0.4673  0.1270  0.1669
13558W        W29027  13.051   0.974   5.291 -0.2563 -0.2591  0.1411
13559W        W29028   4.860  12.582   1.234  0.1121 -0.1303 -0.0508
13560W        W29029   0.399  13.333  10.593  0.0298 -0.1949  0.2990
13561W        W29030   0.997   2.207   5.813 -0.0294 -0.0139  0.0676
13562W        W29031  16.216  13.073   4.377 -0.1041  0.0613  0.0425
13563W        W29032  12.247   0.597   6.192 -0.1068 -0.0135  0.0080
13564W        W29033   0.226   7.446   2.598  0.1011 -0.2462  0.2032
13565W        W29034   3.412   5.447   5.130  0.1510  0.0812  0.0182
13566W        W29035  15.757   0.792  11.599  0.2957  0.2883  0.4206
13567W        W29036  16.923   9.294   2.502  0.1222 -0.0594  0.1307
13568W        W29037  15.261  15.742   1.352  0.1506 -0.1198 -0.1292
13569W        W29038   0.175   7.343   0.393 -0.0214  0.0038  0.1673
13570W        W29039   4.282   1.053  15.789 -0.1175 -0.0813 -0.0433
13571W        W29040   7.751  14.103  15.587  0.1124  0.2304  0.0065
13572W        W29041  12.458   9.568   3.960 -0.1696 -0.2654  0.1628
13573W        W29042   9.602  16.162   3.690 -0.1833 -0.1814 -0.1146
13574W        W29043  14.369  11.882   3.592 -0.0408  0.1443  0.0570
13575W        W29044   8.683   0.131   5.063 -0.0154 -0.0013  0.1139
13576W        W29045  12.797   2.610  12.744  0.1097  0.1257 -0.0015
13577W        W29046  10.194   4.365   3.559  0.2316  0.0137  0.2079
13578W        W29047  17.137   7.775   1.464 -0.1939  0.1567 -0.4384
13579W        W29048  17.259   1.635   3.258  0.1712  0.4597 -0.2521
13580W        W29049  10.921  17.216   2.345  0.0815  0.0615 -0.3314
13581W        W29050   6.332  14.179  10.719 -0.3425  0.1708  0.2292
13582W        W29051   3.651  12.708   0.821  0.0636 -0.0733  0.0550
13583W        W29052   1.951   1.708   0.133 -0.0536 -0.2000 -0.1674
13584W        W29053   6.194  12.333   4.739 -0.1481 -0.2195  0.3464
13585W        W29054  13.841  11.657  14.561 -0.5814  0.0654 -0.2847
13586W        W29055   9.036  10.876  12.741 -0.1040 -0.1076 -0.1483
13587W        W29056   8.528   6.336   3.939 -0.0316 -0.1121  0.2120
13588W        W29057  12.675  10.660  11.700 -0.0463  0.0040  0.3188
13589W        W29058  10.000  12.026   3.212 -0.0880 -0.4161  0.2991
13590W        W29059   7.093   1.384  14.084  0.3639  0.1324 -0.1338
13591W        W29060  13.260   2.523   1.455  0.0043 -0.1323 -0.1695
13592W        W29061   9.491  13.630  13.989 -0.1679  0.1348 -0.0179
13593W        W29062   0.988  10.638   5.455  0.0349  0.0002 -0.2291
13594W        W29063  16.105   7.167  14.746  0.0504 -0.1023 -0.1503
13595W        W29064   2.554   4.027  13.817 -0.1360 -0.2040  0.2108
13596W        W29065   9.931  14.791  10.419  0.1789  0.0117 -0.2757
13597W        W29066   8.279   7.158  15.700 -0.1011  0.2603  0.0001
13598W        W29067   1.179   5.174   3.717  0.2275  0.0608  0.0236
13599W        W29068   5.855  10.056   4.295 -0.1891  0.2672 -0.0388
13600W        W29069   8.568   5.276   1.898  0.1744  0.3039 -0.0494
13601W        W29070   7.119   1.376  12.003  0.3327  0.0875  0.3125
13602W        W29071  14.362   2.966  13.486  0.4681  0.1861  0.2198
13603W        W29072   7.309   1.063  14.821  0.1211  0.3038  0.3700
13604W        W29073   8.897   8.255   0.787  0.0514 -0.0446 -0.0394
13605W        W29074  10.202   9.822  11.541 -0.2013  0.2009  0.0507
13606W        W29075   2.760  16.977   5.746  0.0342  0.0689 -0.1030
13607W        W29076   7.222   1.999   4.641  0.0232 -0.0644  0.1048
13608W        W29077   4.600   7.364   0.282  0.2472 -0.1523  0.0759
13609W        W29078   2.151   3.053   5.372 -0.1590 -0.1554  0.1889
13610W        W29079  10.965   1.684   2.275  0.0702  0.1149  0.1483
13611W        W29080   7.759  14.489   3.154 -0.2595  0.3502 -0.0903
13612W        W29081  14.066  16.226   4.362  0.0104  0.2245 -0.3949
13613W        W29082   5.371  17.607   4.380 -0.0891 -0.0962  0.2429
13614W        W29083  11.615   3.590  11.719  0.3718 -0.0391  0.2836
13615W        W29084   4.912   8.123   2.185 -0.1085 -0.2586  0.3059
13616W        W29085  12.556   4.735   4.425 -0.1876  0.1630  0.1044
13617W        W29086  13.174   5.760  15.522  0.0866  0.0219  0.1503
13618W        W29087  16.088   6.404   4.207 -0.0124  0.0843  0.2200
13619W        W29088  15.836   4.325   2.129 -0.1367  0.1483  0.1956
13620W        W29089  13.436  11.106   0.985 -0.1961 -0.0731  0.0817
13621W        W29090   9.621  15.302   4.038 -0.1664  0.3182 -0.0872
13622W        W29091  13.096   6.529  10.768  0.0988  0.0373  0.1730
13623W        W29092   0.296   2.830  15.144 -0.1055  0.2369 -0.2585
13624W        W29093  13.825  11.896  12.330  0.0681 -0.0417  0.0321
13625W        W29094   5.836  10.506   5.235  0.1356  0.1005  0.2508
13626W        W29095  18.033  10.834   1.521  0.3585 -0.4541  0.1960
13627W        W29096   6.326   0.949   4.286 -0.1094 -0.0935  0.2054
13628W        W29097  16.308  16.136   3.421 -0.3011 -0.0358 -0.0001
13629W        W29098  16.331  14.529  11.335 -0.2237  0.1118 -0.0657
13630W        W29099  12.579  10.768   2.594  0.2383  0.0635  0.0457
13631W        W29100   7.164   1.861   3.795 -0.1866  0.0458 -0.3906
13632W        W29101  13.684   5.283  13.647  0.2063  0.1186 -0.3600
13633W        W29102  17.207  10.426   3.112  0.1025  0.3875 -0.0386
13634W        W29103   4.343  10.868   2.519  0.0558 -0.3200  0.0763
13635W        W29104  11.507  18.220  13.470 -0.2221  0.2678 -0.1314
13636W        W29105   8.644   4.772   4.057  0.3025  0.3164  0.5383
13637W        W29106  11.885  11.802   2.100 -0.0109 -0.2192 -0.1574
13638W        W29107  17.269  12.451   0.244 -0.2134  0.2230 -0.0876
13639W        W29108  16.460   2.825   6.284 -0.3954 -0.0768 -0.0636
13640W        W29109  10.737  13.336  10.651 -0.1079  0.2178 -0.2255
13641W        W29110  14.781   2.577  12.493  0.1351  0.0386  0.0636
13642W        W29111   6.887  18.048  13.177  0.1401  0.2133  0.3077
13643W        W29112   2.286  10.002   1.426 -0.0179  0.0946 -0.0912
13644W        W29113   1.013  15.369   3.758 -0.0644  0.1531  0.0737
13645W        W29114  12.662  15.465  14.869 -0.1661  0.1121  0.2876
13646W        W29115   0.203  15.087   0.943 -0.2440  0.0417  0.1863
13647W        W29116  13.542   5.130   1.511 -0.0962 -0.1463 -0.1053
13648W        W29117   3.599  16.728   3.408  0.0620 -0.3222  0.0081
13649W        W29118   0.356   0.402   3.813 -0.1803  0.1823  0.0219
13650W        W29119   0.239   7.330  12.706 -0.2821  0.0438  0.0137
13651W        W29120  17.426  10.028  10.815  0.0017 -0.0188 -0.1538
13652W        W29121   2.399   9.224  12.363 -0.0911 -0.0569  0.0569
13653W        W29122  18.274  14.371  12.287  0.0939  0.0011  0.1154
13654W        W29123   2.956   4.642  12.205  0.2112 -0.0260 -0.0557
13655W        W29124  17.605   6.982  12.831  0.0643  0.2063 -0.1707
13656W        W29125   7.723  14.582  15.723 -0.0995 -0.0146 -0.1648
13657W        W29126  11.526   0.208  14.245  0.2276 -0.1082 -0.0493
13658W        W29127   0.633   0.532   1.503 -0.2939  0.0452  0.1899
13659W        W29128  16.539  14.186  13.476 -0.0079  0.0392  0.1257
13660W        W29129   5.065   9.319  12.417  0.0417 -0.2386 -0.2283
13661W        W29130  10.536   7.826   5.756  0.0289  0.2106  0.1155
13662W        W29131  18.455   0.385   1.392  0.1424  0.0240 -0.2427
13663W        W29132   3.399  15.501   3.642 -0.2137 -0.2194  0.2173
13664W        W29133  11.767   2.903  13.342  0.0650  0.3231  0.1888
13665W        W29134  11.828   2.875   2.288  0.1966  0.0145 -0.2113
13666W        W29135   1.630   7.780  15.471  0.1266 -0.2670 -0.4832
13667W        W29136  15.463  16.211   2.302  0.1276  0.0365  0.1915
13668W        W29137   8.106  10.719   1.023 -0.1708 -0.0413  0.2173
13669W        W29138   6.781  17.609   2.026  0.0800 -0.2371  0.1048
13670W        W29139   2.700  14.677  14.411 -0.1124 -0.0670 -0.2018
13671W        W29140  17.635  18.134  15.328 -0.1975  0.0666  0.0459
13672W        W29141   8.389  16.018  11.516 -0.0777  0.0467 -0.3910
13673W        W29142   3.787  15.853  14.204 -0.2004  0.0845  0.2525
13674W        W29143   5.026   4.279  10.675 -0.3559 -0.1349  0.1053
13675W        W29144  10.429   5.910   0.749  0.0650  0.3087  0.1697
13676W        W29145  16.729  17.356   3.186 -0.1255  0.4677  0.1774
13677W        W29146   6.631  14.381   4.197 -0.1353  0.1622 -0.3112
13678W        W29147   5.688  10.465  12.509  0.1902  0.2922  0.1018
13679W        W29148   7.485   0.767   2.983 -0.0703 -0.0545  0.1876
13680W        W29149  16.158   5.377  15.379 -0.0302 -0.0407  0.2048
13681W        W29150   1.327  18.125   1.462  0.0085  0.1795 -0.0206
13682W        W29151   0.619  16.974  11.129 -0.2365 -0.1718  0.2789
13683W        W29152  14.610  13.291  14.547  0.1878 -0.1150 -0.0715
13684W        W29153  17.487   3.916  11.997  0.0693 -0.1296 -0.3676
13685W        W29154   1.405   0.891  13.518  0.0784  0.1401 -0.0009
13686W        W29155   0.368   7.939   5.171  0.0158  0.0657 -0.2093
13687W        W29156   9.743   6.811   5.043  0.2809 -0.2176  0.3216
13688W        W29157  18.004   1.110   4.533  0.2282 -0.0008 -0.1398
13689W        W29158   0.501  12.875   3.939 -0.2674 -0.0204  0.1854
13690W        W29159   8.179   1.246   3.274  0.3155  0.3371 -0.2947
13691W        W29160  11.672   7.083  14.124  0.1389  0.0486  0.2891
13692W        W29161   1.391   7.488   4.024 -0.5818  0.1410  0.0709
13693W        W29162   9.343  18.274   2.185  0.1664  0.1777 -0.0183
13694W        W29163  18.251   4.621  15.263  0.2591 -0.0459  0.1617
13695W        W29164  16.634   1.267  14.522 -0.0249  0.0074  0.0608
13696W        W29165   3.854   9.782   1.368 -0.0934  0.2623  0.2424
13697W        W29166   9.541  16.042   2.682  0.1199 -0.0227 -0.0169
13698W        W29167   3.743  16.591  13.151 -0.4990 -0.0318 -0.0768
13699W        W29168  14.762   7.295  15.360  0.1868 -0.0476  0.0856
13700W        W29169   3.332   1.906   0.656  0.0990  0.0384  0.1165
13701W        W29170   9.616  14.052  14.581 -0.1555  0.2142 -0.1626
13702W        W29171   7.380  15.925   1.801 -0.1573 -0.1054  0.1007
13703W        W29172  12.795   7.104  11.897 -0.1744  0.0521  0.2221
13704W        W29173   6.907  17.857   1.531 -0.4276 -0.1308 -0.0904
13705W        W29174   3.516  17.307  12.207 -0.0487 -0.0972  0.2798
13706W        W29175  16.654   5.034   5.663  0.1149 -0.0638  0.0073
13707W        W29176  11.317   9.494   3.714  0.2669 -0.0546  0.3972
13708W        W29177   6.220   2.558  14.681  0.2552 -0.0325 -0.3168
13709W        W29178  13.310  18.067  13.714  0.0111  0.2457  0.1230
13710W        W29179  17.131  17.040   3.539  0.2379 -0.1889  0.0047
13711W        W29180  17.988   9.401   0.763  0.0549  0.1233 -0.0934
13712W        W29181  13.591   5.497   5.686 -0.1279 -0.0125 -0.1747
13713W        W29182   7.226   5.967   3.941  0.2695 -0.1947 -0.1150
13714W        W29183  11.257   6.924   4.517 -0.2013 -0.1340 -0.0152
13715W        W29184   3.649   0.981  13.691  0.0569  0.2169  0.1073
13716W        W29185  12.664  14.739  13.593 -0.1230  0.0276  0.0153
13717W        W29186   6.556   3.087  12.307 -0.1685  0.0891 -0.0987
13718W        W29187   5.882   0.426   3.692  0.0362 -0.1563 -0.0454
13719W        W29188  17.859   8.809   1.008  0.1064 -0.3187 -0.1760
13720W        W29189  14.016  15.217   2.450  0.4191  0.1194  0.0444
13721W        W29190  12.752   4.686   5.273  0.2136  0.0403  0.0715
13722W        W29191   3.443  11.850   4.878  0.0345  0.0991  0.1146
13723W        W29192   3.957  17.261   1.085 -0.2598 -0.0204 -0.1658
13724W        W29193   5.115  13.023  12.748  0.4977 -0.0322 -0.0163
13725W        W29194  17.725  12.715   5.607  0.0763  0.1415 -0.1924
13726W        W29195   7.138  12.435  12.126 -0.0654  0.0688 -0.1094
13727W        W29196   6.462   8.776   4.438  0.0068 -0.1949 -0.0144
13728W        W29197  13.012   3.449  14.331  0.2523  0.1088 -0.1631
13729W        W29198   5.559  13.927  14.493  0.2744  0.1053 -0.3809
13730W        W29199  12.175  16.106   0.063  0.0363 -0.2266 -0.1537
13731W        W29200   1.874  11.042  11.539  0.0842 -0.1206  0.3927
13732W        W29201   3.029  13.296  12.575 -0.1107 -0.1408  0.0798
13733W        W29202  14.629   5.888  15.219 -0.1275 -0.0674 -0.1050
13734W        W29203   7.900  13.317   4.306 -0.0625  0.3835  0.3393
13735W        W29204   3.234  18.039   0.854  0.0589 -0.0473 -0.2732
13736W        W29205  12.600   8.504   5.115 -0.1380  0.3210  0.0029
13737W        W29206   8.164  15.093  14.503  0.1538 -0.0672 -0.3680
13738W        W29207   9.578   1.671  15.498 -0.0003 -0.1194 -0.0503
13739W        W29208  14.641  11.607  13.190 -0.1011 -0.1190  0.0219
13740W        W29209   8.189   1.258   1.248  0.3718 -0.0561 -0.0462
13741W        W29210   8.324  11.356   0.794 -0.1441  0.3719  0.1545
13742W        W29211  13.002  16.740   0.119 -0.0827 -0.3617  0.1852
13743W        W29212   4.210  15.104  13.081 -0.2913  0.0935  0.1835
13744W        W29213   7.755  18.290   1.176 -0.0193  0.5270 -0.0576
13745W        W29214  17.790   9.646  13.375  0.0513 -0.1945  0.0521
13746W        W29215   5.122   9.681  14.807 -0.2979 -0.1367 -0.0019
13747W        W29216  11.709  15.948  13.180 -0.3401 -0.1458  0.1205
13748W        W29217  10.557   8.902  15.147 -0.1275  0.1238  0.2482
13749W        W29218   4.107   0.999   3.782 -0.1026 -0.0531  0.0311
13750W        W29219   6.684   4.442   2.408  0.0937  0.2062 -0.0716
13751W        W29220   4.586  12.369   4.535 -0.1218 -0.0927 -0.0048
13752W        W29221   5.070  18.032  13.492 -0.1254 -0.2386 -0.1972
13753W        W29222   9.118   0.787   3.445 -0.0173 -0.1425  0.2261
13754W        W29223  10.166  14.549  13.134 -0.2355  0.1985  0.1181
13755W        W29224   0.930   1.999  12.613 -0.1080 -0.4371  0.0138
13756W        W29225  16.606   0.606  10.711  0.0660  0.0008  0.0066
13757W        W29226  13.888  10.248   1.090  0.4127 -0.0063  0.1908
13758W        W29227   3.517   2.012   3.445  0.4272  0.1250 -0.1528
13759W        W29228   3.001   9.472   3.384 -0.3115 -0.2231  0.2818
13760W        W29229  15.551   7.537   0.279 -0.0845  0.0692  0.1131
13761W        W29230   9.224  15.112  11.337 -0.0657 -0.0424  0.1313
13762W        W29231   9.289   2.481  14.176  0.1188 -0.2299 -0.0195
13763W        W29232   5.280   4.050   2.971  0.1036  0.0112 -0.0723
13764W        W29233  13.767  15.439  14.781  0.1547 -0.4040 -0.2085
13765W        W29234   1.843   9.045   5.055 -0.0546 -0.1497  0.1495
13766W        W29235  18.201   1.944   3.133  0.0591  0.0923 -0.1691
13767W        W29236   8.908  12.285  10.863  0.0505  0.1862 -0.1663
13768W        W29237   7.200  13.034   1.913 -0.2094 -0.2401 -0.1158
13769W        W29238   8.139  10.827  13.174 -0.2779  0.0480  0.0098
13770W        W29239   2.257   0.198  15.015  0.2028 -0.0552  0.2344
13771W        W29240   8.064   8.296   1.406  0.1692  0.0007  0.0784
13772W        W29241   4.021   4.395  11.657  0.1134 -0.1434  0.1042
13773W        W29242  12.019   8.187  11.554 -0.0424 -0.2237 -0.3672
13774W        W29243   4.905   0.683   1.055 -0.0690  0.0309  0.0037
13775W        W29244   4.392  12.226  11.221  0.0836  0.2584  0.2980
13776W        W29245  14.193   0.027  11.152  0.2038  0.0408  0.1455
13777W        W29246  14.567   5.766  13.370 -0.3822  0.1879 -0.0426
13778W        W29247   4.143   7.264   0.143 -0.1580  0.0968  0.1790
13779W        W29248  18.016  13.027  10.993  0.1195 -0.1456 -0.1677
13780W        W29249   2.249  10.366   5.091 -0.0524 -0.0035 -0.0866
13781W        W29250   5.404   1.892  13.462 -0.2159  0.0455  0.0262
13782W        W29251   6.471   5.687  15.960 -0.1468 -0.0487  0.2799
13783W        W29252   4.466   4.232   1.584  0.4484  0.0124  0.2451
13784W        W29253   0.020   7.563   3.425 -0.0820 -0.0088  0.0218
13785W        W29254   5.158  15.049  13.064 -0.4164  0.0559 -0.1938
13786W        W29255   5.323   5.603  14.169 -0.3374 -0.2193 -0.0946
13787W        W29256   0.061   2.864  13.073 -0.3079 -0.1018  0.0288
13788W        W29257  17.829  16.717  11.333 -0.2997 -0.2637 -0.1375
13789W        W29258   6.374  13.145   1.449 -0.0305 -0.1174  0.3445
13790W        W29259  16.474  11.330  11.345 -0.0432  0.1825  0.2456
13791W        W29260  13.600  14.348  14.199 -0.1594  0.0109  0.2181
13792W        W29261  16.518   2.700   5.408 -0.0375  0.4077  0.1727
13793W        W29262  13.662  15.347   5.402  0.2302 -0.0417  0.1530
13794W        W29263   7.657   4.065   3.928 -0.4246  0.6029 -0.2443
13795W        W29264  14.694   1.221   1.401  0.2043 -0.4532 -0.2990
13796W        W29265  11.341   3.617  15.912 -0.0035  0.1721 -0.2140
13797W        W29266   7.896  15.192   4.644  0.3252 -0.1104 -0.0217
13798W        W29267  14.996   6.971   2.711  0.0120 -0.2953  0.1749
13799W        W29268   0.857  15.509   4.784 -0.0293 -0.4460 -0.0998
13800W        W29269   6.410   2.553  15.934  0.0008  0.0587 -0.4132
13801W        W29270   8.517  11.202   2.807 -0.0544 -0.0067 -0.0020
13802W        W29271   9.246   6.550   5.135 -0.0069  0.1509 -0.0086
13803W        W29272   5.013   6.585  12.953  0.0716 -0.3248 -0.2076
13804W        W29273   2.009  15.908  13.547 -0.0515 -0.0641  0.0654
13805W        W29274   4.263   1.894  15.875 -0.0072 -0.1217  0.0230
13806W        W29275   4.008   6.110   1.147 -0.1958  0.0318 -0.1426
13807W        W29276   5.812  12.954   3.477  0.1329 -0.3195 -0.1127
13808W        W29277   7.141   9.925   4.630 -0.2304  0.3179 -0.0037
13809W        W29278  16.811   4.734  13.413  0.1409 -0.1807  0.1070
13810W        W29279   7.356  17.599  11.194  0.2330  0.0630 -0.0935
13811W        W29280   1.859  14.733  14.180 -0.0561  0.0087 -0.3448
13812W        W29281  10.998   8.485  10.588 -0.0193  0.1893 -0.1981
13813W        W29282  13.027  12.351   3.216 -0.2843 -0.2586 -0.2262
13814W        W29283   0.615  13.794  10.529  0.0603 -0.2372 -0.2230
13815W        W29284  15.939   1.241   9.905 -0.1578 -0.0571  0.2174
13816W        W29285   0.735  13.883  11.096 -0.1307  0.3508 -0.0490
13817W        W29286   8.075   7.012   3.561  0.2128 -0.1753  0.3113
13818W        W29287  12.946  14.832   4.982  0.0606  0.2085 -0.0266
13819W        W29288  10.272   0.343  10.171 -0.0498  0.0281  0.2059
13820W        W29289   6.607  10.547   2.134  0.1033  0.0409  0.1321
13821W        W29290   0.820  15.701  11.293 -0.1260  0.1080  0.3811
13822W        W29291  14.782   6.769   0.316  0.2666 -0.2420  0.0625
13823W        W29292   1.316  10.490   0.725  0.1072 -0.1738  0.0271
13824W        W29293  11.994   4.241   1.988 -0.1971 -0.1732  0.2602
13825W        W29294  11.769   6.902   1.723  0.1678  0.1883  0.1493
13826W        W29295   7.299  18.005  15.710  0.0759  0.0778  0.0468
13827W        W29296  11.271  12.594  13.128 -0.0078  0.1663  0.0969
13828W        W29297   8.536  10.385  11.298  0.1643  0.1174 -0.2010
13829W        W29298   9.488   1.721   2.502  0.0534 -0.0064 -0.0309
13830W        W29299   2.529   2.996  15.926  0.0417  0.0713 -0.2336
13831W        W29300  14.452  10.584  10.978  0.2723 -0.2566  0.0127
13832W        W29301  17.685  14.767  11.455 -0.0224  0.1269 -0.3640
13833W        W29302   0.990  17.730   0.583  0.0183  0.0957 -0.2334
13834W        W29303   4.538  16.798   1.904  0.1650 -0.0934  0.0036
13835W        W29304   1.687   3.388   3.098  0.0029  0.0234 -0.0368
13836W        W29305   0.164   9.248  11.960  0.3089  0.1854  0.0565
13837W        W29306   9.816   2.381  15.462 -0.0765 -0.0892  0.2429
13838W        W29307   6.026  17.294  14.623  0.0789 -0.1379  0.3975
13839W        W29308   6.581   2.088   0.693  0.3619  0.1654 -0.2983
13840W        W29309   7.357   8.987  13.172  0.0361  0.2236  0.0186
13841W        W29310  18.377   6.478  12.470 -0.0333  0.0364  0.1776
13842W        W29311  17.580  17.372  12.969  0.0848  0.4130  0.4259
13843W        W29312   0.856  17.712   5.205  0.3540  0.2866 -0.2519
13844W        W29313  13.576  15.609   0.506 -0.1778 -0.0368 -0.1891
13845W        W29314   7.425   3.863  15.222 -0.0818  0.2755 -0.3931
13846W        W29315  17.453  17.288   1.240 -0.3075 -0.2387 -0.0171
13847W        W29316   8.678  14.211  12.919 -0.2174 -0.0329  0.3075
13848W        W29317  17.500   6.893   0.369 -0.1578  0.2367 -0.1278
13849W        W29318   8.599   3.083   3.963  0.1924 -0.0964  0.1027
13850W        W29319   6.219   6.633   4.722  0.1636 -0.1071  0.1630
13851W        W29320   2.031  17.001   3.889 -0.0640 -0.0746  0.1383
13852W        W29321  14.457   6.614  15.849 -0.2838  0.0681 -0.1312
13853W        W29322   9.144  17.570   4.322 -0.4756  0.2733  0.3058
13854W        W29323   7.117   1.352   2.352  0.1930 -0.0170  0.2046
13855W        W29324  15.332   0.361  15.038  0.3559  0.0385 -0.1078
13856W        W29325   9.463   6.949   2.337 -0.0951  0.0994 -0.0318
13857W        W29326  11.858   4.373  11.562  0.1272 -0.0116 -0.0514
13858W        W29327  14.213  12.159  12.539  0.0795 -0.2442  0.1806
13859W        W29328  17.380  13.661   0.392  0.1496 -0.1039  0.1515
13860W        W29329  18.070  12.025   3.631 -0.2505  0.0947 -0.1513
13861W        W29330   2.160   9.405  12.810 -0.1780  0.0506 -0.1768
13862W        W29331   0.422   2.100  11.908 -0.0338  0.0100 -0.1285
13863W        W29332   9.983  11.271   4.976  0.1675  0.1560  0.1002
13864W        W29333   0.482  11.003  13.612  0.0760  0.1019 -0.0122
13865W        W29334  17.953   5.381   0.465  0.2136 -0.4037  0.1894
13866W        W29335   8.916  16.368  13.486 -0.2655 -0.2397 -0.1252
13867W        W29336  10.079   3.235  15.334  0.0960  0.2030  0.1422
13868W        W29337   5.591   8.500   4.557  0.1674 -0.0211 -0.2958
13869W        W29338  10.865   1.778   4.677  0.3026 -0.0725  0.2272
13870W        W29339   7.664  10.118   1.382  0.0219 -0.0039 -0.0638
13871W        W29340   4.041   4.472   4.651 -0.2028  0.0295  0.0016
13872W        W29341   4.656  15.770   4.605 -0.0920 -0.1611  0.0310
13873W        W29342   4.021  10.968   3.133  0.1669  0.2226  0.1357
13874W        W29343   7.544   2.321  12.259  0.0446 -0.1751  0.1356
13875W        W29344   7.017   6.928  12.046  0.3387  0.0252 -0.0912
13876W        W29345   8.746   0.545   0.918  0.2112 -0.0164  0.2256
13877W        W29346   8.970   3.284  13.397  0.1587 -0.3984 -0.1412
13878W        W29347  16.034  18.235  12.514  0.0189  0.1796 -0.2871
13879W        W29348   2.450   8.957   2.203 -0.1498  0.2815 -0.0711
13880W        W29349  13.303  13.807  15.094  0.0010 -0.0634  0.0368
13881W        W29350   7.132   8.667  14.212 -0.1918  0.0272  0.0792
13882W        W29351   2.288  11.710   5.470 -0.1628 -0.1200 -0.0480
13883W        W29352  14.336  14.732  12.731 -0.3014 -0.0835  0.0610
13884W        W29353  15.809   9.333  15.858 -0.1958  0.2092 -0.0250
13885W        W29354   4.273  16.992   4.220 -0.3154 -0.0687  0.0836
13886W        W29355   8.560  16.663  13.352  0.0914  0.1106 -0.2683
13887W        W29356   1.253   7.139  13.887  0.1182 -0.0580  0.0236
13888W        W29357  10.267  10.901  15.314 -0.1919 -0.0752  0.2698
13889W        W29358   1.549  14.937   4.569 -0.2376  0.0862  0.0458
13890W        W29359  15.178  16.802   3.034 -0.4596  0.1135  0.3764
13891W        W29360  16.164   5.652  14.617 -0.5320 -0.0472  0.0578
13892W        W29361  14.755  14.218  11.772 -0.1615 -0.0842 -0.2990
13893W        W29362  12.889   1.702   2.384 -0.0095 -0.1065  0.2877
13894W        W29363   8.008   6.839   2.756  0.0051 -0.0727 -0.3888
13895W        W29364   5.231   1.035  15.585  0.1510 -0.1164 -0.0980
13896W        W29365   5.222  17.549   1.900 -0.1312  0.1954 -0.1295
13897W        W29366   5.295   6.255  13.920  0.1533 -0.0673 -0.0175
13898W        W29367   7.835  10.847  12.300 -0.4890  0.2064 -0.0081
13899W        W29368   9.878  12.452   4.187  0.3834  0.1856 -0.1378
13900W        W29369  16.079   3.349  12.815 -0.0623  0.0477  0.0823
13901W        W29370   3.396  16.605   4.877  0.0316 -0.0110 -0.2582
13902W        W29371   7.091  16.443  13.807 -0.0823  0.0640 -0.0073
13903W        W29372  14.953   9.551   5.822  0.0370  0.0967  0.0118
13904W        W29373   1.148   6.404  16.028 -0.1117  0.1507 -0.0646
13905W        W29374   3.979   2.287   5.289 -0.1909  0.2732  0.0739
13906W        W29375   7.823   9.279   0.871 -0.2024 -0.0606 -0.1380
13907W        W29376  15.774   1.690   6.083  0.0614 -0.1958 -0.0286
13908W        W29377  16.232   3.375  14.499 -0.0434  0.1960 -0.1044
13909W        W29378   5.941  14.767   0.977  0.1483 -0.0150  0.2174
13910W        W29379   9.496  14.815   4.071  0.0626  0.1440  0.0622
13911W        W29380   2.444  14.732   3.421 -0.1943  0.0885 -0.0513
13912W        W29381  13.621  12.937   5.028  0.2949  0.0637  0.3241
13913W        W29382   5.188   0.376  14.693 -0.0319 -0.1952 -0.2521
13914W        W29383  14.133  16.795  11.683  0.0861 -0.1873 -0.1301
13915W        W29384   5.112  18.233   3.928  0.2149  0.0795 -0.2000
13916W        W29385  17.017  15.250   0.807  0.0074  0.0527 -0.0058
13917W        W29386  10.574   4.437   2.680  0.1511 -0.2167  0.1863
13918W        W29387  16.491   5.402   1.581  0.2354 -0.2837 -0.1452
13919W        W29388  16.106   4.763   1.058  0.0329  0.0493 -0.4536
13920W        W29389   5.021   2.891  15.575 -0.3672  0.0243  0.2080
13921W        W29390   8.577   6.633  11.525 -0.0841 -0.0607  0.2845
13922W        W29391   0.460  16.752  15.673  0.1268 -0.2298  0.1468
13923W        W29392   6.663   1.218  11.771  0.0677 -0.1835  0.3826
13924W        W29393   9.357   3.035  13.557 -0.0071 -0.1443  0.0720
13925W        W29394  18.162   8.271  15.663  0.3199  0.0298  0.0227
13926W        W29395   3.032   2.357   3.759  0.2388  0.1567  0.1206
13927W        W29396  18.014  13.484   2.531  0.0625  0.0396  0.1297
13928W        W29397   4.269  10.740   3.436 -0.0264 -0.0312  0.2085
13929W        W29398   5.019   7.376  12.414 -0.0565 -0.1353  0.1438
13930W        W29399  11.805   1.181   4.047 -0.2151  0.0288 -0.3161
13931W        W29400  13.565   2.961   4.936  0.0105 -0.5280  0.0141
13932W        W29401   3.854  11.831  13.483 -0.2365  0.2798  0.0975
13933W        W29402   9.278  16.113   0.955  0.0825 -0.1429 -0.1697
13934W        W29403   8.958   8.716  13.907 -0.2906  0.3107  0.1576
13935W        W29404  12.123   2.429   0.576  0.3338 -0.0660  0.1932
13936W        W29405  13.947  14.289  11.284 -0.0534  0.2469 -0.0059
13937W        W29406   7.411  15.908  10.383 -0.0786 -0.1843 -0.2444
13938W        W29407  15.065  13.038  14.439 -0.2307  0.0369 -0.1757
13939W        W29408   8.639  14.173   1.658  0.0691  0.1909  0.0648
13940W        W29409   4.707  13.199  13.892 -0.1997  0.1804 -0.1253
13941W        W29410   9.149   0.773  14.953 -0.1060  0.1390 -0.0715
13942W        W29411   6.894   9.838   6.053 -0.0235 -0.2071 -0.0519
13943W        W29412   8.538  13.702  11.419  0.0570 -0.1072  0.5817
13944W        W29413   8.686   6.768   5.249  0.2275  0.1050  0.3142
13945W        W29414   4.576   4.433  13.833 -0.1834 -0.0962  0.0140
13946W        W29415   0.959  11.275  11.237 -0.0714 -0.0680  0.2116
13947W        W29416   3.670  14.798  10.774 -0.2044  0.3646 -0.1926
13948W        W29417   4.708   3.342  15.527  0.0358 -0.0018  0.4455
13949W        W29418   6.688   9.324  11.758  0.1808  0.0289  0.0257
13950W        W29419  10.287   2.444   3.958  0.2207  0.0521 -0.0372
13951W        W29420  16.012  18.288  15.668 -0.1804  0.4661  0.2219
13952W        W29421   9.357   5.089   4.779 -0.0784 -0.0979 -0.0001
13953W        W29422   3.041  14.537   1.335  0.3112 -0.1456  0.1060
13954W        W29423   3.374  10.665  11.352 -0.1019 -0.0068 -0.2358
13955W        W29424   5.788   0.885   4.403 -0.0090  0.1693  0.1724
13956W        W29425   1.265  14.994   1.686  0.0753  0.0728  0.1507
13957W        W29426  17.290   8.450  15.326 -0.0882 -0.5095  0.2066
13958W        W29427   6.756   3.191  15.271  0.3579 -0.0008  0.0824
13959W        W29428   4.388   3.515  10.990 -0.0701 -0.4032 -0.3189
13960W        W29429  11.797  12.337   2.467  0.2247 -0.1614  0.1068
13961W        W29430   2.266  17.451  13.015 -0.2313  0.2764 -0.2143
13962W        W29431   6.452   1.546  14.619  0.1186  0.1446 -0.0120
13963W        W29432   3.323   3.435  11.261 -0.1027 -0.0069  0.2314
13964W        W29433   5.781   9.028   4.486  0.4012 -0.4015  0.1896
13965W        W29434  13.676   0.930  13.336  0.0530 -0.3998 -0.1943
13966W        W29435   6.892   5.922  12.763  0.3538 -0.0157 -0.1390
13967W        W29436   3.553   8.176   3.453  0.4855  0.0155 -0.0378
13968W        W29437   9.931   4.374  13.031  0.0383  0.1487 -0.1216
13969W        W29438  12.308   1.658  14.624 -0.0751 -0.2051  0.2925
13970W        W29439   6.880  11.856  12.701  0.0638  0.1932  0.2296
13971W        W29440   6.494   3.077   6.202 -0.1519  0.2423 -0.1847
13972W        W29441  17.160   6.870  14.563  0.3804  0.1708 -0.0984
13973W        W29442  12.410   6.089  12.337  0.0311 -0.0994  0.1066
13974W        W29443   7.843  15.050  14.893 -0.1161  0.0687  0.0376
13975W        W29444   7.007   1.606  13.124 -0.3128 -0.0559  0.1607
13976W        W29445   5.615  14.423  15.102 -0.1208 -0.2495 -0.1069
13977W        W29446   8.600   7.049   4.206  0.0773  0.2996 -0.1923
13978W        W29447   6.961  14.458   0.282  0.0341  0.4057 -0.0685
13979W        W29448  11.284   5.797  15.709 -0.0693  0.0753  0.1986
13980W        W29449  15.802  10.787  15.283 -0.0715 -0.5668 -0.0506
13981W        W29450  16.292   5.545  12.386  0.2243 -0.2267 -0.0727
13982W        W29451   6.156  10.818  15.881 -0.0380 -0.1041 -0.0995
13983W        W29452  11.954   7.384  11.919 -0.0836  0.1379  0.0458
13984W        W29453   3.479   7.985  10.813  0.1532  0.0204  0.0858
13985W        W29454  11.137  17.929  15.836  0.1079 -0.0111 -0.2122
13986W        W29455  15.393   9.808   1.178  0.0030 -0.1331 -0.0192
13987W        W29456   1.978  11.863   1.378 -0.3055  0.1280  0.0572
13988W        W29457   7.638  10.382  12.410  0.0573  0.0434 -0.1311
13989W        W29458   2.669   7.861  14.455  0.0683 -0.2928 -0.1684
13990W        W29459  13.082  10.942   1.420  0.1417  0.0226 -0.0266
13991W        W29460   4.325   8.166  12.870  0.5338 -0.1938 -0.4052
13992W        W29461   7.535   9.597  12.439 -0.1599  0.0762  0.0642
13993W        W29462  16.701   3.037   1.396 -0.0950  0.1673 -0.1826
13994W        W29463   9.466  16.923   2.214 -0.1428  0.1194  0.0893
13995W        W29464  10.361  14.204  11.740 -0.0720 -0.0756 -0.2585
13996W        W29465   9.551  15.178   2.605 -0.0204 -0.2298 -0.0851
13997W        W29466  12.618  16.866  11.769  0.4024  0.0047  0.2792
13998W        W29467   4.663   6.223   3.873  0.0639 -0.1706 -0.2260
13999W        W29468  13.446   2.823  15.321 -0.1941  0.2095 -0.2399
14000W        W29469   9.158   6.998  10.134  0.0931 -0.1978  0.1248
14001W        W29470  14.616   9.996   4.467 -0.2575 -0.2369  0.1039
14002W        W29471  13.870  12.243  11.500  0.0456 -0.1230  0.3249
14003W        W29472   8.500  17.290  15.553  0.1119  0.1558  0.0877
14004W        W29473  11.901  11.092   3.222 -0.0738  0.0207 -0.3151
14005W        W29474  16.795   4.189  13.607 -0.1088  0.2038 -0.1464
14006W        W29475  17.514   3.386   0.716 -0.1798  0.2341 -0.2731
14007W        W29476  11.321  15.886   0.481  0.3283 -0.2013 -0.1379
14008W        W29477  10.231   3.062  11.600 -0.5612  0.0131  0.4024
14009W        W29478   0.203  14.742  15.705 -0.0222  0.0645  0.1705
14010W        W29479   0.310   8.069   9.958  0.0626 -0.0625  0.1151
14011W        W29480  16.269   0.895  15.364  0.1251 -0.1657  0.2330
14012W        W29481  10.641   6.306   4.758  0.0098  0.4200 -0.1864
14013W        W29482  11.967   1.909   1.951  0.0080  0.1668  0.1166
14014W        W29483   0.435  10.872   1.238 -0.1680  0.2094 -0.1641
14015W        W29484  14.854  18.169  12.079 -0.2005 -0.1429  0.0006
14016W        W29485   2.846   4.306  13.411  0.0981 -0.1958  0.2202
14017W        W29486  12.403  16.504  14.783 -0.1309 -0.2868  0.1083
14018W        W29487  16.689   9.803   3.075 -0.1142  0.1484  0.1222
14019W        W29488   5.228   5.370  14.591  0.0069  0.4218  0.1488
14020W        W29489   9.286   2.360  11.272  0.2878  0.4500  0.2521
14021W        W29490   4.815   0.463   4.531 -0.0723 -0.2718  0.0120
14022W        W29491   0.624   9.449  12.943 -0.1991 -0.0007 -0.2613
14023W        W29492  11.039   9.311  11.623 -0.2852 -0.1206 -0.3885
14024W        W29493  12.170  13.501  13.823  0.2519 -0.1691 -0.0033
14025W        W29494   4.323   9.266  11.075 -0.0332 -0.1716  0.3595
14026W        W29495   8.123  16.487   1.645 -0.1521  0.1038  0.1265
14027W        W29496   9.905  15.152  14.266  0.2141  0.0012 -0.0671
14028W        W29497  14.960   3.188   4.511  0.0049  0.4846 -0.2956
14029W        W29498   8.614  16.627   1.923 -0.2039  0.1204 -0.0483
14030W        W29499  17.826   4.988  13.287 -0.0470 -0.2607  0.0171
14031W        W29500  17.583   8.586   5.822 -0.1357  0.2797 -0.2727
14032W        W29501  15.920  14.794  12.045 -0.4639 -0.3022  0.1563
14033W        W29502  10.694  16.946  15.749  0.3558 -0.0097 -0.0053
14034W        W29503  11.137  14.380  15.916  0.3650  0.2496  0.1382
14035W        W29504   4.314  14.304   3.816  0.0502  0.2430  0.3079
14036W        W29505   1.929  16.307  14.417  0.0028 -0.2338 -0.0850
14037W        W29506   1.187   7.217  14.436 -0.2738 -0.4006  0.2306
14038W        W29507  12.242   2.368   4.493 -0.0421 -0.2085  0.1068
14039W        W29508  15.114   4.576  13.836  0.0267 -0.1645 -0.0635
14040W        W29509  17.458  16.638   5.975  0.0353  0.3015  0.1850
14041W        W29510  12.095  11.456   5.105  0.1282  0.1875  0.1886
14042W        W29511  10.364   6.507   4.355  0.0242  0.1007  0.1639
14043W        W29512   4.863  10.420  13.168  0.0664 -0.2420 -0.1081
14044W        W29513  18.067  11.865  14.416 -0.0067 -0.3626 -0.0966
14045W        W29514   8.709  13.946  13.752 -0.2313  0.1698  0.2124
14046W        W29515  18.143   2.723   2.446 -0.1640 -0.0077 -0.2900
14047W        W29516  13.740   6.577  11.405  0.3104  0.0525  0.1800
14048W        W29517   3.491  17.506  11.221 -0.2832 -0.3820  0.0940
14049W        W29518   1.666   7.801   3.210 -0.2387 -0.1060 -0.2242
14050W        W29519  17.051  16.578   3.724  0.0733  0.4925 -0.0004
14051W        W29520  16.856  17.392   5.845  0.1567  0.0665  0.1637
14052W        W29521  17.713  12.245   1.478  0.1394 -0.4685  0.2549
14053W        W29522  11.545   2.859  11.830  0.0843  0.3118 -0.1147
14054W        W29523  11.228   4.782   0.265  0.0992 -0.0616 -0.5137
14055W        W29524   2.876   1.822   2.905  0.2084  0.1964  0.4520
14056W        W29525   2.723   3.981   4.459 -0.0237 -0.3730  0.1643
14057W        W29526  16.381  15.463   5.098 -0.1517  0.1388 -0.0564
14058W        W29527   9.385  10.852   2.722  0.0392 -0.0214  0.3105
14059W        W29528   1.636   0.232  13.023 -0.0804 -0.0386  0.0769
14060W        W29529  17.781   0.251  13.586 -0.3730 -0.3233 -0.0985
14061W        W29530  17.307  14.822   5.214 -0.0845 -0.1938  0.1947
14062W        W29531   0.438  14.684  13.676  0.0641  0.3274 -0.2006
14063W        W29532  13.607   2.212  11.975  0.1088 -0.0946  0.1776
14064W        W29533  10.169  14.413  15.552  0.2462 -0.3920 -0.1404
14065W        W29534   1.260   5.030  12.248  0.0193 -0.4758  0.0256
14066W        W29535  14.392   9.744  10.556  0.0558 -0.0312 -0.0994
14067W        W29536  12.610  10.014   0.320  0.2379 -0.1534  0.0136
14068W        W29537   6.322   8.438  14.680 -0.0101  0.0989 -0.2921
14069W        W29538   4.508   0.674  15.970  0.0426  0.2619 -0.0241
14070W        W29539   1.360  12.198   4.729 -0.0840  0.1221  0.2026
14071W        W29540   3.128   2.027   1.092 -0.1956  0.4914 -0.0916
14072W        W29541   2.172   8.921  13.682 -0.2794 -0.0547  0.2077
14073W        W29542  16.615  12.484  12.771 -0.1592 -0.0166  0.1120
14074W        W29543   1.351   0.315  14.484 -0.4353  0.0614  0.1133
14075W        W29544  14.491   3.194  12.253 -0.1762 -0.1348 -0.0255
14076W        W29545  17.358   1.072  11.286  0.0229  0.1586 -0.2310
14077W        W29546  14.645   3.935   3.486  0.1224  0.0726 -0.0593
14078W        W29547   3.334   2.686   5.469  0.1106  0.2484  0.0459
14079W        W29548  18.037  15.745  14.545  0.2706  0.3803 -0.1127
14080W        W29549   0.793   4.211   5.200  0.0320 -0.0416 -0.0536
14081W        W29550   0.502   3.304   4.306 -0.0162 -0.3600 -0.3790
14082W        W29551   7.528  10.814   0.229 -0.0776 -0.1318  0.1724
14083W        W29552  12.548   7.730   2.829 -0.2250  0.0036 -0.0557
14084W        W29553  11.565  14.002  12.022  0.1145 -0.2593  0.3126
14085W        W29554  14.819  11.422  11.536  0.2252  0.2948 -0.3436
14086W        W29555   0.283  11.388  14.783  0.1741 -0.3565 -0.2962
14087W        W29556   4.293  13.291  10.163  0.2152  0.2636 -0.1059
14088W        W29557  14.140   0.040   1.465 -0.3324 -0.0157  0.1180
14089W        W29558  16.628   0.912   3.173 -0.0425 -0.0616  0.0429
14090W        W29559   4.635   7.583   2.699 -0.2041  0.0227 -0.0755
14091W        W29560   6.310  14.235   5.194  0.0657  0.3343 -0.1346
14092W        W29561   9.598  16.033  12.059  0.1737  0.3912 -0.2836
14093W        W29562  14.721  15.728   1.478 -0.0240  0.1050  0.0873
14094W        W29563  15.732  16.148   0.575 -0.1236  0.1668 -0.0437
14095W        W29564  17.571   7.423   3.678  0.0682 -0.3476 -0.3420
14096W        W29565   5.465   7.045  13.842  0.2018 -0.0053  0.0916
14097W        W29566  15.295  17.752  12.619 -0.0398 -0.0426 -0.1474
14098W        W29567   7.585   9.185   2.231 -0.2436  0.1388  0.3658
14099W        W29568   0.498   4.539   4.784 -0.1881  0.1214 -0.1148
14100W        W29569  14.518  14.551   0.461  0.1437  0.1994  0.2330
14101W        W29570  17.572   7.211  13.742  0.0977  0.0880 -0.4945
14102W        W29571   6.503  14.548   0.630  0.1633  0.0291  0.0641
14103W        W29572   8.739   9.764   3.629  0.1449  0.1610 -0.3871
14104W        W29573   6.370  10.540   1.071  0.1781  0.3589  0.0264
14105W        W29574  16.690   2.843  14.389  0.1011  0.3617 -0.0904
14106W        W29575   2.482   5.003   3.640  0.1093 -0.1323  0.0196
14107W        W29576   5.343  10.342  13.260  0.1007 -0.1947  0.1824
14108W        W29577   7.420  12.434  15.356 -0.0451  0.1079 -0.0537
14109W        W29578   2.350  14.272   0.185 -0.1083 -0.1440 -0.2100
14110W        W29579   7.293  11.349   6.016 -0.2727  0.0851  0.2043
14111W        W29580  18.228  10.561  12.461  0.0349 -0.0973 -0.0398
14112W        W29581  12.101  10.522  13.526 -0.1215 -0.1467  0.3524
14113W        W29582   5.052   0.493   1.787  0.2751 -0.0744 -0.2669
14114W        W29583  11.926  12.398   0.768  0.3059  0.0639 -0.0242
14115W        W29584   8.102   3.766   1.679 -0.1785  0.1202 -0.1465
14116W        W29585   3.922   8.496   3.719 -0.3055  0.0520 -0.1945
14117W        W29586  11.193   9.627   4.609 -0.1519  0.0792 -0.2881
14118W        W29587   8.577   0.995  11.620 -0.3053 -0.0837 -0.0188
14119W        W29588  10.074  13.958  10.577  0.0037 -0.1416 -0.2080
14120W        W29589  11.088   4.271  14.747  0.0431 -0.0085 -0.0190
14121W        W29590  15.065  11.380   4.379  0.1119  0.1483 -0.1571
14122W        W29591   9.831   1.780   2.842 -0.0466  0.1510  0.1664
14123W        W29592   6.344  14.754   3.484 -0.1382 -0.1986 -0.1905
14124W        W29593   0.198  18.336  11.289 -0.0292  0.2875  0.1196
14125W        W29594  17.208   1.912  12.321  0.0832  0.1855  0.3644
14126W        W29595  13.870   2.246  13.850 -0.2728 -0.1943  0.0992
14127W        W29596  13.781  11.214  14.279 -0.0667  0.0856 -0.3456
14128W        W29597  12.494   6.312   0.669  0.3285 -0.0061  0.1897
14129W        W29598  16.981  16.531  14.814 -0.0043 -0.2126  0.1472
14130W        W29599   9.840   6.511   3.088 -0.0691 -0.0207  0.1161
14131W        W29600   4.379   1.911   4.654 -0.2020 -0.0507  0.1328
14132W        W29601  10.917   1.245  15.511  0.0241  0.2730  0.0441
14133W        W29602  13.564   0.941  14.290 -0.2613  0.0077  0.0120
14134W        W29603  14.748  13.407   5.151  0.0360 -0.1706 -0.1109
14135W        W29604   3.816   7.155  11.841  0.1859  0.0098  0.1262
14136W        W29605  10.355  15.798  15.471  0.0862 -0.2214  0.1671
14137W        W29606  12.912  15.715  15.897 -0.3189  0.1650  0.1712
14138W        W29607   1.049   5.538  12.259 -0.0745 -0.1087 -0.0531
14139W        W29608   5.833  18.070   0.998 -0.1522  0.0241 -0.3111
14140W        W29609   2.151  14.422   2.557  0.1845 -0.1774  0.0511
14141W        W29610  14.789   3.859  16.011  0.1909 -0.1180  0.0951
14142W        W29611   3.119  14.335  11.195  0.3444  0.1533 -0.1894
14143W        W29612   6.143  18.326  12.307  0.0881 -0.0881 -0.1471
14144W        W29613   3.849  11.226   3.563 -0.2076  0.1765 -0.0245
14145W        W29614   2.902  18.250  15.905  0.0464  0.1819 -0.3657
14146W        W29615   8.713   7.336  15.337 -0.0276 -0.3785 -0.1423
14147W        W29616  12.251   0.640  14.199 -0.3576 -0.3498  0.1532
14148W        W29617  15.260  12.150   2.129  0.0528  0.0172 -0.0057
14149W        W29618   7.092   5.168   0.297  0.0767 -0.2740  0.0674
14150W        W29619  14.325  15.458   0.201 -0.1479  0.0918  0.0131
14151W        W29620   6.134  14.630   3.072 -0.0499 -0.0709 -0.0330
14152W        W29621   9.625  10.981  13.779 -0.2912 -0.0688  0.0811
14153W        W29622  12.266   7.677   4.921  0.0553 -0.0157 -0.0191
14154W        W29623   8.446   5.258   4.024 -0.2223 -0.2032  0.0322
14155W        W29624  12.461   2.641   0.900 -0.2350  0.3082  0.1296
14156W        W29625   6.707  12.952  13.843 -0.1036 -0.0299  0.2632
14157W        W29626  14.067  14.679  14.151  0.1801  0.3148  0.0982
14158W        W29627   2.557   4.683   0.665 -0.3392 -0.0940 -0.1186
14159W        W29628   6.424  14.123  11.647  0.1715 -0.1096 -0.0992
14160W        W29629   4.844   5.299   5.422 -0.0689  0.1395 -0.3578
14161W        W29630  13.644  17.033  10.445 -0.0136 -0.0311 -0.1316
14162W        W29631   5.586   3.879  12.524  0.5946 -0.2005 -0.0339
14163W        W29632   7.754   1.299  15.769 -0.1562  0.2734 -0.0105
14164W        W29633  11.639  10.879   9.723  0.3334 -0.1658 -0.0177
14165W        W29634  17.451  15.509   0.704 -0.2305 -0.0009 -0.3707
14166W        W29635   8.630  14.439  13.870 -0.1410 -0.1637  0.2685
14167W        W29636   1.379   2.870  11.658  0.1991 -0.1412  0.1022
14168W        W29637   7.028   9.693  11.773  0.0982 -0.0291 -0.0189
14169W        W29638   5.560  12.887   0.793  0.1088 -0.3217  0.0751
14170W        W29639  17.504  16.253  15.471  0.1056 -0.2596  0.0918
14171W        W29640  15.488   8.182   2.714  0.2612  0.0698 -0.0417
14172W        W29641   3.072   0.524   0.593  0.1054  0.0866 -0.0408
14173W        W29642   9.664  14.492  12.780  0.0080  0.2020  0.0311
14174W        W29643   1.507  17.431  15.931 -0.0489  0.2150 -0.2031
14175W        W29644   0.541  16.967  15.212 -0.1871  0.2759 -0.1282
14176W        W29645   5.523   5.434   3.643 -0.1016 -0.0506 -0.2728
14177W        W29646   8.688   7.450   1.909 -0.2162  0.0479  0.3091
14178W        W29647   6.685  10.133  14.799  0.0670 -0.3206  0.1723
14179W        W29648   5.289   2.523  14.370  0.0513 -0.0778 -0.3551
14180W        W29649   0.995  11.638  11.625 -0.0282  0.0554 -0.1637
14181W        W29650   2.917  14.544  12.448 -0.2945 -0.0667 -0.0041
14182W        W29651   2.761   2.409  13.569  0.0452 -0.1349 -0.2104
14183W        W29652   4.884   7.287   3.032 -0.0834 -0.2936  0.0301
14184W        W29653   3.903  14.710  13.725 -0.0312  0.1554  0.1838
14185W        W29654  14.677   0.946   5.129  0.3394 -0.0807 -0.2255
14186W        W29655  13.777   7.767  13.764 -0.3719  0.2707  0.2476
14187W        W29656  13.755   3.808   0.248 -0.0248 -0.5261  0.1383
14188W        W29657   8.085   6.737  15.248  0.1410 -0.0333 -0.2536
14189W        W29658   8.352  15.913  12.081 -0.2344  0.2119  0.2708
14190W        W29659  18.378   9.253  11.191  0.2191 -0.0222 -0.2199
14191W        W29660  10.171   2.982  14.689 -0.0432  0.2377 -0.0228
14192W        W29661  18.363   7.998  10.778  0.1843 -0.0821  0.1193
14193W        W29662   5.127  11.495   4.087  0.1285 -0.1796  0.3863
14194W        W29663  14.070   5.922  11.131  0.2566  0.4138 -0.0716
14195W        W29664  14.528   9.241  11.507  0.0464 -0.1230  0.0085
14196W        W29665  12.703   4.982  14.282 -0.2578  0.1295 -0.3631
14197W        W29666  13.004  13.689   1.873  0.1095 -0.2090  0.1514
14198W        W29667  11.087   3.335  15.463  0.0369  0.0308 -0.1667
14199W        W29668   2.525   1.280  15.487  0.1865  0.2198  0.2271
14200W        W29669   9.146  17.263  11.569  0.0047  0.4816  0.2979
14201W        W29670  10.837   0.517   9.963  0.5030  0.1841  0.0996
14202W        W29671  11.401   0.788   0.147 -0.3982  0.0235 -0.1423
14203W        W29672  11.175   1.096   4.152 -0.1736 -0.0394 -0.0567
14204W        W29673   7.456  14.376   0.379  0.2235  0.1912 -0.0458
14205W        W29674   7.802   5.714   4.710  0.4124 -0.1334 -0.1055
14206W        W29675  18.095   3.116   3.290  0.0544  0.1346 -0.1007
14207W        W29676  12.566   9.534  13.383 -0.3265  0.2369 -0.0212
14208W        W29677  11.548  16.260  12.803 -0.0981  0.2763 -0.0610
14209W        W29678   1.211   9.985   3.627  0.2007 -0.1308  0.1334
14210W        W29679   9.980   6.706  15.464 -0.0025  0.4849 -0.0872
14211W        W29680   7.610   5.697  13.872  0.0416 -0.0592 -0.1924
14212W        W29681   8.725  11.165   3.336  0.0474  0.0116  0.2207
14213W        W29682  17.254   8.660  11.634  0.1531  0.2111  0.0633
14214W        W29683  14.385   6.918   0.619  0.2581 -0.0713  0.0809
14215W        W29684   0.556   3.516   3.304  0.0055  0.1814 -0.1594
14216W        W29685  11.564   4.262  13.046 -0.1134  0.3671 -0.2030
14217W        W29686   9.802  10.586   1.475  0.2521 -0.4858 -0.0392
14218W        W29687   8.392  17.109   3.721 -0.3537 -0.0780 -0.1476
14219W        W29688  11.011  10.221  12.250  0.0970  0.0122  0.2085
14220W        W29689  10.716  18.056   2.464 -0.0828 -0.0812  0.1719
14221W        W29690  13.909   7.944   3.021  0.1106  0.2682 -0.2096
14222W        W29691   7.191  13.967   5.064 -0.1007 -0.1910 -0.0186
14223W        W29692   9.390  15.545  11.425  0.2370 -0.2024 -0.0167
14224W        W29693  16.013   9.365  12.855 -0.2332 -0.2263  0.1343
14225W        W29694  17.143  13.493  12.860 -0.1651  0.0836  0.0790
14226W        W29695   5.442   4.986  11.253 -0.0037 -0.0095 -0.0759
14227W        W29696  17.134   2.518  11.068  0.2559 -0.1530  0.1851
14228W        W29697  10.898  17.681  13.405 -0.2297  0.1392  0.0649
14229W        W29698  14.288   5.803  12.693 -0.0355  0.1178  0.0506
14230W        W29699  17.507   7.622  14.689  0.0293 -0.1361  0.0836
14231W        W29700   9.016  12.433  15.067 -0.0985  0.2285  0.0747
14232W        W29701   3.695   6.283   6.428  0.3744  0.2550  0.2715
14233W        W29702  17.118  11.468  13.584  0.0448 -0.1108  0.1437
14234W        W29703   1.863   3.880  13.183  0.2686 -0.1886  0.0190
14235W        W29704  17.874   4.658   0.085 -0.0033 -0.1239 -0.0316
14236W        W29705   6.318  12.069  15.903 -0.1936  0.2830  0.4267
14237W        W29706   6.638  16.474   0.038  0.1953 -0.3341  0.3011
14238W        W29707  16.946   2.074   3.911 -0.1628 -0.3281 -0.0276
14239W        W29708   5.121   9.376   0.271  0.2106 -0.0727  0.0051
14240W        W29709   6.447   6.933   0.687 -0.0885 -0.2215  0.3261
14241W        W29710   1.602   8.433  13.141 -0.2816  0.0636 -0.0179
14242W        W29711   8.315   8.430  14.437 -0.1607 -0.1510 -0.0154
14243W        W29712   9.541   0.726  14.319 -0.0567  0.0779 -0.0582
14244W        W29713   5.448   3.222   2.242  0.0437  0.1042 -0.0346
14245W        W29714  18.376   6.649   0.634 -0.1395 -0.0081  0.1420
14246W        W29715  16.202   5.351   1.098  0.0961  0.1052  0.0793
14247W        W29716  13.153   8.788   2.180 -0.2606 -0.1563 -0.1112
14248W        W29717   4.512   1.172   6.061  0.3552  0.1881 -0.0631
14249W        W29718   9.952   7.070   1.860  0.0699 -0.0302 -0.0296
14250W        W29719   8.087   5.314  14.708 -0.2463 -0.0037 -0.3117
14251W        W29720   8.388   7.460  13.378 -0.1381 -0.0254 -0.0442
14252W        W29721  18.276  16.977   0.626 -0.1200  0.2792  0.2059
14253W        W29722   6.666   4.054   2.817 -0.0048 -0.3947  0.0382
14254W        W29723   6.312   5.666  13.227 -0.1444 -0.2062  0.2338
14255W        W29724   7.362   7.056  11.642  0.2006  0.1476  0.1852
14256W        W29725   9.156  15.451  13.588 -0.1863  0.0315  0.2876
14257W        W29726   5.320   0.513  15.711  0.2435 -0.1474  0.1539
14258W        W29727  15.094   4.340   0.017  0.0439 -0.3401 -0.2022
14259W        W29728  14.165  10.736   3.518  0.0389 -0.0822  0.3471
14260W        W29729  13.799   6.171   6.449  0.2634  0.2199  0.0289
14261W        W29730   9.103   4.772   3.878 -0.1020  0.0337 -0.1624
14262W        W29731   0.180   9.849   3.645  0.3283 -0.0494  0.0516
14263W        W29732   8.018   2.370   2.341  0.0464 -0.0574 -0.0229
14264W        W29733  12.829  15.930   3.492 -0.3273  0.1804  0.1307
14265W        W29734   3.758   9.217  11.451 -0.0759 -0.3043 -0.1205
14266W        W29735   0.760  16.864  14.451  0.3439 -0.4323  0.0604
14267W        W29736   3.959   0.403  11.387 -0.4643  0.0461  0.1761
14268W        W29737   0.354   5.899   2.329 -0.1250 -0.0974 -0.1164
14269W        W29738   7.669  16.326  10.560  0.1394  0.1930 -0.1610
14270W        W29739  15.944  14.646  12.978  0.1870  0.0420 -0.2682
14271W        W29740  12.513   2.667  12.259  0.0463  0.2362 -0.1209
14272W        W29741  12.466   6.208  15.757 -0.2472 -0.0136  0.0341
14273W        W29742   8.633  16.625   2.762  0.1729 -0.0820  0.3816
14274W        W29743   3.670   6.942   2.839 -0.1194  0.0442 -0.1742
14275W        W29744   1.514   6.273  14.584  0.1904  0.0091  0.2884
14276W        W29745   1.040   0.622  12.596  0.0108 -0.1211  0.1804
14277W        W29746  13.434  11.034  15.171 -0.2278  0.0710 -0.0686
14278W        W29747   5.872   5.421  11.498 -0.0666  0.2769 -0.3452
14279W        W29748  16.157  12.420   3.453 -0.1541  0.0809 -0.0365
14280W        W29749   8.791   2.420  12.559  0.1371 -0.0814 -0.2053
14281W        W29750  15.794   1.481  14.017  0.0167 -0.1455  0.4912
14282W        W29751  10.673   7.717   1.422 -0.2957  0.0022  0.2489
14283W        W29752   8.356   4.555  13.606  0.1621 -0.0974 -0.0116
14284W        W29753  17.104   2.247   1.000 -0.2519 -0.1234  0.0361
14285W        W29754  17.230  11.923   0.642  0.0111  0.1170  0.3407
14286W        W29755  11.823  11.418   9.832 -0.3435  0.0542 -0.1410
14287W        W29756  14.807   0.461   3.473 -0.1475  0.2416 -0.2390
14288W        W29757   4.395  12.984  12.474 -0.2917  0.1465 -0.0268
14289W        W29758  10.032  10.943   3.578  0.3609 -0.1255 -0.1370
14290W        W29759   4.661  17.909  13.721  0.3866  0.0897 -0.2198
14291W        W29760  12.251   7.481  11.465  0.0669 -0.2105 -0.2552
14292W        W29761  17.950  18.422  13.020  0.0652 -0.0397 -0.1458
14293W        W29762  16.295   4.687   5.769 -0.2551  0.1578 -0.2613
14294W        W29763  12.604  11.510  10.358 -0.5352  0.2550  0.2451
14295W        W29764   9.714   9.070   5.723 -0.1024  0.0296 -0.0344
14296W        W29765  18.357  17.499   0.920  0.0735  0.1629  0.0626
14297W        W29766  17.549  12.503   4.387  0.1894  0.1873  0.3647
14298W        W29767   5.794  10.357  11.923 -0.0450 -0.1631 -0.2902
14299W        W29768  15.098  14.714  14.751 -0.0210  0.0377 -0.2382
14300W        W29769  13.246   3.658  15.042 -0.2052 -0.4048  0.0674
14301W        W29770  17.207   3.161   1.128  0.1158 -0.1574 -0.1755
14302W        W29771   9.015  11.201  10.928 -0.0615  0.2846  0.1486
14303W        W29772  15.753   1.059  14.455 -0.0237  0.0245 -0.3630
14304W        W29773  15.228   8.035   3.690  0.0227 -0.1415 -0.1048
14305W        W29774   4.694   2.317  11.830  0.2561  0.3682 -0.5975
14306W        W29775  17.571   8.665   3.686 -0.1998  0.1933 -0.1167
14307W        W29776  12.833   4.470  11.580 -0.1056 -0.2194  0.1381
14308W        W29777   4.481   3.683   1.311  0.1186  0.0910  0.2177
14309W        W29778   0.556   6.100   0.991 -0.3854  0.1674  0.2500
14310W        W29779   1.544   0.327   1.471 -0.0921 -0.0010 -0.0402
14311W        W29780  10.820  10.191   5.754  0.1376  0.1961  0.1250
14312W        W29781  11.656   7.512   2.615  0.0053 -0.3390 -0.3114
14313W        W29782  10.567   9.562   0.860 -0.0681  0.2177 -0.4234
14314W        W29783   5.201   7.452   0.676  0.3129  0.1157 -0.2353
14315W        W29784  10.957   1.846   5.924  0.2171 -0.0610 -0.2448
14316W        W29785   1.144   7.506   1.091  0.2951 -0.0659  0.3552
14317W        W29786  15.719  18.026   0.061 -0.2752 -0.1580  0.0690
14318W        W29787   0.823  15.202  12.962  0.0120 -0.0704  0.4328
14319W        W29788   3.707  17.297   0.082 -0.0082  0.1949 -0.0311
14320W        W29789  14.916   3.426   0.635 -0.3104  0.2752  0.0987
14321W        W29790   6.631  17.097   3.789 -0.2733 -0.1231  0.2914
14322W        W29791  13.199  18.430   1.415 -0.0419  0.2122 -0.0295
14323W        W29792   1.342   5.437   2.000  0.0506 -0.0437 -0.2499
14324W        W29793  13.755   5.441   4.092 -0.0420 -0.3462 -0.2669
14325W        W29794  11.529  13.211  11.576 -0.2350 -0.3426  0.0948
14326W        W29795  11.810  13.726   0.932 -0.1627  0.2930  0.1808
14327W        W29796   5.071   6.788  15.908  0.1690 -0.2702  0.0011
14328W        W29797   8.552   9.125  15.531  0.2210 -0.0580  0.0419
14329W        W29798   1.839   9.680   4.669 -0.0571  0.2870  0.2485
14330W        W29799  16.003   7.608  15.993 -0.3929  0.3531 -0.0530
14331W        W29800  12.905   9.542   0.979 -0.4112  0.0441  0.5103
14332W        W29801   9.486   1.933  11.430  0.0071  0.0270 -0.0074
14333W        W29802   2.002  13.601   2.495 -0.0478  0.1096 -0.1239
14334W        W29803  13.154  10.731   2.470 -0.1102 -0.1215 -0.2153
14335W        W29804  14.099   9.341  10.952 -0.1288  0.0043 -0.2121
14336W        W29805   5.754   8.201  13.960 -0.2184 -0.0028  0.1877
14337W        W29806   9.932  15.018  13.066 -0.0179  0.3811  0.1970
14338W        W29807   1.069  10.824  12.733 -0.0136 -0.2507  0.2635
14339W        W29808  10.946   7.230   0.575  0.0432 -0.1845  0.1791
14340W        W29809  11.691   6.167   5.438  0.0665 -0.4204 -0.2479
14341W        W29810   7.447  17.185   1.764 -0.1634 -0.2679 -0.3240
14342W        W29811  14.595  15.632  14.860 -0.3783 -0.0405 -0.1870
14343W        W29812   6.056  14.998  11.164 -0.2610 -0.3419 -0.2274
14344W        W29813   8.403   9.311   3.486  0.0438  0.1471 -0.2600
14345W        W29814  11.234  18.438  10.306  0.0077 -0.2331  0.0470
14346W        W29815  13.490   5.634   1.537  0.2385  0.0778 -0.0683
14347W        W29816   1.318   6.751   2.254  0.1031 -0.1033 -0.3123
14348W        W29817   2.150  12.427   0.069 -0.0889  0.1361 -0.5444
14349W        W29818   8.380   8.028   3.636  0.4046  0.1656 -0.0460
14350W        W29819  17.333  10.738   1.061  0.1723 -0.0010  0.4774
14351W        W29820  10.207  15.771  11.971  0.2364 -0.1713  0.0203
14352W        W29821   6.566   6.045  13.430 -0.0096 -0.0366  0.2094
14353W        W29822   3.302  12.341   5.884 -0.0995 -0.0115 -0.0464
14354W        W29823   8.219  10.909  14.143  0.0767 -0.2644  0.2396
14355W        W29824  16.991   1.101  10.825  0.0405  0.2485  0.0465
14356W        W29825   5.451   3.986   4.927 -0.1650 -0.0813  0.1536
14357W        W29826  11.224   7.965   3.550 -0.0971  0.0051  0.2077
14358W        W29827   1.405   7.005  11.414  0.2495  0.0507  0.3443
14359W        W29828   3.801   5.823   4.182  0.2379  0.0750 -0.0134
14360W        W29829  16.755   6.740   3.925 -0.2947  0.0460 -0.0564
14361W        W29830   1.033   9.549  12.510 -0.2000 -0.3618  0.1504
14362W        W29831   9.386  10.020   5.393 -0.0854  0.0953  0.4178
14363W        W29832   5.032  17.179  10.772  0.0851 -0.0486 -0.1401
14364W        W29833  15.697  15.574  15.748  0.0689 -0.0123 -0.0225
14365W        W29834  12.707   4.863  15.948  0.0285 -0.2175 -0.0938
14366W        W29835   1.540  13.316  13.893 -0.0513 -0.1648  0.0681
14367W        W29836   3.250   4.305  14.269  0.0987  0.1050  0.0591
14368W        W29837   0.117   9.698  12.975 -0.2189  0.0126 -0.4681
14369W        W29838  13.091  10.191   1.912 -0.2824 -0.7027 -0.3925
14370W        W29839   1.825  16.758  13.633 -0.0271 -0.2201  0.0226
14371W        W29840   3.396  10.373  14.158  0.2360  0.1838  0.2589
14372W        W29841   4.888  18.381   1.465  0.2568 -0.0218 -0.2876
14373W        W29842   2.955   4.981  15.741 -0.0664  0.0397  0.1555
14374W        W29843   2.483   8.970  13.212 -0.3973  0.0134 -0.0830
14375W        W29844  14.403  14.956  13.209  0.0204  0.1637 -0.1214
14376W        W29845  10.982   5.117   5.658 -0.0044 -0.0098  0.0962
14377W        W29846   6.590  11.895  15.047 -0.1397  0.0332  0.3233
14378W        W29847  14.421  10.535   3.146  0.0931 -0.1446  0.2862
14379W        W29848   0.772  17.697   5.753  0.0993 -0.1022 -0.1319
14380W        W29849  11.666  13.023  14.902  0.0554  0.1544  0.2412
14381W        W29850   1.752  15.982   4.365 -0.0102  0.1311 -0.1218
14382W        W29851  16.113   8.135   2.306 -0.0285 -0.0064 -0.0720
14383W        W29852  11.905  11.342  11.493 -0.3131  0.0963  0.1858
14384W        W29853   7.003   5.704   0.972  0.1260  0.2182  0.0513
14385W        W29854   4.169   5.898   4.617 -0.0024 -0.0600 -0.0481
14386W        W29855   4.490   4.541   4.927  0.0070  0.0757  0.0692
14387W        W29856  17.602   8.433   1.982 -0.0963  0.3291  0.1650
14388W        W29857  17.208   2.170  11.401  0.0500  0.3039  0.0493
14389W        W29858   4.202   8.796   3.416  0.2630 -0.1485 -0.0866
14390W        W29859  14.152   5.116   0.684  0.3358  0.1539  0.4785
14391W        W29860  11.370   9.354   4.992 -0.1823  0.3296  0.1370
14392W        W29861  17.294  12.386   3.045  0.1717  0.0818 -0.2421
14393W        W29862   2.111   9.860   0.604 -0.2427  0.1728  0.0901
14394W        W29863   6.221   7.934   4.199  0.1461 -0.1694 -0.1072
14395W        W29864   0.779   9.528  14.021 -0.0686  0.0890 -0.0188
14396W        W29865   4.600  17.674   5.654 -0.1414  0.0815 -0.0749
14397W        W29866  13.344  16.980  15.816  0.3052  0.1690  0.0878
14398W        W29867   1.843  12.890  13.217  0.2800 -0.2660 -0.4300
14399W        W29868  18.263  13.949  14.756 -0.0455  0.0119  0.0876
14400W        W29869  15.079  11.454  12.943  0.3400 -0.1651  0.0799
14401W        W29870   8.205   5.625   1.654  0.0617  0.2396  0.0272
14402W        W29871   7.314   6.488   3.159 -0.2790 -0.1943 -0.0989
14403W        W29872   6.924   0.874   3.790 -0.0284  0.2436  0.0167
14404W        W29873  12.981  12.760  11.974 -0.0738  0.0234  0.1666
14405W        W29874   3.919  13.952  14.041 -0.0095  0.2629  0.2787
14406W        W29875  12.210  11.431  15.631 -0.1866 -0.1033 -0.2984
14407W        W29876  11.397  17.224   2.053  0.1477  0.0114 -0.3903
14408W        W29877   0.020   2.453  15.430  0.0218 -0.3593  0.0592
14409W        W29878   2.353   5.840  12.368  0.1351 -0.0317  0.0438
14410W        W29879  11.843   2.570  13.730 -0.1141 -0.2028  0.2036
14411W        W29880  16.715   2.866   4.921 -0.1635 -0.4787  0.0199
14412W        W29881  10.763  14.546   3.426 -0.1048  0.1136  0.0728
14413W        W29882  12.671  11.981  14.661  0.1820  0.0838 -0.2055
14414W        W29883   3.926   1.449   3.981  0.0408  0.1506  0.0570
14415W        W29884  12.212  13.483   4.661  0.2229 -0.0645  0.2504
14416W        W29885   9.776  15.928  14.719  0.2210 -0.1933 -0.0739
14417W        W29886   7.871   6.474   3.069  0.1487  0.0798  0.2551
14418W        W29887  12.256  17.337  11.556  0.2882  0.0052  0.0856
14419W        W29888   4.199  16.086  13.147 -0.0762 -0.1853  0.0029
14420W        W29889   0.327  16.892   0.475  0.1061 -0.1308  0.1006
14421W        W29890   5.077  10.372   5.642 -0.0661 -0.4962 -0.0215
14422W        W29891   7.528   6.147  10.417 -0.1711  0.2164 -0.3336
14423W        W29892  16.885  16.673  10.786  0.2634  0.1376 -0.2698
14424W        W29893  18.436   3.867  12.944  0.1383  0.1509 -0.3069
14425W        W29894   3.779   6.566  15.718 -0.1190  0.1658 -0.2685
14426W        W29895  11.970  12.902  12.488 -0.3444  0.0915  0.2997
14427W        W29896   9.218   1.050  14.178 -0.1986 -0.2464 -0.1955
14428W        W29897   1.341   4.147  13.254 -0.1577 -0.1111  0.0096
14429W        W29898   9.418  16.827  13.021  0.2648  0.0667  0.0815
14430W        W29899  16.802  12.477  13.949 -0.2029 -0.1134  0.0373
14431W        W29900  16.460   0.590  11.420 -0.3401 -0.0079 -0.0617
14432W        W29901  16.761  11.721  15.722  0.2649 -0.1550 -0.3231
14433W        W29902   2.303   3.203  15.066  0.1764  0.3127 -0.0184
14434W        W29903  11.761  15.056  13.481  0.0078 -0.1710 -0.2191
14435W        W29904  13.839  10.624   2.259 -0.3222 -0.1710 -0.0692
14436W        W29905  17.893   7.238   4.958 -0.1240  0.0249  0.2175
14437W        W29906  16.096   1.731   2.462  0.3587 -0.0229  0.0810
14438W        W29907   9.761  11.113   2.509 -0.1137  0.1696  0.1718
14439W        W29908   2.358  14.581  13.333 -0.0291  0.0827 -0.1505
14440W        W29909   0.068  12.709   1.444 -0.2676 -0.0026 -0.0779
14441W        W29910  14.049   7.656  12.245  0.1126 -0.2706  0.0255
14442W        W29911   5.373   9.759   0.629 -0.1708 -0.0093  0.2006
14443W        W29912  12.801  16.326   5.176  0.0537 -0.0655 -0.1244
14444W        W29913   5.899  14.177  12.526 -0.1049 -0.1463  0.3475
14445W        W29914  12.044  11.333  14.725 -0.0661 -0.1976  0.2930
14446W        W29915   1.160  13.225   1.829  0.2774  0.2373  0.2662
14447W        W29916  16.643   3.858   3.028 -0.0233  0.0576 -0.0006
14448W        W29917   6.821   6.230   2.991  0.1037 -0.3549  0.2371
14449W        W29918   3.353  16.807   9.961  0.1125 -0.2124 -0.0892
14450W        W29919   1.029   6.587   4.326  0.1985 -0.4801 -0.0469
14451W        W29920   9.026   4.182  13.384  0.0143  0.1546  0.3329
14452W        W29921   0.326  12.391   3.889  0.0808  0.2684 -0.0487
14453W        W29922  15.843   1.600   4.019 -0.4080  0.0376 -0.0781
14454W        W29923   7.726   5.646   1.576 -0.0205  0.0023  0.3244
14455W        W29924  17.588   4.312   0.382 -0.1194 -0.2421 -0.0409
14456W        W29925  12.521   3.301   1.152  0.3663 -0.3285  0.1998
14457W        W29926   3.928   3.363  11.196 -0.2151  0.1088 -0.1580
14458W        W29927   8.941   9.112  13.585  0.0963  0.0533 -0.0477
14459W        W29928  13.273   3.439   3.350 -0.0795 -0.0425  0.1157
14460W        W29929   3.893  15.945   3.087 -0.0371 -0.0395  0.1383
14461W        W29930   5.714   7.644   3.922 -0.0508 -0.2714 -0.2208
14462W        W29931  17.809   9.902   9.972  0.1953 -0.0415  0.0917
14463W        W29932   2.825   7.023   1.242 -0.2015 -0.1136 -0.0070
14464W        W29933  18.424  12.689   4.775  0.1827 -0.2230  0.1540
14465W        W29934   7.229  13.163   1.444 -0.4094  0.0765  0.1260
14466W        W29935  14.887  17.252   3.709  0.0662 -0.1310 -0.0447
14467W        W29936  11.333   5.789   1.309  0.2099  0.3192  0.0908
14468W        W29937   4.069   6.902   2.534  0.1350  0.2297 -0.2620
14469W        W29938  13.292  13.777   1.064 -0.1230 -0.2569  0.2898
14470W        W29939  11.413  15.354   9.679  0.1594  0.5159 -0.0193
14471W        W29940  11.907   1.719   5.702 -0.0045 -0.3597  0.0827
14472W        W29941   9.188  17.065   1.355  0.1174  0.2675 -0.2069
14473W        W29942  10.275  17.827  15.233  0.2625  0.1934  0.0470
14474W        W29943   7.890   4.073   1.323  0.1398  0.0425  0.0062
14475W        W29944  13.920  11.579  10.988  0.0622 -0.0037  0.0528
14476W        W29945   5.904  10.730  15.320 -0.1913  0.1125  0.2874
14477W        W29946   5.460   4.233   1.593  0.0169  0.1193  0.0699
14478W        W29947   6.486   1.161  12.902  0.0032 -0.2426  0.2023
14479W        W29948  13.335   5.206   0.105 -0.1885  0.1354  0.0511
14480W        W29949   6.549  14.811   3.926  0.0782  0.2661 -0.2703
14481W        W29950   1.078   9.975  11.689 -0.2056  0.0593 -0.0920
14482W        W29951   3.660   0.589  10.855  0.1780 -0.2724 -0.1101
14483W        W29952   6.481  14.379   0.118  0.0544  0.0239  0.0788
14484W        W29953  12.235  16.088  13.810 -0.0279 -0.1395  0.0551
14485W        W29954  14.116   7.192   3.799 -0.3374 -0.2176 -0.5013
14486W        W29955  13.323   9.797  13.038 -0.1595 -0.0200 -0.0531
14487W        W29956   8.191   0.057  14.858 -0.0829 -0.2105 -0.1570
14488W        W29957  14.213  10.232   4.281 -0.1314  0.1287  0.0849
14489W        W29958  13.645   4.824  10.481 -0.1716  0.1681  0.0148
14490W        W29959   0.116   2.282   0.816  0.2794 -0.1578 -0.2138
14491W        W29960   4.152   2.117   2.965  0.3615 -0.1950 -0.2739
14492W        W29961  18.110   5.330   4.675  0.0841 -0.0605  0.0692
14493W        W29962  10.861  18.372  14.716  0.1462  0.0610  0.4440
14494W        W29963   7.667   6.487   1.604 -0.0867  0.2296 -0.1609
14495W        W29964   0.108  17.657  15.207 -0.1256 -0.2024 -0.0060
14496W        W29965  13.920  10.992  12.897  0.1255  0.1073 -0.1884
14497W        W29966   2.485   6.640  13.501 -0.0178  0.2030  0.1647
14498W        W29967  14.701  13.195   5.709  0.0329 -0.1860  0.2190
14499W        W29968  14.189  13.547   0.150 -0.2268 -0.2897  0.3291
14500W        W29969   3.653   1.639  11.489  0.1032 -0.0927 -0.0940
14501W        W29970   1.379   9.596   1.566 -0.1607  0.1046 -0.1140
14502W        W29971   6.242  15.233  10.309  0.1227  0.0489  0.2928
14503W        W29972   5.335   9.509  13.462 -0.0484  0.0710  0.2168
14504W        W29973   6.365  10.052   3.400 -0.0506 -0.2119 -0.1786
14505W        W29974   1.682   9.529  15.805 -0.0961 -0.1945 -0.2786
14506W        W29975   2.312  14.895   3.891 -0.0729  0.3313  0.1554
14507W        W29976  14.299   4.350  12.060  0.3306 -0.0313 -0.1935
14508W        W29977   4.435  17.072  14.016 -0.0208  0.1977 -0.1108
14509W        W29978   1.558   5.378  13.255 -0.2130 -0.0786 -0.1520
14510W        W29979   8.631   1.853  11.012  0.0612  0.2707 -0.2004
14511W        W29980  11.830   8.878   3.885 -0.0647 -0.0721 -0.1023
14512W        W29981   7.618   4.842  11.496 -0.1954  0.0023  0.1921
14513W        W29982  17.276  14.881  15.885  0.0329 -0.2257  0.0462
14514W        W29983   5.399   1.749   1.445  0.0731 -0.0386  0.0591
14515W        W29984  16.510  12.170  13.613  0.0477 -0.1165 -0.1027
14516W        W29985   2.421  13.247  15.499  0.3063 -0.1651  0.0447
14517W        W29986  17.061  11.469   0.527  0.3018  0.0287  0.2433
14518W        W29987   4.213   6.507   1.429 -0.1053 -0.0514 -0.1639
14519W        W29988  16.486  16.905  15.039 -0.0937  0.0762  0.3347
14520W        W29989  16.832   5.222  12.975  0.1198 -0.0267 -0.1912
14521W        W29990  13.433  12.157  10.654  0.0084 -0.1710  0.0782
14522W        W29991  16.866   8.321  11.427  0.0775 -0.0634  0.0295
14523W        W29992  12.175   4.102  11.889 -0.1795  0.1557  0.0030
14524W        W29993   4.674  11.791   3.795 -0.1938  0.1630 -0.2215
14525W        W29994   0.411  16.086   2.921 -0.4981 -0.0365  0.0788
14526W        W29995  17.936   6.044  11.307  0.0283 -0.0413 -0.3389
14527W        W29996   4.334  13.009  13.627 -0.3222 -0.2296  0.0870
14528W        W29997   9.470   2.306  11.772 -0.0438  0.1067 -0.1761
14529W        W29998   9.878  15.849  10.309 -0.2963 -0.0749  0.0100
14530W        W29999   4.961  12.858  12.298 -0.2144  0.1391 -0.1061
14531W        W30000   8.011  16.953  12.564 -0.2177 -0.1971  0.0003
14532W        W30001  12.267   1.297  10.718  0.0346 -0.3398 -0.1340
14533W        W30002  11.488   9.393  13.643  0.0309  0.0616  0.1288
14534W        W30003   9.060  16.024  12.153  0.0652  0.3007 -0.0256
14535W        W30004   4.501  17.945   0.357  0.2744 -0.0472 -0.0312
14536W        W30005   9.206   5.762  10.970  0.2230 -0.0903 -0.1443
14537W        W30006   8.308   3.626   1.095 -0.0765  0.0207  0.0900
14538W        W30007  17.101   0.762   5.934  0.1187  0.0256  0.1048
14539W        W30008   0.849  12.875   2.466 -0.1987 -0.5011 -0.1006
14540W        W30009  16.738   2.380   3.455 -0.0096 -0.1326  0.2513
14541W        W30010   3.217   0.205   0.267  0.0011 -0.0529  0.0564
14542W        W30011  17.844   8.602  15.311 -0.0865 -0.2250  0.0394
14543W        W30012   5.643   9.242   4.080 -0.0527 -0.1545 -0.1021
14544W        W30013   9.933   2.724  13.601  0.3267  0.5028  0.3465
14545W        W30014   2.310  17.239  11.405  0.3401  0.1190 -0.0141
14546W        W30015  10.827   3.319   2.960 -0.0963 -0.0722  0.0316
14547W        W30016   8.367   4.928   4.930 -0.0331  0.2101 -0.0620
14548W        W30017   1.326  18.045  15.008 -0.0259  0.0052  0.1882
14549W        W30018  12.918  18.071  15.496 -0.1813  0.1270 -0.2390
14550W        W30019  12.397  13.025  14.115 -0.1032  0.0758 -0.3971
14551W        W30020  13.091  10.863  12.595  0.0535  0.0823  0.2900
14552W        W30021  18.100   3.042   5.690 -0.1502 -0.2280 -0.0084
14553W        W30022   7.465  14.044   3.635 -0.1455  0.0648  0.0475
14554W        W30023   5.337   3.776   0.108 -0.0542  0.1889 -0.1423
14555W        W30024   7.774  12.805  15.230  0.0901 -0.0348  0.1508
14556W        W30025  11.215   8.984   1.450  0.2314  0.0264 -0.1194
14557W        W30026   7.788  17.934  11.297  0.2373 -0.1020  0.1886
14558W        W30027  13.347   6.600   4.639 -0.0748 -0.0363  0.1141
14559W        W30028   1.653   0.035   5.292  0.2442 -0.2244  0.2300
14560W        W30029   0.027   2.659   1.995 -0.1643  0.0705 -0.1073
14561W        W30030   6.810   1.878  14.897  0.0109 -0.1372 -0.2295
14562W        W30031  17.790   4.280   3.915  0.3145 -0.4726 -0.0289
14563W        W30032   2.000   2.463  15.648  0.2391 -0.0348 -0.0682
14564W        W30033   0.258  12.279  11.041  0.1399  0.1723 -0.2117
14565W        W30034   5.705   3.502  12.230  0.1642 -0.3325  0.0461
14566W        W30035   1.562  16.697   3.834  0.0047  0.1395 -0.0288
14567W        W30036  15.533   6.615  12.073 -0.0870 -0.0979  0.2426
14568W        W30037   1.379  10.740   5.182 -0.1024  0.4435 -0.2848
14569W        W30038  13.448   1.464   5.279 -0.0654  0.0380 -0.1954
14570W        W30039   8.124   3.209   3.453  0.0850 -0.0341  0.1321
14571W        W30040  17.352   3.683   3.352 -0.0014 -0.2269  0.0532
14572W        W30041   1.393   3.552  13.343 -0.1124 -0.0135 -0.1232
14573W        W30042   7.555  11.549  15.091 -0.0268 -0.0725 -0.0238
14574W        W30043   2.835  17.813   2.661 -0.3305  0.1798 -0.0526
14575W        W30044  17.512   8.461  14.262  0.2898 -0.1878 -0.0179
14576W        W30045   2.119   5.330   4.287 -0.0619 -0.0583 -0.1903
14577W        W30046   6.781   1.061  12.524  0.1065 -0.0051  0.2354
14578W        W30047   8.184   8.983   4.727 -0.1143  0.4086  0.3849
14579W        W30048  15.578  11.592   3.901  0.1219  0.0608  0.3241
14580W        W30049   0.585   2.950   5.363  0.3348  0.2654 -0.1777
14581W        W30050  17.739  16.904   1.092  0.1278 -0.1276  0.0797
14582W        W30051   1.823   8.653   1.655 -0.0111 -0.0588  0.0812
14583W        W30052  16.496  14.454   5.532  0.0708  0.2124  0.0195
14584W        W30053   6.194   2.779  11.197 -0.0211  0.2240 -0.0102
14585W        W30054   4.564  17.827  14.623  0.0687 -0.3570  0.0343
14586W        W30055   3.115   0.429  10.954  0.0725 -0.0212  0.0635
14587W        W30056  14.558   3.129   5.468  0.0200 -0.0267  0.3050
14588W        W30057   9.798   2.423   1.145  0.3530 -0.1721 -0.1553
14589W        W30058   1.754  10.088  11.502 -0.2711 -0.3602 -0.1109
14590W        W30059   2.710  12.062   2.722 -0.2448 -0.2110  0.2243
14591W        W30060   7.677  17.846  14.825  0.0967 -0.0435  0.0719
14592W        W30061  13.434  10.315  13.927 -0.1431 -0.0950 -0.0509
14593W        W30062  12.946   7.610  14.172 -0.0315 -0.0279 -0.1068
14594W        W30063  17.435   4.672   3.788 -0.1433 -0.1152  0.2426
14595W        W30064   1.974   8.192   5.223  0.1494  0.1151  0.5567
14596W        W30065  18.064  14.488   1.095 -0.2307  0.2809 -0.1624
14597W        W30066  13.823  16.370  13.614 -0.2283 -0.0757  0.4665
14598W        W30067  10.030   9.545   4.190 -0.1037  0.2950  0.1015
14599W        W30068   7.494  11.667   3.220  0.1994 -0.0158  0.0208
14600W        W30069   2.774   9.794   4.523 -0.2780 -0.1945  0.1011
14601W        W30070   1.330  16.968   0.816  0.0403 -0.0688 -0.0784
14602W        W30071   5.104   7.109  14.654 -0.0018  0.1164  0.0873
14603W        W30072   6.659   2.140  14.040 -0.0182  0.1669  0.2402
14604W        W30073  16.693   0.358   3.657  0.1040 -0.0740  0.1467
14605W        W30074   0.930   5.220  11.658  0.0763  0.0676 -0.0031
14606W        W30075  10.724  17.019  13.013 -0.1982 -0.2257 -0.0073
14607W        W30076   6.345  15.241  15.647 -0.0079  0.2008  0.0134
14608W        W30077  13.899  15.481   2.972  0.2273 -0.2160  0.0679
14609W        W30078   0.131  12.823  11.777  0.1363  0.2241  0.0404
14610W        W30079   6.521  15.303  11.194 -0.0212  0.3231 -0.0862
14611W        W30080   1.276  11.333  12.481  0.2175  0.3983 -0.2507
14612W        W30081   8.966  12.936  14.079  0.1868  0.0941 -0.0410
14613W        W30082   0.372   3.157   3.645 -0.0767  0.0920 -0.2740
14614W        W30083   8.356  14.280  15.194  0.2620 -0.3622  0.1804
14615W        W30084  10.743  10.020   5.274 -0.1651  0.0959  0.0778
14616W        W30085   2.574   4.760   2.484 -0.1608  0.1655 -0.1146
14617W        W30086  17.244  17.848   5.911  0.1120 -0.3281  0.3076
14618W        W30087  14.963   3.969   0.914  0.0786  0.1017 -0.2689
14619W        W30088  10.476  13.591  11.048  0.1192  0.1943 -0.1790
14620W        W30089   6.238  14.112  12.174  0.2688  0.1299  0.0209
14621W        W30090  13.412   2.572  13.696 -0.2114  0.1469  0.3072
14622W        W30091   8.821  10.161  15.226  0.2291 -0.0773 -0.3513
14623W        W30092   2.493  10.572  14.635 -0.1854  0.1476  0.2738
14624W        W30093  16.364   4.784  12.269  0.3013  0.1558 -0.0150
14625W        W30094   3.109  16.626   1.534  0.1955  0.0133 -0.2433
14626W        W30095  14.851   4.418   0.922  0.0348 -0.0043  0.2199
14627W        W30096  15.460   9.472  11.163  0.1558  0.0884 -0.0937
14628W        W30097   7.803   0.178  15.585 -0.1513 -0.2410 -0.0151
14629W        W30098   1.368   0.339  15.994  0.0434 -0.0279 -0.1841
14630W        W30099   9.482   8.934   1.202  0.2940 -0.0609  0.2617
14631W        W30100   8.085   5.215   4.634 -0.1586  0.0957  0.0913
14632W        W30101  16.626   5.112  12.466  0.0495  0.0980 -0.0977
14633W        W30102  14.614  11.072  14.604 -0.1033  0.3944  0.2493
14634W        W30103   8.920   9.226  14.051  0.0182  0.1332 -0.0425
14635W        W30104   6.651  12.577  15.920  0.0759 -0.0464  0.2762
14636W        W30105  17.002   0.069   3.263  0.1051 -0.1209 -0.2247
14637W        W30106  10.695  17.038   0.940  0.2283 -0.0254  0.3902
14638W        W30107   0.502   7.325  11.925 -0.2939 -0.3929  0.0646
14639W        W30108   4.043   6.551  10.837  0.0837  0.2641 -0.0907
14640W        W30109  13.950   0.856  12.490  0.3057 -0.1516  0.1184
14641W        W30110   4.629  12.921  11.949 -0.0576 -0.4075 -0.0172
14642W        W30111   8.170   3.266   1.423 -0.0851  0.3352  0.1222
14643W        W30112  12.192  12.509  11.792 -0.1372 -0.0646 -0.2088
14644W        W30113   8.180  18.113  10.862  0.0312  0.2503 -0.3003
14645W        W30114   4.072   8.898   5.220 -0.1115 -0.2413  0.0724
14646W        W30115   8.878  17.669  15.666 -0.0778 -0.1995  0.0688
14647W        W30116   7.201   8.914  15.629 -0.2745  0.1138  0.2169
14648W        W30117   9.438  14.079   2.695 -0.2074 -0.4406 -0.0150
14649W        W30118  15.626  17.552   1.491 -0.1060  0.2501  0.2226
14650W        W30119   6.783   4.320   3.446  0.1463 -0.1067 -0.0490
14651W        W30120   4.550   9.947  13.935  0.1898 -0.1929 -0.0275
14652W        W30121   4.427   2.325   2.209  0.1408  0.0531 -0.1709
14653W        W30122   9.952   5.589  15.933  0.2014 -0.1337 -0.1045
14654W        W30123  16.276  16.665   5.812 -0.0349  0.0491  0.2261
14655W        W30124   5.545  13.446   3.178 -0.1915 -0.1158  0.1101
14656W        W30125   7.078   0.397  11.306  0.1562 -0.3145  0.1365
14657W        W30126   5.529   2.812   0.375 -0.0421  0.0898  0.0547
14658W        W30127  10.220   2.387   2.291 -0.0704  0.1919  0.1325
14659W        W30128   1.211   5.864   4.547 -0.0556 -0.0227  0.3398
14660W        W30129  14.960  10.108   0.218 -0.3417 -0.1287  0.0544
14661W        W30130   4.758   2.537   5.758 -0.0026 -0.4562 -0.1898
14662W        W30131  11.815   2.255  11.664 -0.3361 -0.1299  0.3079
14663W        W30132   5.226   2.912  13.528 -0.0590  0.2256  0.1412
14664W        W30133  13.190  13.328   2.705  0.2874 -0.0080 -0.0407
14665W        W30134   9.659  10.850  14.605 -0.2532 -0.2268  0.0979
14666W        W30135  17.440   2.453   5.314  0.3673 -0.2776  0.3433
14667W        W30136   5.232   9.849  12.443 -0.0193  0.1224  0.2342
14668W        W30137   5.242   2.330  13.663  0.3010  0.1469 -0.0218
14669W        W30138  13.522   7.595   1.878 -0.0536 -0.1756  0.6540
14670W        W30139  14.522   3.972   6.032 -0.2827 -0.1596  0.0251
14671W        W30140   2.380   8.323   2.198  0.0558 -0.3078  0.2319
14672W        W30141   0.620   6.663   4.649  0.1801 -0.1582  0.3424
14673W        W30142  16.872  17.282  10.135  0.2567  0.1940 -0.1133
14674W        W30143  16.004  14.703   1.129  0.0891 -0.1554 -0.0590
14675W        W30144  12.475  16.971  12.646 -0.1744  0.1667 -0.0533
14676W        W30145   5.254  17.732  10.602  0.1668  0.0166  0.1985
14677W        W30146   0.020   7.501  10.824  0.0895  0.1351 -0.1070
14678W        W30147   4.617  10.340   3.358  0.0954 -0.1279  0.1569
14679W        W30148   6.172  11.195   3.360  0.0938  0.1885 -0.1390
14680W        W30149  14.154  15.722   9.634 -0.0151 -0.1971  0.1797
14681W        W30150  17.892  18.140  14.835 -0.2691 -0.1756  0.5304
14682W        W30151  11.830   4.847  14.954 -0.1066  0.2457 -0.1571
14683W        W30152   0.648  15.041  15.024  0.1470 -0.0439  0.0236
14684W        W30153   8.314   8.834   1.026  0.1015 -0.1808 -0.2563
14685W        W30154   6.246   6.575   3.859  0.0920  0.1129 -0.1498
14686W        W30155   7.648  14.020  10.987  0.1812  0.1622 -0.2392
14687W        W30156   4.372   7.493  14.661  0.0646  0.4897  0.3799
14688W        W30157   3.460   1.837  11.000 -0.0873  0.0891  0.3793
14689W        W30158   1.293  10.711   1.795  0.2814  0.0846 -0.2453
14690W        W30159  15.468   0.745  14.684 -0.0077  0.2872 -0.0832
14691W        W30160   3.060   2.816  11.916 -0.0239  0.0046 -0.0774
14692W        W30161  11.865  12.769  11.367  0.5478  0.0094  0.1256
14693W        W30162   8.457   8.076   1.643  0.2779  0.0317 -0.0176
14694W        W30163   1.008  17.251   5.342  0.0533  0.0096  0.1895
14695W        W30164  11.323  11.763   3.066 -0.0130  0.0468 -0.1187
14696W        W30165   0.212   0.200   3.359  0.1863  0.3155 -0.3106
14697W        W30166   2.272  15.402  12.398  0.2151  0.1500 -0.1236
14698W        W30167  15.183  15.126  14.991  0.1531 -0.0650 -0.1067
14699W        W30168   7.855  14.048   0.033  0.0399 -0.2485 -0.0250
14700W        W30169   8.967  15.313  15.855  0.2679  0.0369  0.1200
14701W        W30170   9.572  18.337   3.331  0.3511 -0.0924 -0.1264
14702W        W30171  16.354   8.458   0.304 -0.1122  0.1785 -0.1051
14703W        W30172   1.419  18.275   0.578  0.1393  0.0365  0.1301
14704W        W30173   2.078   5.710   5.185  0.0138  0.0193 -0.0342
14705W        W30174   0.353  11.967  13.601  0.0146  0.0315  0.0831
14706W        W30175  13.016  11.657  14.435  0.3012 -0.3651 -0.4262
14707W        W30176  10.780   6.810   3.150  0.1393  0.2429 -0.3147
14708W        W30177   9.550  16.750  11.632 -0.2395 -0.1191 -0.0356
14709W        W30178   0.071  14.857   2.935  0.4943 -0.2111 -0.1887
14710W        W30179   3.145  13.099   5.342 -0.1260 -0.1621  0.0735
14711W        W30180   8.697  18.331   3.791  0.1727  0.4173  0.1306
14712W        W30181  18.145   4.988  14.343  0.3521 -0.0793 -0.1824
14713W        W30182  14.055   4.493   4.514  0.0204  0.0017 -0.2097
14714W        W30183   8.393  10.744  12.243  0.0605 -0.0103 -0.0513
14715W        W30184   8.365   6.197   0.747 -0.3759 -0.0702  0.0262
14716W        W30185   9.784  14.225  11.550  0.0778  0.2632  0.1212
14717W        W30186   1.796   3.314  13.496  0.1369  0.0602  0.1460
14718W        W30187  15.293   6.512   4.120 -0.2912 -0.0351  0.2575
14719W        W30188   7.964   3.329  11.982  0.2373 -0.0460  0.2977
14720W        W30189  16.845  16.381  11.530  0.1817  0.1307  0.0880
14721W        W30190  15.362  11.980  13.583  0.1107  0.2102  0.0840
14722W        W30191  14.750  18.102  12.569 -0.0987  0.0722  0.0857
14723W        W30192  12.540  17.005  14.787 -0.1831  0.0571  0.1454
14724W        W30193   6.342   9.083   5.062 -0.0890  0.0522 -0.4568
14725W        W30194   5.244  15.380   0.540 -0.2668  0.3271  0.2405
14726W        W30195  12.773   1.709  13.032 -0.1137 -0.1119  0.0859
14727W        W30196  14.213  16.900   3.080  0.0743 -0.1596  0.0077
14728W        W30197   6.769  16.450  13.193  0.1006 -0.3096  0.1759
14729W        W30198  18.001  14.741   2.651  0.0699 -0.1598  0.0598
14730W        W30199  17.888  17.346   0.860 -0.1154  0.2134  0.0031
14731W        W30200  15.587   8.108  15.293  0.1247  0.1373 -0.1704
14732W        W30201   8.126   6.402  11.495 -0.0459 -0.2772 -0.0062
14733W        W30202  18.348   7.881   5.650  0.1821 -0.1963 -0.0937
14734W        W30203  17.350   1.340   1.082  0.2017  0.0780 -0.3017
14735W        W30204   8.274   4.664   2.033 -0.1272 -0.0086 -0.2992
14736W        W30205   6.887  17.146  14.804 -0.0891  0.0816 -0.0908
14737W        W30206   0.249   4.391   5.213  0.0133  0.0533  0.0888
14738W        W30207  12.728   7.929   1.931  0.1521  0.3750  0.2784
14739W        W30208  14.091  16.184  14.551 -0.3256  0.1041  0.1400
14740W        W30209  14.060   9.061   2.342 -0.2430 -0.0801 -0.2161
14741W        W30210   2.561   1.240  12.678  0.1515  0.0365 -0.1465
14742W        W30211   2.422  12.617  12.952 -0.1510  0.1336  0.0759
14743W        W30212  11.726  14.173  14.906  0.2055 -0.1545  0.2998
14744W        W30213  13.957  16.273   1.658  0.0809  0.0162 -0.1013
14745W        W30214   3.136   4.092  15.378 -0.0993 -0.0538 -0.0555
14746W        W30215   6.198   8.822  14.951  0.1074  0.2283 -0.0831
14747W        W30216  11.779  15.206  15.805  0.1235  0.1067  0.2403
14748W        W30217  15.785   2.859  13.713 -0.0355  0.1583 -0.3090
14749W        W30218   2.582  17.496   1.059  0.1727  0.0470 -0.0681
14750W        W30219  17.419  14.899  13.915  0.0031  0.0998  0.1272
14751W        W30220  13.999   4.463   3.345 -0.2118  0.1113  0.1052
14752W        W30221  12.697   4.209   3.973  0.2322  0.0615  0.0143
14753W        W30222  10.873  16.197  13.823 -0.2684 -0.1996 -0.1310
14754W        W30223   8.786   2.457   1.045 -0.0776  0.1347  0.2016
14755W        W30224   6.349   2.567   3.728  0.1948 -0.2230 -0.0564
14756W        W30225   6.920   6.810  11.575  0.0380 -0.0375  0.0395
14757W        W30226   4.807  18.408  14.748  0.4479 -0.2018 -0.0093
14758W        W30227  13.166   7.324   3.480 -0.2098 -0.1280 -0.1374
14759W        W30228   4.758   9.818  14.387 -0.3654  0.0781  0.1500
14760W        W30229  11.897   1.217  13.420 -0.1595  0.1643  0.1106
14761W        W30230  14.590  11.111   5.152 -0.0380 -0.1248 -0.1323
14762W        W30231   2.725  14.004   3.099 -0.2195 -0.3380 -0.0181
14763W        W30232  15.572   0.524  15.961 -0.0536  0.0254 -0.1390
14764W        W30233  16.878   2.689   0.898  0.0880 -0.0969  0.1570
14765W        W30234   6.668   7.694  15.709 -0.0414  0.5513  0.3040
14766W        W30235   4.950  15.604   5.278  0.0650 -0.0863  0.1473
14767W        W30236  10.108  18.314  12.096 -0.0493 -0.3976  0.0800
14768W        W30237   7.493   8.713   2.085 -0.3425  0.0806 -0.3719
14769W        W30238  18.224   4.608  13.455 -0.1900 -0.0013 -0.2203
14770W        W30239   4.666   7.002  12.129 -0.2684 -0.0325  0.2848
14771W        W30240   9.848  13.960  11.083  0.0807  0.0098 -0.0276
14772W        W30241  15.849  17.972   2.304 -0.0049  0.0896  0.0867
14773W        W30242   3.049  11.169   1.490  0.1184 -0.1248 -0.0928
14774W        W30243  11.101  18.315   4.810  0.0618 -0.0250 -0.4694
14775W        W30244   8.163   0.268  12.049 -0.0800  0.1562  0.0010
14776W        W30245   4.900   5.383  11.859 -0.0258  0.0931  0.0126
14777W        W30246   8.264  11.010   3.207 -0.3757  0.0543 -0.1172
14778W        W30247   4.545   1.620   0.305  0.2295 -0.4208 -0.1352
14779W        W30248  14.826   3.334   3.472  0.1863 -0.1833 -0.1382
14780W        W30249   1.400  14.449  14.249 -0.0762  0.1711  0.4094
14781W        W30250  14.670   0.068   4.807 -0.0756  0.1101  0.2426
14782W        W30251  16.098  16.491  15.958 -0.4354  0.0686 -0.2465
14783W        W30252  10.361   8.992  10.972 -0.0456 -0.3309 -0.0337
14784W        W30253   6.606   2.120   2.952  0.0557 -0.2446  0.0269
14785W        W30254   5.242   9.891  13.143  0.0331  0.2116 -0.0939
14786W        W30255   5.714  10.360   6.074 -0.1872  0.1124 -0.0616
14787W        W30256  15.354   6.089   5.078 -0.2641  0.0884  0.0110
14788W        W30257   2.869  15.095   0.673 -0.1515 -0.1320 -0.0817
14789W        W30258   1.866   0.097   1.806  0.2233 -0.0137  0.1947
14790W        W30259  10.106  12.244  11.960  0.4503  0.0070 -0.0054
14791W        W30260   1.729  16.725  14.981  0.2695  0.2629  0.2863
14792W        W30261   5.182   1.229  14.653 -0.0479  0.0144 -0.2990
14793W        W30262  16.124   4.710  14.761  0.1004 -0.0225 -0.2506
14794W        W30263  12.261  12.419  15.932 -0.1095 -0.0090  0.1192
14795W        W30264   3.221  17.625  14.510  0.2317  0.1220  0.3100
14796W        W30265   6.578  13.631  10.958  0.0025  0.3113  0.3754
14797W        W30266   4.780  11.189  11.679 -0.1458  0.1660 -0.0259
14798W        W30267   4.978  12.131  11.729  0.3532 -0.0158 -0.1016
14799W        W30268   8.889   7.651   1.487 -0.1115 -0.0725 -0.1306
14800W        W30269  11.154  13.196   1.062 -0.3077  0.0845  0.0177
14801W        W30270  15.222   4.888  15.864  0.1071  0.0735  0.2041
14802W        W30271  14.307   2.273  15.931  0.0467 -0.3097 -0.0218
14803W        W30272   6.102   1.356  13.969  0.0442 -0.0440  0.3057
14804W        W30273  14.123  12.774  13.923 -0.3256 -0.1987 -0.2596
14805W        W30274  12.226  11.889  15.403 -0.0411 -0.2371 -0.5085
14806W        W30275   9.920   0.831   5.145  0.0415  0.0493 -0.0207
14807W        W30276  18.185   8.011   4.069 -0.1472  0.1067  0.0897
14808W        W30277   6.807   1.915   1.196  0.0468 -0.2736  0.0198
14809W        W30278   3.518  17.878   2.019  0.1899 -0.1119 -0.2459
14810W        W30279  13.687   7.312   1.145  0.0149 -0.0291  0.2119
14811W        W30280  14.990  14.484   3.965 -0.2394  0.3100 -0.0814
14812W        W30281   1.453   8.569   2.470  0.2675 -0.0154  0.1691
14813W        W30282   8.781   8.492  14.302 -0.2121  0.2653 -0.2688
14814W        W30283   4.640   1.793  11.699 -0.0476 -0.3458 -0.2922
14815W        W30284   0.389   1.465  11.489 -0.0349 -0.0947  0.2608
14816W        W30285   0.145   2.820   5.707 -0.1718 -0.0578  0.2680
14817W        W30286  11.894   3.076   3.106 -0.1197  0.0272 -0.1632
14818W        W30287  16.347  10.900   1.466 -0.0389  0.0995 -0.1134
14819W        W30288  15.519  11.223  13.184  0.1508 -0.0030  0.0997
14820W        W30289  14.231   5.247  11.957  0.2193 -0.2209  0.0191
14821W        W30290  11.194  10.469   3.316  0.0602 -0.0311  0.0525
14822W        W30291  12.744   6.017  13.776 -0.3157  0.0879  0.2664
14823W        W30292   6.817   2.295   1.548  0.1904 -0.2616  0.0685
14824W        W30293  17.622  11.495   4.636 -0.7015  0.1348  0.0756
14825W        W30294   9.689   6.757  13.482  0.0029 -0.0342  0.0429
14826W        W30295  16.456  10.870   1.944  0.1644  0.0091 -0.1292
14827W        W30296   8.576   8.323   0.255 -0.2722 -0.1349  0.0434
14828W        W30297   4.015  13.519   5.555  0.1219 -0.3636 -0.1737
14829W        W30298   4.881  12.319  14.840 -0.1738  0.3785  0.0522
14830W        W30299   3.934   7.542   4.940 -0.0665  0.0023  0.2450
14831W        W30300  11.915  10.465  12.802 -0.0432  0.1810 -0.1473
14832W        W30301   2.377  14.254  15.744  0.1696  0.1088 -0.0684
14833W        W30302   2.105  11.411  12.935 -0.1427  0.1826  0.0606
14834W        W30303  11.553  17.695   2.303 -0.3098 -0.1897 -0.1666
14835W        W30304   9.289   8.760  11.744 -0.1943  0.1053  0.0751
14836W        W30305  12.903  14.292  13.642  0.0869 -0.0604  0.0178
14837W        W30306  13.100   3.503  11.779 -0.0346 -0.0692  0.0576
14838W        W30307   4.805  15.832  11.004  0.0522  0.0675  0.1530
14839W        W30308  10.950  11.174   5.112 -0.3156  0.0496  0.0672
14840W        W30309  15.142   9.491  13.374 -0.4295 -0.0818  0.0122
14841W        W30310  11.403   7.201   4.093 -0.0060 -0.1862 -0.2854
14842W        W30311  17.068  10.547   0.679 -0.2157  0.1070 -0.1196
14843W        W30312   8.866  11.377  12.831 -0.1386  0.2196  0.1045
14844W        W30313  13.947   0.653   5.670  0.0037 -0.1049 -0.0077
14845W        W30314  18.341  17.911  15.706 -0.1289  0.2788 -0.1384
14846W        W30315  10.192  18.337  10.029 -0.0749  0.0048  0.0759
14847W        W30316  14.485  14.077   0.554 -0.2164  0.0797  0.3564
14848W        W30317   9.947   1.269   3.038 -0.1911  0.0828 -0.1682
14849W        W30318   7.222   5.002   6.419  0.0910 -0.1821  0.1969
14850W        W30319  10.161  11.920   0.043  0.0243 -0.0107 -0.1025
14851W        W30320  18.309   7.133  14.310 -0.0706  0.3841 -0.2865
14852W        W30321  18.129   7.664  11.502  0.0909 -0.3404  0.1008
14853W        W30322   6.416  11.516  13.844  0.2254  0.0125  0.3540
14854W        W30323   5.922   6.169  13.835 -0.1297  0.0953  0.0474
14855W        W30324   5.689  16.565  11.314 -0.0758  0.1689 -0.0181
14856W        W30325   4.986   0.575  12.082  0.0849  0.1307  0.2808
14857W        W30326   0.477   0.151   1.948 -0.2001 -0.0869 -0.0522
14858W        W30327   6.385   5.581  11.456 -0.0090  0.3258  0.2075
14859W        W30328  10.951   2.789   1.898 -0.1759 -0.3899 -0.1217
14860W        W30329  17.131  14.759  15.000  0.0377 -0.2513  0.0121
14861W        W30330   4.479  10.572   4.940  0.1173 -0.1264 -0.1751
14862W        W30331   6.160  10.525  11.598 -0.0655 -0.0329  0.2330
14863W        W30332  16.006  16.507  11.795  0.2544 -0.1775  0.0537
14864W        W30333   1.730  15.087   1.555  0.1399 -0.2393 -0.1906
14865W        W30334   5.328   7.525   3.193 -0.2228 -0.0178 -0.1504
14866W        W30335   7.217  11.383   4.232 -0.2240 -0.1554 -0.0450
14867W        W30336  12.618  17.588  13.824 -0.1038 -0.1458  0.1089
14868W        W30337  10.292   2.655  14.354  0.0351 -0.1166  0.0755
14869W        W30338   5.353   0.391   0.160 -0.1240  0.1184  0.2896
14870W        W30339  17.848   9.249   2.358 -0.0682 -0.1316  0.0607
14871W        W30340   7.365   8.068   5.214 -0.0110 -0.1031 -0.1660
14872W        W30341  16.150  13.967   3.208  0.0718  0.2111  0.0850
14873W        W30342  15.409  10.982   4.581 -0.0872 -0.1168  0.2593
14874W        W30343  14.719   0.596   5.820 -0.2169  0.0878  0.1184
14875W        W30344  11.531   7.551  15.698  0.1254 -0.0969  0.0690
14876W        W30345   6.424   6.743   1.166  0.1955 -0.0413  0.0049
14877W        W30346   8.634  18.014   3.335 -0.3302 -0.1268  0.1731
14878W        W30347  13.147   0.483   3.807 -0.1935  0.1335 -0.1052
14879W        W30348  12.268  16.424   0.764 -0.1511  0.1291  0.4231
14880W        W30349  13.661   1.483   2.930 -0.2191  0.1292 -0.1780
14881W        W30350   5.428   8.228  12.910  0.1094 -0.0463 -0.3791
14882W        W30351  17.590  11.735   0.905 -0.1274  0.0010  0.0459
14883W        W30352   2.523   3.403   0.468  0.0432  0.1679 -0.0598
14884W        W30353  18.104  14.254  13.320 -0.2900 -0.1453  0.2661
14885W        W30354  11.523  11.285   1.485 -0.2387  0.1961 -0.0069
14886W        W30355  13.497   6.777   4.058  0.0393 -0.0867  0.2281
14887W        W30356  11.113   8.368  13.170  0.3138 -0.0160 -0.2957
14888W        W30357   8.186   5.941   5.041 -0.2693  0.0008 -0.1940
14889W        W30358   0.038  11.773   3.457 -0.1954 -0.1102  0.2038
14890W        W30359   2.804  16.495   4.908 -0.1385  0.2118  0.2278
14891W        W30360   9.353   7.012  11.362  0.0753 -0.1481  0.1614
14892W        W30361  10.739  12.173  11.311  0.2512  0.2012  0.1303
14893W        W30362   4.376   2.793  12.629  0.0162  0.1733  0.0181
14894W        W30363   6.790   9.130   5.588 -0.0802  0.3197  0.1765
14895W        W30364  17.535   6.536   1.710 -0.2108  0.1235 -0.2282
14896W        W30365   0.199  17.715   0.149 -0.2000  0.2074 -0.1671
14897W        W30366   5.667   5.583  11.021 -0.1060  0.0638  0.0904
14898W        W30367   6.935  13.612  14.003  0.1075  0.5363 -0.0051
14899W        W30368  10.326   1.685   2.710 -0.2581 -0.3274  0.0902
14900W        W30369   2.239  12.637  13.570 -0.2526  0.1567  0.2408
14901W        W30370   5.055  15.047  14.231 -0.2972 -0.0258 -0.2388
14902W        W30371   6.748  10.230   0.961 -0.0753 -0.2576 -0.2420
14903W        W30372   2.764  10.566  13.395 -0.3150 -0.0336  0.2505
14904W        W30373  13.254  17.087   2.925  0.2694 -0.0597 -0.2403
14905W        W30374   0.508  15.841  14.163 -0.0465 -0.0566  0.2478
14906W        W30375   2.381   6.461  12.571 -0.1496 -0.4075  0.0732
14907W        W30376  12.743   0.562  11.064 -0.0287  0.0050 -0.1798
14908W        W30377  17.673   7.181   2.435 -0.3771 -0.2087 -0.1351
14909W        W30378   3.423  11.332   2.431  0.1241 -0.5452 -0.3576
14910W        W30379   6.623   5.530   1.784  0.3329 -0.1947 -0.1435
14911W        W30380   7.439  16.967   2.699 -0.0486 -0.1592 -0.0649
14912W        W30381   3.017  14.272  13.592 -0.0507  0.1613 -0.0322
14913W        W30382  12.989   5.029  13.898  0.0409  0.1189 -0.1921
14914W        W30383  16.104   0.974  14.099  0.2068 -0.1035  0.0555
14915W        W30384  12.208  16.712   1.539  0.1330 -0.3571  0.0240
14916W        W30385  16.149   7.957  12.892 -0.0142 -0.2734  0.0235
14917W        W30386   6.960   8.915   1.295  0.1801  0.0557  0.0326
14918W        W30387  10.563   1.257  11.896 -0.4572 -0.0770  0.1274
14919W        W30388  17.076   6.060  12.763  0.0603  0.1345  0.2411
14920W        W30389  10.713   4.585   4.879  0.0199 -0.0978  0.0814
14921W        W30390   4.258  14.759  15.916  0.0009  0.1963  0.3391
14922W        W30391   2.665   3.206  11.834 -0.0727  0.0401 -0.2476
14923W        W30392   9.949   3.235   1.647 -0.1696 -0.0844 -0.1254
14924W        W30393  14.345   9.548   2.351 -0.0027  0.0554  0.1977
14925W        W30394  17.624  17.660   4.762  0.0910 -0.2158 -0.2856
14926W        W30395   2.602   3.433   2.033  0.0240 -0.0275  0.0577
14927W        W30396   5.978   4.682  14.722 -0.2446  0.1305  0.0835
14928W        W30397   7.614   2.342   9.732  0.2064 -0.2284 -0.1163
14929W        W30398  18.226   6.780  12.067  0.3646 -0.1618  0.2481
14930W        W30399  17.875  11.310  14.494  0.1220 -0.4245 -0.0302
14931W        W30400  15.563  17.925   2.753  0.0643 -0.1882 -0.2238
14932W        W30401   4.540  10.930  12.003  0.2485  0.0669  0.1097
14933W        W30402  16.824   2.623  12.894  0.0353 -0.2798  0.3904
14934W        W30403   0.486   3.444  11.684 -0.1721  0.0836 -0.1370
14935W        W30404  18.259  10.866  14.195 -0.2818 -0.3175  0.2399
14936W        W30405   5.004   1.692   0.398 -0.2491  0.0681 -0.1253
14937W        W30406  12.885   4.223  12.165  0.0042 -0.3856 -0.0888
14938W        W30407   0.449  12.844  13.243 -0.1275  0.1066 -0.0700
14939W        W30408  13.394  15.678  11.316  0.0852  0.1219 -0.1702
14940W        W30409   8.659  12.549  15.488 -0.0158 -0.0087  0.0489
14941W        W30410   9.946   4.634   0.253  0.0043 -0.3384 -0.1170
14942W        W30411   1.290  11.890  13.769 -0.1147  0.1827 -0.4835
14943W        W30412   5.092  14.049   1.979 -0.1995 -0.3926 -0.0176
14944W        W30413   4.200  15.574   4.272  0.1787  0.1309  0.0859
14945W        W30414  12.783   9.067  13.270  0.0108  0.2091 -0.1385
14946W        W30415  13.904  15.691  11.167 -0.2532 -0.0579  0.0481
14947W        W30416   3.223  14.108   5.342  0.0221 -0.1817  0.0985
14948W        W30417  17.744  17.692   2.710 -0.0231 -0.0278 -0.0955
14949W        W30418   7.446   6.986   2.227  0.4288  0.1075 -0.2905
14950W        W30419   1.171  16.325   2.813 -0.1352  0.3383 -0.0931
14951W        W30420   5.081   0.874   4.383  0.2035  0.2067  0.0009
14952W        W30421  13.096   2.557  13.146  0.1684  0.1024  0.2097
14953W        W30422   3.493   5.932   3.704 -0.0707  0.0435 -0.1340
14954W        W30423   2.387  17.515  15.622  0.0491 -0.0307 -0.2123
14955W        W30424  11.279   5.290  13.286  0.0659 -0.0767 -0.1757
14956W        W30425  17.154   0.793  11.572  0.0780 -0.1138  0.1441
14957W        W30426   0.403  16.181  14.515 -0.1000 -0.1020 -0.0091
14958W        W30427  15.850  11.950  15.118  0.1639 -0.5197  0.1370
14959W        W30428   6.692   3.270   4.799  0.0027  0.0126 -0.0557
14960W        W30429  15.588   7.368   1.092 -0.1128 -0.0655 -0.1123
14961W        W30430  15.334   5.249   0.782 -0.1214  0.0378 -0.1501
14962W        W30431   8.025  15.679  14.288 -0.5132 -0.0347 -0.3570
14963W        W30432  17.094   1.764  15.343 -0.1061 -0.1802 -0.1785
14964W        W30433   8.280   2.799   2.257  0.3189 -0.2736  0.4213
14965W        W30434  17.868  13.617  14.820  0.1917 -0.2382 -0.1499
14966W        W30435  15.233   7.174  11.660  0.0518  0.2806  0.1587
14967W        W30436  12.681  10.178  11.551 -0.4926  0.3725  0.0077
14968W        W30437  18.362  16.643   4.250 -0.0081 -0.1365  0.0129
14969W        W30438  14.100  16.328   5.371  0.1036 -0.2179 -0.0662
14970W        W30439   2.135   5.708  11.454  0.3059  0.1105 -0.0219
14971W        W30440   2.847  11.180   2.064 -0.0214 -0.0531 -0.0887
14972W        W30441  14.853  14.816  13.158 -0.1561  0.0027  0.0024
14973W        W30442   7.158  10.144  13.136 -0.0011 -0.1605 -0.1686
14974W        W30443   2.543   8.437  15.896  0.1650  0.2093  0.1937
14975W        W30444  16.096  12.369   2.927  0.1632  0.1228 -0.1664
14976W        W30445  10.882  14.524  13.048 -0.1474  0.4998 -0.0778
14977W        W30446  11.943   9.428   3.917  0.0524 -0.0669 -0.3052
14978W        W30447  15.936  10.907   2.918  0.0461 -0.0016 -0.1088
14979W        W30448  18.372  15.358  11.708 -0.2392 -0.0696 -0.1110
14980W        W30449   6.236  13.979  15.928 -0.2793  0.0779  0.1241
14981W        W30450  17.015  16.407   1.049 -0.0354 -0.1435 -0.0248
14982W        W30451  15.499  17.520   3.830 -0.1867 -0.1787  0.0119
14983W        W30452  12.104   9.480  14.630  0.0192  0.3137  0.2083
14984W        W30453   3.924   3.654  14.031  0.0392  0.0261  0.2534
14985W        W30454   7.173   7.276   0.922 -0.1218  0.0425  0.3498
14986W        W30455   8.681  10.784   3.977  0.1714  0.0292 -0.0963
14987W        W30456   3.050   7.150  15.734  0.0344  0.0900  0.1883
14988W        W30457   3.490  10.030   0.338  0.0164 -0.1810 -0.4394
14989W        W30458  11.639  16.122   5.716  0.0821  0.0061 -0.4194
14990W        W30459  12.229   8.798   4.298  0.1169 -0.0725  0.0239
14991W        W30460   9.068  12.071   0.307  0.0605 -0.0429  0.2016
14992W        W30461  15.202  13.143  15.342  0.0482 -0.0388 -0.2688
14993W        W30462   8.723   4.043   1.667  0.1388 -0.0214 -0.1373
14994W        W30463  15.132   2.122   0.459  0.0643 -0.1358 -0.3121
14995W        W30464   8.224   9.083   5.670  0.1931  0.0646  0.0169
14996W        W30465   7.745  14.165  14.591 -0.0862  0.0274 -0.0952
14997W        W30466  10.496   4.559  15.044  0.0396  0.1248 -0.0828
14998W        W30467  16.333   2.039  13.542  0.3076  0.0603 -0.1713
14999W        W30468  13.707  14.914   2.659  0.1096 -0.1202  0.1015
15000W        W30469   2.523  14.114   2.673 -0.0672  0.2813  0.0226
15001W        W30470  18.027  13.805   9.568  0.3095  0.2926 -0.0462
15002W        W30471   6.578  17.542   0.786  0.0465 -0.0546  0.0848
15003W        W30472   6.229  17.761  15.272 -0.3556  0.0338 -0.2927
15004W        W30473  14.705   5.077  12.244 -0.0194 -0.2111 -0.1569
15005W        W30474   7.214  17.830  12.086  0.0461  0.3250  0.0113
15006W        W30475   7.151  14.175  10.272  0.1678  0.1021 -0.1594
15007W        W30476  17.287   9.910   1.293  0.0520  0.3969 -0.2663
15008W        W30477  17.427  10.873  13.250 -0.0741  0.0915  0.0194
15009W        W30478  16.225  15.588  15.941  0.2071 -0.3314  0.0077
15010W        W30479   1.862  11.897   3.289 -0.3361  0.0507 -0.0620
15011W        W30480   9.767   7.048  15.198  0.2338 -0.0614  0.0992
15012W        W30481  16.534   4.880  14.453 -0.1071  0.1091 -0.1592
15013W        W30482   1.079  18.289   2.789 -0.0495  0.2460 -0.1366
15014W        W30483  14.025   9.650  15.833 -0.2335 -0.1298  0.0724
15015W        W30484  15.879  17.964  15.276  0.1116  0.0211 -0.0999
15016W        W30485   9.405   8.124  13.383 -0.0222 -0.2452  0.2610
15017W        W30486  12.661   9.795   5.252 -0.0806 -0.0130  0.1998
15018W        W30487   6.079   1.355  14.857  0.2192 -0.1437  0.0950
15019W        W30488   9.218  11.464   4.390  0.0035 -0.3415  0.0115
15020W        W30489  11.312  18.041   2.786  0.1544 -0.0912  0.2587
15021W        W30490  11.258  10.225   2.810  0.4639  0.1300 -0.2437
15022W        W30491   6.399   6.907   2.101  0.3172  0.3027  0.0229
15023W        W30492   4.117   8.534  12.223 -0.2663 -0.1541  0.2650
15024W        W30493   4.312   4.690  12.011 -0.2169 -0.0443  0.1025
15025W        W30494   2.946   6.402   1.199  0.1904 -0.2300 -0.0663
15026W        W30495   4.878  13.267   2.304  0.2988  0.0126 -0.2633
15027W        W30496   4.633  15.517  11.395 -0.0420  0.1147  0.2021
15028W        W30497  15.863   2.485  13.413 -0.1527  0.4395 -0.0224
15029W        W30498   7.230  10.292   1.134  0.1684 -0.1755  0.0428
15030W        W30499  10.778  11.435   3.663 -0.2614 -0.0983 -0.1364
15031W        W30500   9.804  17.823   0.300 -0.2453  0.0556 -0.1263
15032W        W30501   5.122   5.163   3.547 -0.3448 -0.3935  0.1789
15033W        W30502   2.051   4.319   2.983  0.1483 -0.0271  0.0326
15034W        W30503   2.329  17.855   1.347 -0.0747 -0.5419 -0.0004
15035W        W30504  11.696   6.094  14.446 -0.0077  0.0540  0.2249
15036W        W30505   0.357   8.127  13.458 -0.0214  0.1870  0.1144
15037W        W30506  11.610  17.161   0.793  0.0093  0.0819  0.2648
15038W        W30507   2.334  17.826   0.640 -0.4079 -0.3316 -0.0403
15039W        W30508   2.646  16.535   1.770 -0.1310  0.1796 -0.3245
15040W        W30509   4.802   4.156   0.627 -0.0538  0.0081 -0.0423
15041W        W30510   6.123  14.674  15.146 -0.0041 -0.1475 -0.0238
15042W        W30511   8.727   0.065   4.242  0.2525  0.0034  0.0008
15043W        W30512  17.072  11.926   3.790 -0.1372  0.2020 -0.0925
15044W        W30513  12.969   9.268   1.999  0.2104  0.1807  0.2735
15045W        W30514   6.927   9.675   2.881  0.0323  0.1726  0.1721
15046W        W30515   1.856  17.251  14.731  0.0967 -0.1058 -0.0699
15047W        W30516  13.568  10.921  12.175 -0.2031  0.2353  0.2697
15048W        W30517   2.066   8.119   0.958 -0.0866 -0.0704  0.2979
15049W        W30518   1.843  10.482   0.090 -0.0316 -0.0040  0.2008
15050W        W30519  13.157   9.293   4.590  0.0193 -0.0871 -0.1332
15051W        W30520   2.202   3.850   1.289 -0.0443 -0.1151 -0.0364
15052W        W30521  16.604  11.110   2.377  0.2207 -0.2764 -0.1901
15053W        W30522   1.886  15.023  14.598  0.0427 -0.2674 -0.2216
15054W        W30523   6.139   0.006   1.986  0.1536  0.0699 -0.0356
15055W        W30524  10.959  13.870   4.973  0.0184 -0.0600 -0.2671
15056W        W30525   6.281  16.042   2.769 -0.1050  0.0204 -0.1002
15057W        W30526   8.911  15.983  14.725  0.0313  0.2022 -0.0259
15058W        W30527  15.062  10.412   1.992 -0.0195 -0.2461 -0.1149
15059W        W30528  13.431   4.539  12.261  0.0455 -0.2242  0.1597
15060W        W30529  15.601  18.320   5.540 -0.0282  0.1177 -0.4012
15061W        W30530  10.714   2.824   5.288 -0.0634 -0.1256 -0.1681
15062W        W30531  11.336   8.476   3.149  0.0832  0.2006  0.2231
15063W        W30532  14.865  17.188  11.403 -0.2625 -0.1137 -0.0011
15064W        W30533   7.313   7.659  14.866 -0.1996  0.0211 -0.1137
15065W        W30534   0.067   3.667   0.866  0.3203  0.2149 -0.0519
15066W        W30535  14.683   2.027   2.343  0.0316  0.1806 -0.1438
15067W        W30536   4.480   6.071  14.214  0.0100 -0.0334 -0.0520
15068W        W30537   6.967  15.712   2.744 -0.0754  0.1911  0.1229
15069W        W30538   4.389  13.818   0.711 -0.0575  0.4627  0.2933
15070W        W30539  10.506   7.708   2.992  0.2826 -0.1704  0.2822
15071W        W30540  17.897  18.237  16.009  0.3198  0.1445 -0.2565
15072W        W30541   7.293  15.870   2.365  0.4155  0.0328 -0.2009
15073W        W30542  18.119  14.219   1.811  0.0672  0.2720  0.3259
15074W        W30543   4.991  13.211  14.327 -0.3310  0.0232 -0.1099
15075W        W30544  18.366   1.306   2.376  0.0521 -0.0220 -0.2222
15076W        W30545   6.673  10.110   4.690 -0.0706 -0.3184  0.0663
15077W        W30546  18.114  11.503  13.240  0.2624 -0.1944 -0.0448
15078W        W30547   4.992   2.132   2.006 -0.1886 -0.1480 -0.2590
15079W        W30548  12.353   8.188   2.927 -0.0223  0.5029 -0.0003
15080W        W30549  18.005   0.254   3.945 -0.1727  0.1645  0.0890
15081W        W30550   6.813  10.346  11.901 -0.1349 -0.0039 -0.3688
15082W        W30551   4.976   1.915  12.361 -0.1183  0.0961  0.1512
15083W        W30552   0.453   5.576  15.832 -0.0971  0.0879  0.2689
15084W        W30553  16.245   6.761   2.769 -0.2627 -0.1356  0.1475
15085W        W30554  17.414  13.376  14.661 -0.0567  0.0565 -0.0839
15086W        W30555  13.244   9.230  14.286 -0.1530  0.0015 -0.0994
15087W        W30556   7.640  12.271   3.466 -0.2127 -0.4354  0.3708
15088W        W30557  13.034   6.464  11.298  0.1040 -0.1198 -0.0663
15089W        W30558  16.777   2.166  11.664 -0.2148 -0.0517 -0.0009
15090W        W30559   7.762   6.556  14.872 -0.0737 -0.1070  0.2267
15091W        W30560  17.388   5.524   4.144 -0.1631  0.0221  0.0826
15092W        W30561   2.681   4.850  15.293  0.1310  0.1815 -0.1787
15093W        W30562   3.699  13.189  15.679  0.0424 -0.0744  0.0152
15094W        W30563   4.360  13.558   2.508 -0.2530 -0.0165 -0.1472
15095W        W30564   7.567  13.096   3.604 -0.1731  0.2923  0.1527
15096W        W30565   2.705   0.626   0.256  0.4541  0.0141 -0.0454
15097W        W30566  17.247  15.826   4.822  0.1577  0.0587  0.3077
15098W        W30567   1.221  13.599  14.815  0.1638 -0.0523  0.3543
15099W        W30568  14.136   8.874   3.834  0.2160 -0.0907  0.1220
15100W        W30569   4.873  13.564   4.231 -0.2325 -0.3699 -0.0017
15101W        W30570  14.727  10.191  14.088  0.0804  0.0290  0.2087
15102W        W30571  16.040  11.401  12.041  0.0064 -0.2163 -0.2475
15103W        W30572   9.416  15.745  12.389  0.1502  0.0772  0.0781
15104W        W30573   0.534  14.561  14.879  0.0712 -0.1087  0.0338
15105W        W30574   1.836   8.158   1.413  0.3892 -0.2628 -0.2193
15106W        W30575  14.316   4.787  11.806 -0.1856 -0.1151  0.1142
15107W        W30576   5.378   6.172  12.410 -0.0116 -0.0852  0.0106
15108W        W30577   5.725  17.787  13.017  0.2210  0.2331  0.0694
15109W        W30578  11.477   3.413   5.335  0.2299  0.1958  0.0254
15110W        W30579  15.107   0.760   2.866 -0.1674  0.1295  0.0348
15111W        W30580  13.821  12.913   1.812  0.3167 -0.1568 -0.0258
15112W        W30581  14.075  11.602  15.705  0.2085 -0.0737  0.2714
15113W        W30582   9.832   0.667   4.662  0.1111  0.0676  0.4973
15114W        W30583  10.484   4.744   4.306 -0.0926 -0.0046  0.2131
15115W        W30584   6.820  14.394   4.911 -0.0354 -0.0305 -0.0362
15116W        W30585   3.456  12.144   1.084 -0.0922 -0.2153  0.1479
15117W        W30586  11.968  11.949  13.009 -0.2736  0.2075  0.1890
15118W        W30587   4.302  13.414  12.071 -0.0389 -0.2595  0.1401
15119W        W30588   1.795   5.500  11.081  0.0859 -0.1625  0.1564
15120W        W30589   1.920  17.072  15.915  0.0666  0.2130 -0.0237
15121W        W30590   8.664  14.535  14.634  0.1138  0.1193  0.1666
15122W        W30591  11.542   0.986  13.053  0.1889 -0.1317  0.0987
15123W        W30592   8.805   8.398   3.146  0.0048 -0.1084 -0.0969
15124W        W30593   1.411   2.076  15.472  0.0868 -0.0048 -0.1559
15125W        W30594  17.994  14.818   1.513  0.1936  0.2635  0.4346
15126W        W30595  11.798   8.958  15.668 -0.0708 -0.0072  0.2018
15127W        W30596   1.604   7.038   5.594 -0.0850 -0.0489  0.1796
15128W        W30597   4.213  17.672   0.718 -0.3294 -0.3613 -0.1341
15129W        W30598   4.777   3.719  14.313  0.2920 -0.0859  0.4287
15130W        W30599  10.335   0.398  15.882 -0.0844  0.0449  0.1151
15131W        W30600  15.516   7.693  12.088 -0.1809 -0.0026  0.0164
15132W        W30601   1.249   6.738  12.629  0.3442 -0.0243 -0.0809
15133W        W30602  15.983  15.597  13.460  0.1185  0.1026  0.0089
15134W        W30603  12.088   7.537  10.552 -0.2857 -0.1103  0.0573
15135W        W30604  12.279   2.057   0.982  0.2417  0.3251  0.0002
15136W        W30605   7.082  10.784  11.740 -0.1278  0.0847 -0.2665
15137W        W30606   5.587  18.265   4.186  0.3109 -0.0629  0.0652
15138W        W30607   4.293  14.148  13.340  0.3938 -0.0741  0.0370
15139W        W30608   0.069  14.625  10.666  0.1977  0.4200 -0.5378
15140W        W30609  13.066   7.587  12.576  0.1974  0.4541  0.3917
15141W        W30610  18.171   7.440  16.005  0.1782 -0.0913  0.1158
15142W        W30611  12.353   6.786   5.129 -0.0562  0.1205 -0.0498
15143W        W30612  12.700   1.034  10.363  0.1307 -0.1138  0.2570
15144W        W30613  10.215  14.559   2.151 -0.4119 -0.1198  0.0096
15145W        W30614  17.590  10.130   2.249  0.1598 -0.0203 -0.0759
15146W        W30615   6.330   7.981   3.307  0.1585 -0.1727 -0.1632
15147W        W30616  11.503   7.786  10.974 -0.2744  0.2596 -0.1417
15148W        W30617   8.624  15.105  11.890 -0.2052 -0.1837  0.0328
15149W        W30618  10.392   1.373   1.736 -0.0462  0.1416  0.3150
15150W        W30619   2.844  12.073  10.228  0.1538  0.2480  0.0749
15151W        W30620  10.517  12.818   2.753 -0.2133 -0.0595  0.3084
15152W        W30621  16.774   8.007   1.743 -0.3291  0.0543 -0.1665
15153W        W30622   5.131   5.886   2.212 -0.0332 -0.3085 -0.1176
15154W        W30623  18.297  10.513  14.933 -0.2802 -0.0650 -0.2260
15155W        W30624   7.066   3.176  12.372 -0.2148 -0.0194  0.0214
15156W        W30625   2.853   8.599  10.362 -0.1875 -0.1084  0.0837
15157W        W30626   7.611   9.989  13.880  0.1935  0.2361 -0.0506
15158W        W30627  17.196  14.133  12.973 -0.1856 -0.0542 -0.1063
15159W        W30628   1.719   3.673   0.150 -0.0163 -0.1302  0.1028
15160W        W30629   3.056   5.155   2.594  0.3312 -0.0664 -0.2164
15161W        W30630  12.964  12.838   0.962 -0.0335 -0.2331 -0.0097
15162W        W30631   1.059   1.075   4.601  0.3213  0.0270  0.0042
15163W        W30632  17.507  18.275   2.482  0.2750 -0.1806 -0.0945
15164W        W30633   9.708  15.142  13.858 -0.2159  0.2832  0.2118
15165W        W30634   2.194  11.879   4.882 -0.3204 -0.1853 -0.1401
15166W        W30635  18.391  15.181  14.312  0.0193 -0.1243  0.1392
15167W        W30636   8.629  17.484  13.050 -0.2731  0.3106  0.1446
15168W        W30637   8.076  16.252   0.404 -0.1188  0.0646  0.2121
15169W        W30638  17.034   6.953  11.495  0.1052  0.1714 -0.2847
15170W        W30639   3.527  12.824  14.572  0.1199 -0.2134  0.0202
15171W        W30640  10.986   0.653   4.155  0.0459 -0.0733  0.2740
15172W        W30641   2.015  10.972   0.643  0.1359  0.0549 -0.0889
15173W        W30642   7.649   2.653   2.034 -0.0187 -0.2415 -0.1450
15174W        W30643  11.227   6.393  11.103 -0.0974  0.2093  0.0046
15175W        W30644   5.183   5.488   4.006  0.1290 -0.1827  0.2226
15176W        W30645  15.308  15.086   3.015 -0.0239 -0.0908 -0.1958
15177W        W30646  12.034  18.419   0.076 -0.0014 -0.4059  0.1156
15178W        W30647   7.551   4.467  11.860  0.1237 -0.1023  0.3270
15179W        W30648   9.686  13.601  15.229 -0.2020  0.0442  0.1288
15180W        W30649   2.847  17.001   3.833 -0.0596 -0.2221 -0.1675
15181W        W30650   3.263   1.463   3.196  0.0720  0.0286  0.1252
15182W        W30651  17.161   9.608   2.864  0.0553 -0.1520  0.0428
15183W        W30652   0.372   6.844   0.757  0.3433 -0.3844  0.1350
15184W        W30653   8.600  10.778  11.520  0.2924  0.1920  0.1133
15185W        W30654   9.735   2.033  15.128  0.1978  0.2144 -0.2681
15186W        W30655   6.086  11.956   5.186  0.1525 -0.1916  0.2316
15187W        W30656   8.984   1.597  14.911  0.3760 -0.1508  0.3802
15188W        W30657  18.374  18.300  15.311  0.1310 -0.0193  0.2880
15189W        W30658  16.956   8.005  10.129  0.2578  0.2328 -0.1123
15190W        W30659   7.551  18.131  13.859 -0.3135  0.1335 -0.2754
15191W        W30660   3.743  12.853   5.540 -0.1395  0.1415  0.2727
15192W        W30661  17.977   0.693  13.797 -0.1595 -0.3076 -0.1691
15193W        W30662   6.100   0.438   4.233  0.0289 -0.0634 -0.1296
15194W        W30663   9.556  12.121   2.940  0.2878  0.3409 -0.1648
15195W        W30664   3.560  14.260   4.077 -0.0731  0.1191 -0.0811
15196W        W30665   6.902  10.513  12.838 -0.1342  0.0977 -0.0180
15197W        W30666   0.529   9.387   4.117  0.0050  0.1893 -0.1570
15198W        W30667   6.373   2.566  11.624  0.0231  0.0737 -0.0068
15199W        W30668   4.447   7.341  10.885  0.0136 -0.0298 -0.3521
15200W        W30669  10.514  12.769   1.438  0.1702  0.1408 -0.1190
15201W        W30670   6.787  13.113  14.903  0.1916 -0.2537  0.1308
15202W        W30671  11.366   4.666  15.071 -0.0584  0.1610 -0.0497
15203W        W30672   3.587  12.214   0.598 -0.3099 -0.2805 -0.0344
15204W        W30673   6.541  13.065   5.811 -0.3017 -0.2760  0.0202
15205W        W30674  18.335   7.131   0.725 -0.0269  0.3538 -0.1541
15206W        W30675  10.809   3.574   0.318  0.3328 -0.1769  0.0380
15207W        W30676  12.474   6.883  14.045  0.0003 -0.2467 -0.0629
15208W        W30677  11.825   1.856   0.783 -0.4999 -0.1278  0.0294
15209W        W30678   3.481  14.747   4.170  0.1691 -0.2002 -0.0261
15210W        W30679   3.788  15.643   3.979 -0.0521 -0.0371 -0.2793
15211W        W30680  14.202   2.799  10.436 -0.1261  0.0642 -0.0220
15212W        W30681  15.083  10.308  13.467  0.0977  0.4098  0.2226
15213W        W30682   3.583   0.573   4.946  0.1215 -0.1195  0.2246
15214W        W30683  16.605   4.594  14.889  0.1481 -0.0163  0.3735
15215W        W30684  14.662  12.225  14.459  0.0772 -0.2909  0.1604
15216W        W30685   9.587  14.453   1.333  0.0531  0.1480  0.4712
15217W        W30686  18.110  10.808   0.680  0.2472 -0.1008  0.1923
15218W        W30687   6.419  17.758  12.465 -0.1651  0.1083 -0.0995
15219W        W30688  15.829   2.624  15.611 -0.2026 -0.3123 -0.0442
15220W        W30689   3.215   7.064  14.152 -0.1263  0.0584  0.0486
15221W        W30690  18.240   8.607  14.953  0.2490  0.0805 -0.2156
15222W        W30691   6.288  14.757   1.952  0.0259  0.1677  0.0547
15223W        W30692   8.709   3.575   4.218  0.1684  0.1115  0.0865
15224W        W30693  14.613   2.076   0.315 -0.0865 -0.0845  0.2317
15225W        W30694   4.100   6.313   0.314 -0.2547 -0.2967 -0.1134
15226W        W30695  18.056  11.688  11.178  0.1616  0.2079 -0.1276
15227W        W30696   5.601  13.612   0.566  0.2002  0.3500 -0.3229
15228W        W30697  10.397   4.738   3.754  0.0009  0.4809  0.2902
15229W        W30698  14.439   5.698   5.418 -0.1441 -0.0677 -0.2243
15230W        W30699   2.392   0.061   3.287  0.1823  0.2693  0.1683
15231W        W30700  13.406   9.749   2.276 -0.2734  0.3111  0.4112
15232W        W30701  16.718  14.700  12.539  0.0987  0.3046  0.1429
15233W        W30702  18.038   7.027   2.169 -0.1869 -0.0822  0.3550
15234W        W30703   7.439   0.727  11.188 -0.1116 -0.0439  0.0571
15235W        W30704  12.679   1.959   1.471 -0.3369 -0.3756  0.3157
15236W        W30705  12.463   5.107  13.845 -0.0490 -0.0610  0.0039
15237W        W30706   2.836   3.731   2.375 -0.1944  0.0702 -0.0258
15238W        W30707  12.411   8.110  12.958 -0.0152  0.0084  0.0263
15239W        W30708   4.124  17.530   5.666 -0.1204 -0.3123 -0.0625
15240W        W30709  13.421   4.735  14.814 -0.0517 -0.0159  0.3010
15241W        W30710   2.010  13.143   2.255 -0.1709  0.2433  0.2570
15242W        W30711  10.762  11.560  13.505  0.0240  0.2235  0.0528
15243W        W30712   6.212   7.265   4.656  0.3899  0.3432 -0.1969
15244W        W30713  16.996  16.630   1.478  0.0721  0.1386  0.1305
15245W        W30714  15.244  12.827  14.854  0.0857 -0.1554  0.0576
15246W        W30715   4.369  15.360  14.421  0.3538  0.1947 -0.2794
15247W        W30716   0.468  12.216   4.615  0.0557  0.2671  0.0304
15248W        W30717  12.862  13.212   1.886 -0.1998 -0.3383  0.3490
15249W        W30718  11.786   7.550   5.253 -0.0588  0.1474 -0.0408
15250W        W30719  11.004   1.623   5.450  0.0670  0.2598 -0.0643
15251W        W30720  14.495   8.170   2.202 -0.1457 -0.1181  0.1276
15252W        W30721   2.296   8.581   1.796  0.0559 -0.2513 -0.1048
15253W        W30722   2.368   2.108  12.474 -0.1135 -0.1750 -0.0474
15254W        W30723  14.083   9.359  15.399  0.0791 -0.3523 -0.0251
15255W        W30724  11.643  11.197   4.166  0.1393  0.1438 -0.0098
15256W        W30725  11.374   2.728  13.736  0.1554 -0.0390 -0.3110
15257W        W30726  17.304   7.890  12.813 -0.0931  0.0228 -0.3568
15258W        W30727  11.437  13.959   5.002 -0.2224 -0.1484 -0.2289
15259W        W30728  16.328  13.991  13.880  0.1472 -0.1413 -0.0713
15260W        W30729  10.783  13.362  13.698 -0.0705 -0.0743 -0.0865
15261W        W30730  11.549   2.872   3.532  0.1512  0.1435  0.0075
15262W        W30731   1.664   9.164   6.125 -0.2342  0.0085  0.1531
15263W        W30732   9.753  17.226  13.859  0.2180 -0.0862 -0.4078
15264W        W30733   3.331  11.218  13.711  0.0823 -0.1625 -0.0250
15265W        W30734  10.896   2.278   3.191 -0.0462  0.0329 -0.2658
15266W        W30735   0.199   0.006   4.637  0.0839 -0.1996 -0.1426
15267W        W30736   9.935  17.559  13.363 -0.1530 -0.1559  0.1041
15268W        W30737   4.037  15.445   3.059 -0.1183 -0.2296  0.3793
15269W        W30738   8.322  15.222  11.310 -0.2853  0.1133  0.0648
15270W        W30739   1.981   7.399   1.732 -0.1213  0.0444  0.1591
15271W        W30740  17.659   2.248   4.380  0.3186  0.0385 -0.0085
15272W        W30741  10.988   3.566  11.649  0.3126  0.4197  0.1064
15273W        W30742  17.302  14.508   2.872  0.2838 -0.0082 -0.0263
15274W        W30743  15.472  14.115   2.067  0.2419  0.2303 -0.0462
15275W        W30744   4.520  11.754  15.093  0.2041  0.1217  0.0176
15276W        W30745  16.326   8.972  14.772 -0.4274 -0.2028  0.2875
15277W        W30746   9.789   8.466   0.320  0.2134  0.0539  0.0601
15278W        W30747  12.167   1.915  15.030 -0.0732 -0.2328  0.4595
15279W        W30748  10.207   8.129   3.204 -0.1049  0.3761  0.2799
15280W        W30749  15.323  18.005   4.304 -0.1217  0.1766  0.5679
15281W        W30750   6.448  11.374   2.519 -0.2158 -0.0447  0.2698
15282W        W30751  15.426   4.274   1.801 -0.0790  0.1132  0.1331
15283W        W30752   6.866   5.621  13.310 -0.0821 -0.1749 -0.0017
15284W        W30753  14.726   4.988   1.894  0.1644 -0.0490 -0.4230
15285W        W30754  10.495   1.677  11.682 -0.0756 -0.4299  0.1140
15286W        W30755   2.935   0.169  14.237 -0.1860  0.1086  0.2317
15287W        W30756  17.545   6.509   1.205  0.0774  0.0272 -0.1165
15288W        W30757   6.358  15.305   1.037 -0.0825 -0.0678  0.3054
15289W        W30758  14.441  15.650  13.873 -0.2293  0.1495  0.1750
15290W        W30759  12.499   9.094  12.757  0.1864 -0.1063  0.1111
15291W        W30760  14.417   7.481   3.605  0.1323  0.0466  0.0800
15292W        W30761  17.942  13.667   4.755 -0.1521 -0.3167  0.1077
15293W        W30762   4.012   5.711   3.675  0.4774 -0.3090 -0.1878
15294W        W30763  13.060   1.581  11.069 -0.0810 -0.3046  0.0309
15295W        W30764   9.797  13.353   4.331 -0.3435  0.4210 -0.0476
15296W        W30765  17.962  14.243   2.407  0.0789 -0.4380 -0.0194
15297W        W30766   6.296  15.794  14.862  0.1760  0.0548  0.3130
15298W        W30767  15.616  18.460   0.988  0.0002 -0.0696  0.2444
15299W        W30768  15.981  13.603  13.936  0.2463  0.1952  0.1313
15300W        W30769   5.508   1.553  14.861 -0.0007 -0.0910  0.1028
15301W        W30770  17.431   4.774  11.353  0.0591  0.2829  0.1129
15302W        W30771  14.184   8.653   1.976  0.1326  0.1720 -0.1969
15303W        W30772  16.483   6.589  12.281  0.2855 -0.3855  0.0823
15304W        W30773  14.766  13.941   1.399 -0.1111 -0.1400  0.0838
15305W        W30774   8.427  17.089  13.530  0.0564 -0.2544 -0.1621
15306W        W30775  16.026  16.189   2.956 -0.0805  0.1175  0.0136
15307W        W30776  14.067   1.474   1.751 -0.0053 -0.0311  0.1786
15308W        W30777   3.143   6.956  11.356  0.0085 -0.0742 -0.0747
15309W        W30778   7.982  14.764   1.986  0.2872  0.0648  0.0565
15310W        W30779  12.730  10.823  13.011  0.2224 -0.0821  0.0679
15311W        W30780   9.860   1.529  12.446 -0.0115 -0.2615  0.2146
15312W        W30781  17.857  17.962   5.113 -0.2917  0.3644  0.0535
15313W        W30782  12.012  14.159  13.706  0.3780 -0.3345  0.0543
15314W        W30783   2.502  11.147  12.288  0.2542 -0.1022 -0.0275
15315W        W30784  17.709   9.856   4.599  0.0723  0.0242  0.0304
15316W        W30785  14.823   6.801   4.023 -0.1345  0.2236 -0.0965
15317W        W30786  17.621   0.672   6.177 -0.3483 -0.2584  0.0562
15318W        W30787  12.748  10.982  14.252  0.1748  0.0094 -0.2107
15319W        W30788  11.974  13.247  11.352 -0.1496  0.0228 -0.2852
15320W        W30789   1.953  17.622  13.532  0.0193  0.1101  0.0099
15321W        W30790   6.964  10.621   3.930 -0.0233  0.0326  0.1062
15322W        W30791  12.920   3.153  11.567 -0.2772  0.1432 -0.1810
15323W        W30792   9.437   8.943   0.289 -0.1234 -0.2510  0.0649
15324W        W30793  11.080  17.674   2.513 -0.0195 -0.0825 -0.0253
15325W        W30794  10.465   3.335  14.261  0.2692  0.0706  0.2159
15326W        W30795   5.913   7.752  13.099  0.0192  0.1023 -0.2162
15327W        W30796   4.744   1.353   0.660  0.2519  0.0168 -0.1394
15328W        W30797  11.335  16.486  15.583 -0.3059  0.0193 -0.2839
15329W        W30798   6.379   0.707   1.426  0.4924 -0.0956 -0.2232
15330W        W30799  15.412  12.656   2.222 -0.2278  0.0679  0.0420
15331W        W30800   0.709  12.061   2.112 -0.1863 -0.1857  0.1281
15332W        W30801  15.333  10.780   1.942 -0.1201 -0.0940  0.2133
15333W        W30802  14.887   0.015  14.996  0.0439  0.0538 -0.0033
15334W        W30803  16.569   5.249   2.823  0.1899  0.1318 -0.3938
15335W        W30804   3.387   8.803  15.968  0.0132 -0.1646  0.1540
15336W        W30805  13.975  17.894  11.949 -0.3664 -0.1506  0.1736
15337W        W30806   0.024   9.588   4.080 -0.0119 -0.0757 -0.0475
15338W        W30807   9.935  14.100  14.046  0.2109  0.0054 -0.0057
15339W        W30808   8.792   5.647   0.791 -0.0660  0.0100 -0.2121
15340W        W30809   2.880  14.964   0.182  0.0480 -0.2758  0.0040
15341W        W30810  15.816   0.853  15.076  0.3397  0.2309 -0.1200
15342W        W30811  14.571   9.656  13.495 -0.0512 -0.2675  0.2581
15343W        W30812  11.035  17.118  12.629  0.1339 -0.0665 -0.1223
15344W        W30813  10.165   1.618   0.725 -0.0856 -0.0985 -0.0159
15345W        W30814   8.189  11.656  12.639 -0.1937 -0.0932 -0.1867
15346W        W30815   3.333   1.272   1.607  0.3068  0.0319  0.0037
15347W        W30816  13.611   1.363   3.450 -0.0444 -0.0098  0.3362
15348W        W30817   8.698   1.626   5.586 -0.2421 -0.0747 -0.1087
15349W        W30818  11.708   1.045   1.632 -0.3005  0.1415 -0.0059
15350W        W30819  14.234  14.521   0.828 -0.3134  0.1018 -0.0798
15351W        W30820   4.017   6.670  12.253  0.1423 -0.0677 -0.3993
15352W        W30821  12.023   2.546   1.578 -0.1145  0.1897 -0.0906
15353W        W30822  10.404  10.706   2.488 -0.0003 -0.0376 -0.0103
15354W        W30823   2.969   0.170  13.331  0.0855 -0.0495 -0.0710
15355W        W30824   3.905   4.182   4.232 -0.3617  0.1244 -0.0853
15356W        W30825   9.776   3.005  14.990 -0.0435  0.1783 -0.1721
15357W        W30826   4.566   5.807  15.067 -0.4836 -0.0922  0.2322
15358W        W30827  12.058   2.658   3.609  0.1567 -0.2155  0.1787
15359W        W30828  13.538  17.784  14.974 -0.0928 -0.0449  0.2678
15360W        W30829   8.546  12.737   5.554  0.1704  0.1892 -0.2982
15361W        W30830   1.716   5.799   2.706 -0.2795  0.1494  0.0411
15362W        W30831   4.699   8.625   4.512  0.2126  0.0472  0.2440
15363W        W30832  11.679   2.070   5.364  0.0820 -0.0456 -0.0847
15364W        W30833   0.582  15.972   3.393  0.3945 -0.1739 -0.1930
15365W        W30834  13.756   1.094   2.596 -0.2732 -0.0650  0.0295
15366W        W30835  10.287  17.212  13.523 -0.2565 -0.0729  0.1567
15367W        W30836  11.583  15.133  14.001 -0.0193 -0.0137  0.1474
15368W        W30837  12.279   4.387   3.712 -0.0591  0.0322 -0.1135
15369W        W30838   3.426   6.770  13.733  0.0537 -0.1520  0.0788
15370W        W30839   1.341  12.542   4.258 -0.1766  0.1590  0.0473
15371W        W30840   3.050  15.519  11.137  0.0896  0.1418 -0.1905
15372W        W30841  13.117   8.587   3.091 -0.1613 -0.2846 -0.1877
15373W        W30842   9.188   3.912  15.214  0.0337  0.0107  0.0785
15374W        W30843  15.185  17.302  15.801  0.1289 -0.0070 -0.0629
15375W        W30844   6.927   8.709   4.329  0.1802  0.1794  0.1271
15376W        W30845  13.637   0.088  14.960 -0.1259  0.0392  0.0619
15377W        W30846   5.080   5.748  12.652 -0.0039  0.1938 -0.2111
15378W        W30847   1.767   4.456  13.331  0.1076  0.1205  0.1900
15379W        W30848   7.424   4.322   4.331 -0.2029  0.2542  0.0766
15380W        W30849   8.295   8.017  11.921 -0.0221  0.4434 -0.2313
15381W        W30850   9.963  17.576  11.111 -0.0733 -0.1166 -0.1106
15382W        W30851   5.426   8.701   0.780 -0.0575  0.1697  0.2459
15383W        W30852   5.829   6.203   2.576 -0.1298 -0.0950 -0.2723
15384W        W30853  13.223   2.072   2.204  0.0679  0.1277 -0.1151
15385W        W30854  17.962   3.202  12.641 -0.1501 -0.1443 -0.1339
15386W        W30855  11.389   2.082   0.809  0.1513  0.0746 -0.0875
15387W        W30856   4.808   6.697  11.725  0.2882 -0.0525 -0.0090
15388W        W30857  15.186   6.520   5.291  0.0354 -0.3035 -0.0310
15389W        W30858   1.008  17.615  14.919 -0.0454 -0.0395 -0.0233
15390W        W30859   8.343  13.090   1.415  0.0060  0.3339 -0.2021
15391W        W30860   7.735   2.541  11.262 -0.1340  0.0182 -0.0753
15392W        W30861  11.271  16.277  11.579  0.4171  0.0389  0.3980
15393W        W30862   3.257   0.994  13.362  0.2005 -0.3479 -0.2160
15394W        W30863  12.314   1.773  10.427 -0.1775  0.0001 -0.0678
15395W        W30864   2.413  18.161  14.795 -0.5422 -0.0292  0.0688
15396W        W30865   2.801   2.296   2.093 -0.0419 -0.0624  0.0221
15397W        W30866  11.505   5.216  11.971  0.0766 -0.2764  0.0550
15398W        W30867   7.999  10.091   4.155 -0.1701  0.2268  0.0343
15399W        W30868  13.982   9.226  12.801  0.0685 -0.1146 -0.1938
15400W        W30869  12.680   9.072   1.093  0.0243  0.0540  0.1580
15401W        W30870  13.366   1.155   3.924 -0.0257  0.0338 -0.3136
15402W        W30871   6.579  16.089  14.570  0.2661  0.0183  0.2207
15403W        W30872  13.671   6.562   1.365 -0.0257 -0.2387  0.1867
15404W        W30873   9.570  11.887   4.456  0.0325  0.0399 -0.0090
15405W        W30874   5.851  11.750   4.177  0.3348  0.0753  0.1053
15406W        W30875   2.555  13.211   4.390  0.0579  0.2551 -0.3570
15407W        W30876   1.047   1.207   5.105  0.2814  0.1064  0.1104
15408W        W30877   8.879   0.858  13.396  0.1247 -0.0089 -0.1113
15409W        W30878  17.609   2.470  13.721 -0.3413 -0.2681  0.0888
15410W        W30879  18.126   9.923  13.776 -0.4008 -0.1192  0.1152
15411W        W30880   6.652  14.616  12.115 -0.0816 -0.0139 -0.2242
15412W        W30881  13.224  12.434   4.295  0.1706 -0.3362 -0.1914
15413W        W30882  12.367   5.554   0.179  0.2257 -0.1228  0.2865
15414W        W30883  16.244  13.948   4.221 -0.0787  0.0754 -0.3732
15415W        W30884   6.090   8.759   4.789 -0.2801 -0.0485  0.3889
15416W        W30885   1.549   7.131   0.243 -0.4178 -0.4927  0.0328
15417W        W30886   3.333  17.709   2.576 -0.0661  0.4342  0.0196
15418W        W30887  11.494   4.005   3.301 -0.1892 -0.3517 -0.0297
15419W        W30888   4.320   6.935  14.753 -0.0570 -0.1029 -0.0683
15420W        W30889  12.909   8.011  11.769  0.1106  0.2065 -0.2324
15421W        W30890  17.939  17.983   1.507 -0.1971 -0.3960  0.1688
15422W        W30891   2.672   6.932  11.545  0.2748  0.2225 -0.3450
15423W        W30892  14.543  18.448   0.505 -0.0143  0.0952  0.0434
15424W        W30893   7.524  12.797   5.369 -0.0415  0.0005 -0.1211
15425W        W30894   6.660   9.739   3.813  0.2215 -0.0624 -0.0848
15426W        W30895  15.413   9.375  14.987  0.0905  0.0386  0.0248
15427W        W30896  11.280   9.202  11.205  0.3515  0.0682  0.2640
15428W        W30897  12.638   2.684   4.575 -0.1177 -0.1803  0.2672
15429W        W30898  14.974  10.958  12.616 -0.0755 -0.0234 -0.2157
15430W        W30899  14.445   8.528   6.411 -0.2860 -0.2027  0.0925
15431W        W30900   2.580  15.696  12.936  0.3969 -0.3154 -0.1670
15432W        W30901  12.387  17.365   0.124 -0.1361 -0.1169 -0.2083
15433W        W30902   4.008   3.981   0.058 -0.1442  0.1111  0.0353
15434W        W30903  10.694   9.903  12.773  0.2756 -0.1567  0.0899
15435W        W30904  11.847  17.263   5.603  0.3372 -0.0107  0.1202
15436W        W30905   4.162   5.616   5.844 -0.0359 -0.3734 -0.1517
15437W        W30906  11.733  12.980  14.382  0.1824  0.2816 -0.0625
15438W        W30907   6.410   0.182   1.586  0.1150  0.1039  0.0575
15439W        W30908  12.958  16.665  10.092 -0.2801  0.1842 -0.3296
15440W        W30909  10.762   8.791  14.116  0.0290 -0.0269  0.0976
15441W        W30910   8.238  11.272   1.773  0.1292 -0.1328  0.0823
15442W        W30911  10.306   7.949  11.723 -0.0103  0.0777 -0.1316
15443W        W30912   6.001   0.921   3.849  0.0208 -0.2402 -0.0582
15444W        W30913  12.197  16.845   2.498 -0.2535  0.0322 -0.2182
15445W        W30914   2.486   7.504  12.851  0.0273 -0.1171 -0.0833
15446W        W30915   8.605  16.716   3.427 -0.2285 -0.1518  0.1047
15447W        W30916  17.465   1.396  15.491  0.2905  0.1356  0.3870
15448W        W30917   8.625   7.269   0.613  0.1806 -0.1473 -0.1192
15449W        W30918   8.059   0.859   2.174 -0.0893 -0.2687  0.0230
15450W        W30919   6.358   3.024   3.955  0.4451 -0.1552  0.0785
15451W        W30920   1.384  13.038  12.285  0.1601  0.1546  0.0572
15452W        W30921  12.926   6.516   0.869  0.2114  0.3282  0.0465
15453W        W30922  14.272  10.563  13.976 -0.2949 -0.1479 -0.4382
15454W        W30923   7.178  15.883  11.045 -0.1523  0.2950  0.2855
15455W        W30924  11.406  10.206   1.805  0.0422 -0.1704 -0.1038
15456W        W30925   4.900  17.327  12.807 -0.1171 -0.1774  0.3277
15457W        W30926   9.725   0.531  14.805 -0.3318  0.1790 -0.1514
15458W        W30927  13.984  12.447   2.032  0.1336 -0.4710  0.0071
15459W        W30928   1.946   0.895   5.444 -0.0344  0.2538 -0.0420
15460W        W30929   1.541   9.421  11.364 -0.2680  0.0550  0.1618
15461W        W30930   3.533   6.832  13.218  0.4134 -0.1405  0.0254
15462W        W30931  15.645  13.310   4.155  0.0672  0.2152  0.0476
15463W        W30932   4.028   9.765   3.409 -0.1531 -0.1488 -0.0159
15464W        W30933  13.620   9.458  13.302 -0.4527 -0.1240 -0.2518
15465W        W30934  16.385  18.065   9.960 -0.0135 -0.2273  0.0833
15466W        W30935  14.765  10.078  15.522  0.0128  0.1681 -0.4866
15467W        W30936  12.837  16.698  10.545  0.2257 -0.0356 -0.0716
15468W        W30937   0.464  11.536  12.887 -0.0047  0.0720 -0.2460
15469W        W30938   6.302  13.276  11.781 -0.2102 -0.3666  0.1126
15470W        W30939   0.850  17.605   4.285  0.1957 -0.2309  0.2576
15471W        W30940   0.731  12.545   2.075 -0.1626  0.1278  0.1527
15472W        W30941  16.339  17.916   2.618 -0.0693 -0.1793  0.0687
15473W        W30942   2.939   4.132   2.056 -0.1627  0.0772 -0.2240
15474W        W30943   9.992   3.504   4.244  0.1404  0.2017  0.2702
15475W        W30944  18.172   4.243  12.609  0.0719 -0.3113 -0.1881
15476W        W30945  11.954   6.661   2.712  0.1332  0.0386  0.1758
15477W        W30946   1.309  14.920  10.951 -0.3483  0.0380 -0.0183
15478W        W30947  15.805  16.052  12.306  0.2694 -0.0257 -0.1478
15479W        W30948  13.855  15.743   5.860  0.2342 -0.2526  0.1830
15480W        W30949   1.897  15.865   1.253 -0.2653 -0.1073  0.0083
15481W        W30950  18.130  10.739   4.763 -0.1575 -0.0834 -0.0850
15482W        W30951  14.540   0.903   2.210  0.1079  0.0134 -0.3671
15483W        W30952   6.205  12.309  13.475  0.0493  0.0371  0.0758
15484W        W30953  14.285   5.261   3.149  0.1674 -0.2467 -0.1465
15485W        W30954   4.052  17.016  11.809  0.0267  0.1294  0.0684
15486W        W30955  18.438  18.460   0.963 -0.1638 -0.1379 -0.2217
15487W        W30956  16.792   1.855  15.749  0.2514  0.2337 -0.0222
15488W        W30957   0.362  16.565   2.241  0.1146  0.2234 -0.4750
15489W        W30958   4.574  14.849  10.692 -0.2110  0.0291  0.1391
15490W        W30959   9.742   6.953  11.111 -0.2777  0.2547 -0.0617
15491W        W30960   1.878   5.380   3.040 -0.0965  0.0460  0.0343
15492W        W30961  14.549   2.548   5.480  0.2309  0.0003 -0.2569
15493W        W30962   5.838  15.285  13.622 -0.1326  0.1054  0.1405
15494W        W30963   8.565   8.044   5.959  0.2418 -0.3589 -0.1810
15495W        W30964   4.215  12.341   6.108 -0.0045 -0.2106  0.2896
15496W        W30965   7.492   9.339   4.103  0.3802  0.3562  0.0300
15497W        W30966  13.414  14.586  15.511 -0.1783 -0.2087  0.0388
15498W        W30967   0.462  17.071   3.123  0.2822 -0.1975 -0.0290
15499W        W30968   0.730  16.436   3.163  0.0210  0.1917  0.0346
15500W        W30969  10.353   6.821  15.163 -0.3381  0.3758 -0.0980
15501W        W30970   1.252  17.054   4.938 -0.0645  0.1355  0.4317
15502W        W30971  12.080   2.286  12.242 -0.0762 -0.3367 -0.0900
15503W        W30972   3.162   9.513   4.383 -0.2173 -0.2717  0.0238
15504W        W30973   1.325  13.170  15.125 -0.0667 -0.0901 -0.1508
15505W        W30974   0.316   9.425   1.681  0.0896 -0.0975 -0.1848
15506W        W30975   6.661   3.827  14.136 -0.3194  0.0400 -0.1520
15507W        W30976   7.230  13.529  14.873  0.0806  0.3296 -0.1710
15508W        W30977   1.075  10.029   2.331 -0.0017  0.2348  0.3968
15509W        W30978  14.513  17.785  11.953 -0.0394 -0.1239 -0.3080
15510W        W30979  15.721   0.556  10.584 -0.2674 -0.0305  0.3125
15511W        W30980   4.061  13.781  13.579 -0.0660  0.1024 -0.1505
15512W        W30981   9.510   6.157  14.941 -0.0734 -0.0653 -0.1953
15513W        W30982   3.849   3.456  11.713 -0.1780  0.1904  0.0705
15514W        W30983  15.020   9.046  13.139 -0.0353  0.2355  0.0414
15515W        W30984   8.252   8.788   3.716  0.0828 -0.1968  0.1343
15516W        W30985   8.650  18.129  15.915  0.1668  0.0113  0.2339
15517W        W30986   4.825  15.541  15.923 -0.4321 -0.2242  0.2062
15518W        W30987  17.152   2.482  13.366 -0.0727 -0.2433  0.2141
15519W        W30988   3.043  17.471  11.954 -0.0784 -0.0384  0.0487
15520W        W30989  18.433   1.392  14.144  0.3986 -0.4028  0.0800
15521W        W30990   5.611  15.982   4.946  0.0493 -0.0761 -0.1020
15522W        W30991   8.716   4.750  14.945 -0.1096  0.1162 -0.2308
15523W        W30992  18.256  14.184   3.957  0.0037 -0.1799  0.2368
15524W        W30993   8.722   4.031   3.833  0.1572 -0.0155 -0.1037
15525W        W30994  10.447  11.993   2.722  0.0512  0.2091 -0.0467
15526W        W30995  16.103   0.675  14.509  0.1949 -0.0653  0.1109
15527W        W30996   2.916   3.760  11.038 -0.0896  0.0347 -0.0623
15528W        W30997   7.158   3.153  13.653 -0.0643  0.0221  0.1021
15529W        W30998   9.391  16.425   5.019  0.3030  0.2689  0.1661
15530W        W30999   9.632   1.961   2.018 -0.0444  0.1208 -0.2855
15531W        W31000   3.817   2.904   3.961 -0.3659 -0.2120 -0.0315
15532W        W31001   2.691  16.736  11.847  0.3618 -0.1006 -0.2094
15533W        W31002  10.263   9.392  12.233  0.2040  0.0244  0.3238
15534W        W31003  17.352   8.972  15.456  0.3318  0.2377  0.1095
15535W        W31004   0.068   6.860   3.651  0.2147 -0.1988 -0.1021
15536W        W31005  11.227  13.128  11.973  0.1942 -0.0164 -0.2804
15537W        W31006   7.695   7.899  13.926 -0.2309  0.1477 -0.0714
15538W        W31007   1.974   6.333   5.836  0.0906  0.0834 -0.0624
15539W        W31008  14.961  16.561  11.386  0.0488  0.1177 -0.2305
15540W        W31009   5.253   8.613   2.493  0.0408  0.0164  0.1541
15541W        W31010  13.443  12.872   2.709  0.0380  0.3113 -0.0252
15542W        W31011  11.087   5.091  15.138 -0.1209  0.0705 -0.0518
15543W        W31012   7.953   0.539  11.049 -0.1188 -0.2785 -0.1054
15544W        W31013   5.105   5.124  15.050  0.1104 -0.0919  0.2731
15545W        W31014  11.193  10.929   4.313  0.1889 -0.1590  0.3744
15546W        W31015  18.250  17.357  14.925  0.1745 -0.1627 -0.0516
15547W        W31016   1.766   5.080  12.577  0.1893  0.1080 -0.2032
15548W        W31017   6.374   9.082  13.199 -0.2394 -0.0014 -0.3600
15549W        W31018  16.499  14.771  11.701 -0.1660  0.0952  0.2290
15550W        W31019   8.868  10.023   3.179 -0.2698 -0.0596  0.0866
15551W        W31020  12.657  12.341  15.601  0.0239 -0.2053 -0.2472
15552W        W31021  16.312   4.920   3.284  0.0964 -0.1292 -0.0836
15553W        W31022  14.326   2.760  12.163  0.2483 -0.0589 -0.2403
15554W        W31023  13.905   5.559  12.493 -0.3683 -0.2425  0.2358
15555W        W31024   3.033  10.178   5.424 -0.0846  0.0629 -0.0655
15556W        W31025   5.026   1.557   2.531  0.2938 -0.1286 -0.2740
15557W        W31026   5.380  13.648   4.998 -0.1635 -0.1177 -0.1105
15558W        W31027  18.436   5.773   2.599 -0.2233  0.0841 -0.0444
15559W        W31028  16.265  14.369  12.749 -0.2172  0.0494 -0.0321
15560W        W31029   3.809   8.822  12.494  0.1398 -0.0691 -0.3085
15561W        W31030   4.946  12.186  15.796 -0.0189 -0.1420  0.1072
15562W        W31031  17.814  12.927  15.493 -0.0699 -0.0854  0.0665
15563W        W31032  16.098  11.161  13.101 -0.0995  0.0410 -0.2542
15564W        W31033   4.868   6.670  10.640  0.0947  0.1112  0.0002
15565W        W31034   4.450   1.396   4.645  0.0126 -0.1713  0.0107
15566W        W31035  10.715  13.703   3.600 -0.0536  0.2448 -0.0977
15567W        W31036  10.113  18.329  13.067 -0.2521 -0.1070  0.1644
15568W        W31037  13.641  11.816  15.607  0.0164  0.0023  0.2354
15569W        W31038   4.821  14.906   4.825  0.2875  0.0626 -0.0611
15570W        W31039   7.839   6.540  11.106  0.0910 -0.2399  0.1471
15571W        W31040   1.477   2.667  15.456 -0.0445 -0.1097 -0.2976
15572W        W31041   9.578   3.109   3.064  0.1856 -0.0622 -0.1911
15573W        W31042   4.114  15.213   3.558 -0.1993 -0.0388 -0.4277
15574W        W31043   9.519   2.474  14.998 -0.1258 -0.0568  0.0345
15575W        W31044  12.882   8.115  12.268  0.2046  0.1120 -0.0395
15576W        W31045   5.971   3.727   1.028  0.1789 -0.1146 -0.0681
15577W        W31046   1.655  13.829   2.836  0.1306 -0.1028  0.2676
15578W        W31047  15.182  17.770  10.716  0.0704 -0.0558  0.2371
15579W        W31048  16.328   7.885   3.916 -0.0878  0.1902  0.1486
15580W        W31049  15.478  14.786   0.260 -0.3341  0.1540 -0.2042
15581W        W31050  13.647   6.982  14.250 -0.1406 -0.1034  0.1198
15582W        W31051   5.815  12.293   1.519 -0.0189  0.0187 -0.2416
15583W        W31052  16.841   5.926   4.818  0.0517 -0.1567  0.1846
15584W        W31053   4.182   9.659   0.983  0.0853 -0.2378 -0.2314
15585W        W31054   4.515   6.770   5.019  0.0442 -0.3483 -0.3376
15586W        W31055  14.837   3.160  13.026  0.3085 -0.0493 -0.1548
15587W        W31056  16.453   3.339  15.397 -0.0446 -0.1067 -0.4709
15588W        W31057  11.895   5.733   2.812 -0.1342  0.2325 -0.0802
15589W        W31058  13.049   4.287  14.653  0.1167 -0.2917  0.0249
15590W        W31059  16.457   2.522   2.149 -0.0712 -0.1045  0.2875
15591W        W31060   3.803   5.670   5.480 -0.1666 -0.0156 -0.0618
15592W        W31061  14.179   4.964   2.734 -0.4744  0.0625 -0.4950
15593W        W31062  15.544   8.961   4.179 -0.1171  0.2573  0.2789
15594W        W31063   5.715  10.713  13.249  0.1303 -0.2950 -0.0945
15595W        W31064  14.034   8.968  15.724  0.0868 -0.0128  0.0662
15596W        W31065  10.992   4.224   2.304  0.2431  0.1908  0.4720
15597W        W31066   9.014  15.903  12.696 -0.2001  0.2718 -0.0336
15598W        W31067   8.097   2.081   0.780  0.0546  0.0063 -0.4021
15599W        W31068   3.859   3.724   1.443  0.1701  0.2665 -0.2107
15600W        W31069  15.585   3.917   2.650 -0.1336 -0.0664 -0.1877
15601W        W31070  15.191  14.885   4.409  0.1513 -0.0816 -0.0786
15602W        W31071   8.496   1.931  14.265 -0.2345 -0.1660  0.1703
15603W        W31072  16.717  17.668  12.435 -0.0580 -0.1010 -0.1042
15604W        W31073   0.718   6.898  14.669  0.1756  0.2126 -0.2564
15605W        W31074  15.450   8.212   1.046  0.0938 -0.4365 -0.0408
15606W        W31075   7.658  12.074  11.968 -0.0482  0.2389  0.1584
15607W        W31076  14.584  10.529  11.464  0.1201 -0.2158  0.0100
15608W        W31077  11.048  12.647  13.685 -0.2291  0.1914 -0.0339
15609W        W31078  15.600  12.589  14.624 -0.0083 -0.0240 -0.1736
15610W        W31079   1.372   6.638   3.654  0.0491 -0.1990 -0.1167
15611W        W31080   2.437  17.890   3.760 -0.0365  0.0750 -0.0494
15612W        W31081   5.604   5.257   4.171 -0.3045  0.0810  0.1463
15613W        W31082   1.538  11.870  10.971 -0.1517  0.0466  0.2037
15614W        W31083  14.184  17.995   0.610 -0.2870 -0.3669 -0.4429
15615W        W31084  15.763   6.803  14.836 -0.2117  0.2907  0.0880
15616W        W31085  13.962   8.917   1.550  0.1345  0.2015 -0.1823
15617W        W31086   6.108  10.098   0.926 -0.2480  0.1408 -0.2765
15618W        W31087   8.565  18.116  13.344 -0.1795 -0.1005  0.0448
15619W        W31088   6.873   6.302   9.839 -0.2579  0.0083 -0.3762
15620W        W31089  17.340  10.192   0.449  0.2797 -0.3225  0.1921
15621W        W31090  11.918   2.280  14.576  0.2324 -0.0510 -0.2691
15622W        W31091  12.430  15.522   3.519  0.0997 -0.3134  0.0054
15623W        W31092  17.126  17.513  12.713 -0.1575  0.3242  0.1675
15624W        W31093   6.266  14.962  14.122  0.2811 -0.1530 -0.0852
15625W        W31094   8.805   3.218   2.357 -0.0974  0.0347  0.1972
15626W        W31095  17.599   2.827   1.492 -0.0428  0.1856  0.1102
15627W        W31096  12.042  16.790  11.742 -0.2820 -0.1415  0.2094
15628W        W31097  18.339  14.303   2.708 -0.4070 -0.0965 -0.0436
15629W        W31098   5.980  11.257   2.187 -0.4645  0.2478  0.0294
15630W        W31099  12.506  15.502  13.230  0.2289  0.1289 -0.6408
15631W        W31100  14.984   3.843   2.640  0.2142  0.2533 -0.2304
15632W        W31101   3.362  13.938  13.799  0.1421  0.2599 -0.2739
15633W        W31102   9.367  11.691  13.381 -0.2450  0.0814  0.0803
15634W        W31103  16.470   0.724  14.960 -0.2681 -0.1734  0.0427
15635W        W31104   0.457  17.473  12.268 -0.0431  0.1451  0.0502
15636W        W31105   8.474   2.087   1.116 -0.0146  0.1098 -0.3721
15637W        W31106   6.425  17.086   1.938 -0.0174 -0.2751 -0.0417
15638W        W31107  16.225   1.612   1.906  0.1351 -0.3042 -0.0017
15639W        W31108   4.573   0.859   3.981  0.2877  0.0883  0.1687
15640W        W31109   5.745   5.120   1.292 -0.0571  0.2089  0.2087
15641W        W31110   4.166  16.933   2.376 -0.4198 -0.1318 -0.1767
15642W        W31111  11.813  16.711  14.165 -0.1896  0.0464  0.2544
15643W        W31112  13.352   6.316   2.065 -0.1057 -0.0285 -0.0667
15644W        W31113   2.322  10.455   1.345 -0.0049 -0.5152 -0.1768
15645W        W31114   0.062   2.290   2.716 -0.5022 -0.0143 -0.0074
15646W        W31115  14.700   0.649  14.261  0.1146 -0.2264  0.1689
15647W        W31116  10.611   8.418   1.691 -0.0122 -0.1349 -0.1841
15648W        W31117  16.749  10.000  13.134  0.1494 -0.3017  0.0041
15649W        W31118  12.655  10.658   3.933 -0.4689  0.0026  0.1612
15650W        W31119   6.561   8.061  15.417 -0.0846 -0.2248  0.1631
15651W        W31120   3.065   1.021  12.800  0.1632 -0.2166 -0.1802
15652W        W31121   2.831   6.644  12.598  0.0722  0.1885  0.0769
15653W        W31122  12.894  13.169  14.043 -0.2639  0.1496 -0.0598
15654W        W31123  14.407  13.846   5.003 -0.2592 -0.1192  0.0982
15655W        W31124  16.946   7.885   4.937 -0.0621  0.2548 -0.0967
15656W        W31125  16.312  17.380   1.128 -0.1809 -0.3078  0.0635
15657W        W31126   2.109  14.590   1.625  0.2878  0.0265  0.1156
15658W        W31127   6.040   6.073   3.948  0.0641  0.1879  0.1876
15659W        W31128  12.685   4.516   3.464 -0.1228 -0.0983  0.1385
15660W        W31129   4.660   1.797  13.034 -0.1650  0.2379  0.3203
15661W        W31130   8.259   5.434   2.711  0.0023  0.1839 -0.1984
15662W        W31131  15.868   1.167   0.203  0.2081 -0.2334 -0.0950
15663W        W31132   5.027  15.332   2.163 -0.1940 -0.2739  0.0126
15664W        W31133  18.032  10.816  13.732 -0.3058  0.0114  0.3635
15665W        W31134  17.741  10.764  15.937  0.0634 -0.1136 -0.1481
15666W        W31135   5.970   8.877   5.294  0.2355 -0.0419 -0.2382
15667W        W31136   7.147   4.649  15.483 -0.1556 -0.0551 -0.3181
15668W        W31137   9.432  16.882  11.115 -0.1317  0.0405  0.0497
15669W        W31138   5.156   5.433   2.604 -0.2225  0.1494 -0.2756
15670W        W31139  16.264   2.857   1.198 -0.0947 -0.0196  0.3772
15671W        W31140   2.808   3.894  14.238  0.1331  0.1743  0.3044
15672W        W31141   9.977   3.381  12.871 -0.2417 -0.0064 -0.0234
15673W        W31142   2.265   5.278   5.060 -0.1713  0.0096  0.0904
15674W        W31143   8.894   9.388  13.010 -0.0382 -0.3054  0.0010
15675W        W31144   4.394   3.028   3.140 -0.1556  0.0420  0.0141
15676W        W31145   2.299  17.389   5.794 -0.0421 -0.0951 -0.2037
15677W        W31146  10.063   4.161   1.448 -0.0400  0.0961  0.4136
15678W        W31147   3.351   2.865   0.042  0.0044  0.0904 -0.1469
15679W        W31148   5.723  17.619  14.482  0.1430 -0.1922  0.1930
15680W        W31149   3.410   0.246  12.992  0.2196  0.1175 -0.0445
15681W        W31150   9.231   0.344  12.667 -0.0043 -0.1003 -0.1334
15682W        W31151   1.198  16.462  13.166 -0.0976 -0.0706  0.1834
15683W        W31152  10.739  18.180   0.314  0.0708 -0.4215 -0.0519
15684W        W31153   4.906   3.430   1.506  0.2512  0.1893  0.2735
15685W        W31154   1.124  15.662   1.626 -0.1890 -0.0538 -0.0832
15686W        W31155   2.657   4.889  14.752 -0.1197 -0.1993 -0.2289
15687W        W31156   3.535   9.374  15.124 -0.1095  0.1333  0.0012
15688W        W31157   9.418  11.233   0.761  0.0891 -0.0798  0.1929
15689W        W31158   3.709   3.943  15.367  0.3307  0.0516 -0.1309
15690W        W31159  11.539   5.388   3.150 -0.0346  0.0597  0.4504
15691W        W31160  11.664  14.938   4.117  0.0532  0.1468 -0.0941
15692W        W31161   6.828  14.077  12.116  0.0388  0.1114  0.1313
15693W        W31162   8.958  13.395  13.263 -0.0561 -0.3412  0.2810
15694W        W31163   1.028   0.712  15.529 -0.0751  0.2420  0.0245
15695W        W31164  10.818  14.612   0.710  0.1188 -0.1679  0.2883
15696W        W31165   1.273   1.035  11.435  0.0085 -0.2482  0.0936
15697W        W31166  11.218  15.446   0.256 -0.0846  0.1838 -0.2434
15698W        W31167  15.562   5.437  11.636  0.0393  0.0668 -0.0168
15699W        W31168   9.472   6.283  10.026  0.2541  0.0510 -0.0501
15700W        W31169   8.656  18.316  12.877 -0.1195 -0.0093 -0.0647
15701W        W31170   3.959  15.187   4.082 -0.0744 -0.2100  0.0638
15702W        W31171   6.924   9.392   2.447  0.3174  0.1371  0.1000
15703W        W31172  14.061   4.620  15.400  0.0640  0.0063  0.2097
15704W        W31173   5.573  10.108   2.718  0.2263 -0.0531 -0.2580
15705W        W31174   2.126   5.611   2.521 -0.0303 -0.0408 -0.1959
15706W        W31175   4.359  11.299   1.896  0.0438  0.0210  0.0241
15707W        W31176   5.581   0.499  11.360  0.1522 -0.0976 -0.1065
15708W        W31177   0.606   0.203  11.312  0.0330 -0.0191  0.1722
15709W        W31178  17.405   1.613  11.542 -0.1175 -0.1526 -0.1557
15710W        W31179   8.830  15.716  14.286 -0.0225  0.0120  0.1308
15711W        W31180   0.599   3.664  13.803 -0.0819 -0.0359  0.2501
15712W        W31181   7.598   0.697  10.613 -0.0387 -0.1065  0.1789
15713W        W31182  14.010  15.424  11.621 -0.1013  0.0834  0.0066
15714W        W31183   3.840  16.437  14.475  0.0302 -0.0321 -0.1898
15715W        W31184   7.726   2.584   0.877  0.0765 -0.1889  0.1037
15716W        W31185  11.011   7.326  15.704  0.2929  0.2042 -0.1197
15717W        W31186   1.683  18.022  13.778 -0.0212 -0.0609 -0.0182
15718W        W31187  17.660   0.707   4.607 -0.2427 -0.0123 -0.1250
15719W        W31188   8.989  12.774   3.891  0.0843  0.0359 -0.1086
15720W        W31189   6.086  11.306   4.995 -0.3158 -0.0489 -0.0343
15721W        W31190  17.400  17.503   0.723  0.1319 -0.1849  0.1638
15722W        W31191   3.070   5.405   3.936 -0.2890 -0.2553  0.0004
15723W        W31192   4.971  16.600   9.688 -0.0310  0.1271 -0.2528
15724W        W31193  13.311  17.249  13.345 -0.3599  0.5613  0.0804
15725W        W31194  15.021  16.383  10.768  0.0680  0.1134 -0.1675
15726W        W31195  14.488  14.491  15.380  0.1485 -0.1656 -0.0436
15727W        W31196   1.424  15.944   3.088  0.0978 -0.1196 -0.2776
15728W        W31197  13.214   2.931   3.004 -0.0414  0.0163  0.4929
15729W        W31198   8.299  17.944   2.021  0.2202 -0.2269  0.4458
15730W        W31199   4.152  10.237  14.027  0.0490 -0.3984 -0.0512
15731W        W31200  12.894   3.969   4.843  0.3845 -0.0125  0.1090
15732W        W31201  15.586  16.905  14.454 -0.1598 -0.3060  0.0199
15733W        W31202   3.826  10.917   5.855  0.2237  0.2047  0.1955
15734W        W31203  15.749   2.395   5.191  0.0721 -0.0677  0.0298
15735W        W31204   1.943   8.561   2.153 -0.0126  0.1305 -0.0648
15736W        W31205  11.263   9.045   0.112 -0.0698 -0.1555 -0.0704
15737W        W31206  18.431  12.469  12.261  0.0805 -0.3626 -0.1966
15738W        W31207  14.205  16.960  15.127  0.0269  0.1558 -0.1978
15739W        W31208   9.473   5.635   4.912 -0.1258 -0.0456 -0.0015
15740W        W31209  13.871   9.381   0.402 -0.0508 -0.1041  0.0913
15741W        W31210   4.251  13.563   1.737  0.2322  0.1501 -0.2664
15742W        W31211   9.984  18.346   3.609  0.1514 -0.1619 -0.0607
15743W        W31212   1.390   1.799   0.990  0.1604  0.4785  0.2161
15744W        W31213  16.356  17.319   2.524  0.2324 -0.3517  0.2186
15745W        W31214  12.452   3.518  14.415  0.2437  0.2959  0.1045
15746W        W31215   2.498  16.728  13.225  0.0157  0.1709  0.2145
15747W        W31216   6.500   8.545  12.542  0.1417 -0.0584 -0.1795
15748W        W31217  15.589  14.343   1.061 -0.1502 -0.1322  0.0390
15749W        W31218   9.025   6.230   3.989  0.3917 -0.0475  0.0097
15750W        W31219  14.693   8.300   0.658 -0.3087  0.0564  0.2628
15751W        W31220   4.458   4.241   6.507  0.1207  0.1637  0.0815
15752W        W31221   4.825  15.018   1.155 -0.2469  0.0671  0.0970
15753W        W31222  14.425   0.635   2.682 -0.2493 -0.0075 -0.3245
15754W        W31223  10.417  13.128  15.265 -0.3087 -0.2033  0.3469
15755W        W31224   0.266   3.061  14.544  0.2642  0.3915 -0.0506
15756W        W31225  15.901   7.149   2.747  0.0640  0.2383  0.0099
15757W        W31226   5.770   9.837  14.447  0.0084 -0.2285  0.2818
15758W        W31227   7.772  10.101  15.346  0.1255  0.0475 -0.2533
15759W        W31228   0.530  15.264   4.554  0.0282 -0.0233 -0.0849
15760W        W31229   8.524  12.201  13.183  0.0738  0.0154  0.3667
15761W        W31230   4.439   0.721   2.469  0.1865  0.0520 -0.1426
15762W        W31231  14.211   1.052   0.477  0.1675 -0.0333  0.2225
15763W        W31232  16.662  13.142   3.360  0.1994 -0.2450 -0.1829
15764W        W31233  13.596   5.856  11.677  0.0072  0.2613 -0.0755
15765W        W31234  15.704   6.004   3.044 -0.2500  0.0897  0.1451
15766W        W31235  13.129   6.830   2.184  0.1336  0.1455  0.0368
15767W        W31236   8.375   4.154   1.026  0.1651  0.0488 -0.2808
15768W        W31237  10.636  15.112  11.234 -0.1617 -0.0742  0.2478
15769W        W31238  13.064  17.058  12.629  0.1255 -0.1003 -0.0341
15770W        W31239   1.244   1.029   1.326 -0.0257  0.0112 -0.2224
15771W        W31240   9.634  15.525  12.758 -0.1148 -0.2580 -0.3117
15772W        W31241  15.597  13.819  10.507 -0.0244 -0.1082  0.2343
15773W        W31242   9.847  17.061  11.868 -0.1630  0.0887 -0.0328
15774W        W31243  15.020  10.827   2.347 -0.1445 -0.2345  0.2809
15775W        W31244   9.101  11.181   3.642 -0.0330  0.7548 -0.2372
15776W        W31245   1.447   1.637   0.212 -0.4337  0.2687 -0.0637
15777W        W31246   7.097  15.907  13.776 -0.3062 -0.1353  0.0412
15778W        W31247   9.596  13.824   3.121  0.1716 -0.1963  0.2598
15779W        W31248   9.906   2.926  11.123  0.1232 -0.0341 -0.2948
15780W        W31249   5.971  17.262   1.537 -0.0346  0.2071  0.0983
15781W        W31250   4.469   7.568  11.394 -0.1789 -0.1242 -0.1454
15782W        W31251   7.503  16.694  11.396  0.2820 -0.0785 -0.2674
15783W        W31252  12.755  12.434   0.030  0.3577  0.1361  0.3187
15784W        W31253  16.945   4.226  15.789  0.1999 -0.3015  0.0766
15785W        W31254   6.862   4.839  16.018 -0.1803  0.0564  0.2385
15786W        W31255  17.477  10.400   3.490 -0.0041 -0.0668  0.0742
15787W        W31256  13.140  13.057  14.449 -0.1977 -0.0234 -0.0115
15788W        W31257   4.407   3.484  13.914  0.1671  0.1207 -0.0520
15789W        W31258   0.234  12.805   0.950 -0.0239 -0.0095 -0.0781
15790W        W31259  13.830  12.861  13.169  0.0899 -0.3388 -0.0133
15791W        W31260  12.985  18.038   2.685  0.4077 -0.1077  0.0681
15792W        W31261  15.887  14.435   3.054  0.2368  0.1138  0.1092
15793W        W31262  17.360   6.787  13.884  0.0923  0.1552 -0.2101
15794W        W31263  13.448  11.336  11.774 -0.1965 -0.0606  0.3498
15795W        W31264  13.922   1.412  15.730  0.1684  0.1481  0.3866
15796W        W31265   5.666   2.899   1.450  0.2404  0.0834 -0.2291
15797W        W31266   7.138   6.652  13.881 -0.1523  0.3177  0.0328
15798W        W31267  12.212  14.833   2.465  0.0412  0.0950  0.2837
15799W        W31268  12.720   5.818   4.413 -0.2526 -0.1655 -0.1927
15800W        W31269  15.164   9.279   1.907 -0.0103 -0.1010  0.2338
15801W        W31270   2.766   0.194   2.103  0.0687 -0.0985  0.0272
15802W        W31271  17.894   6.032   2.578  0.0993  0.2472 -0.0219
15803W        W31272   8.566   4.767   0.342  0.0729 -0.2664 -0.0790
15804W        W31273  11.568   9.789  14.408 -0.2785 -0.0580 -0.0490
15805W        W31274   7.259  12.756   4.009  0.0417  0.0184  0.1267
15806W        W31275  11.227  15.333  15.760  0.2662  0.1039  0.3378
15807W        W31276   1.040   8.753   3.738  0.1440 -0.2194  0.0756
15808W        W31277   8.168  10.553  11.654  0.0621  0.3703 -0.1067
15809W        W31278  18.062  12.648   4.403 -0.0239  0.2342  0.1145
15810W        W31279   7.912  15.196  15.357 -0.0502  0.3351 -0.0293
15811W        W31280  12.664   1.584   4.507 -0.0759 -0.1406 -0.0737
15812W        W31281  13.325   4.968   5.442  0.1684 -0.0703 -0.2231
15813W        W31282   5.292  13.653   9.628  0.0719 -0.1005  0.0615
15814W        W31283   2.341   6.359  10.779  0.0611 -0.1645 -0.1262
15815W        W31284   8.638   1.392   2.946 -0.0085 -0.0900  0.3632
15816W        W31285   5.511   5.290  13.822 -0.0178 -0.0139  0.0866
15817W        W31286   3.882  16.236  15.272 -0.0927 -0.1067 -0.3354
15818W        W31287  10.077  13.430   1.272  0.0259  0.3667 -0.1197
15819W        W31288   3.578  14.352  13.953  0.1055  0.1332  0.1290
15820W        W31289   5.847   5.068   0.801  0.1648  0.0493  0.1576
15821W        W31290  12.846   5.895   5.635  0.1619  0.0155  0.2312
15822W        W31291  13.000   7.547  14.754  0.0399 -0.1686  0.0574
15823W        W31292  14.008   7.683  15.123 -0.1259  0.0015 -0.0865
15824W        W31293   1.213  15.933   5.525  0.0529 -0.0609  0.0124
15825W        W31294   4.775  16.880   4.081 -0.1150  0.0068  0.0022
15826W        W31295   3.239  13.338  14.385  0.0900  0.3235 -0.2132
15827W        W31296  10.776  14.815  15.196 -0.3109 -0.2120  0.1733
15828W        W31297   3.647   3.168  12.825  0.0597  0.0263  0.1125
15829W        W31298   1.579   7.118  12.470 -0.1152  0.1340  0.0704
15830W        W31299   6.870   1.322   4.174 -0.2733  0.0628  0.0231
15831W        W31300  13.992   4.981  12.730 -0.2609 -0.0397  0.0716
15832W        W31301  13.723  15.669  10.610  0.0890 -0.0935  0.2060
15833W        W31302   3.125   9.141  13.895  0.1657  0.1456 -0.1979
15834W        W31303  12.758   2.599  14.036 -0.0090 -0.0389  0.2845
15835W        W31304   9.448   5.734  13.334 -0.3419 -0.0344 -0.4176
15836W        W31305  18.162  12.827  11.965  0.0189 -0.0745  0.3595
15837W        W31306   9.082  14.954  11.843  0.1475  0.3486 -0.2164
15838W        W31307   2.594   5.059   1.992 -0.3768 -0.2265  0.2471
15839W        W31308  11.950  18.406   1.018 -0.0164 -0.0948 -0.1879
15840W        W31309   1.680   1.969   1.638 -0.1020 -0.1544 -0.2519
15841W        W31310  16.281   3.333   1.495 -0.0567 -0.1934  0.2638
15842W        W31311   8.304   5.899   3.322  0.2853  0.0347  0.1050
15843W        W31312   6.617   2.210  12.736 -0.3215 -0.0924  0.1105
15844W        W31313  12.759   1.434  14.710  0.0383 -0.3411 -0.3493
15845W        W31314  15.932   4.265   1.224 -0.0387  0.1966 -0.1121
15846W        W31315   4.436   8.589   0.308  0.1782 -0.0431 -0.0295
15847W        W31316  13.723  12.907  12.313  0.1349 -0.0704  0.1444
15848W        W31317   7.136  14.854  10.465 -0.2359 -0.2473  0.1287
15849W        W31318   6.101  11.823  13.628 -0.0478 -0.0569  0.0465
15850W        W31319   3.204   3.147  15.282 -0.1720  0.1236  0.0691
15851W        W31320   0.847   8.113   5.834  0.0370 -0.1014 -0.2323
15852W        W31321  15.220   1.566  11.499 -0.1170 -0.2823 -0.1889
15853W        W31322   0.834   9.762   0.964  0.0369 -0.1525 -0.0421
15854W        W31323   2.874   2.497   0.706  0.1443 -0.2300  0.4204
15855W        W31324   2.065   2.463   5.067 -0.2146  0.2656  0.1688
15856W        W31325  10.535   1.279   3.988 -0.2427 -0.0324 -0.0897
15857W        W31326   7.829  17.332   2.511 -0.4116 -0.3920  0.1321
15858W        W31327  18.248  13.349   2.041 -0.0424 -0.1185  0.0208
15859W        W31328  13.496   2.159  14.936 -0.0033 -0.0182  0.2523
15860W        W31329   3.162   4.732  14.614 -0.1293 -0.2091  0.1788
15861W        W31330  13.550  12.474   1.607 -0.0101 -0.0307 -0.1749
15862W        W31331   5.617   0.164   1.064 -0.3406  0.0407 -0.2783
15863W        W31332   6.166  15.269  12.900 -0.0929  0.0261 -0.0424
15864W        W31333  17.403   0.542  11.208 -0.1024 -0.0311  0.1053
15865W        W31334   2.287   4.218  13.393  0.2784 -0.1116 -0.0587
15866W        W31335  11.592   0.945   5.499 -0.1239 -0.0677 -0.2462
15867W        W31336  13.507  13.069  10.132  0.0073 -0.1931  0.0205
15868W        W31337   9.370   4.101   3.310  0.3402 -0.1624  0.0228
15869W        W31338   9.193   6.237  11.073 -0.3271  0.1773  0.0179
15870W        W31339   1.428   2.290  11.661  0.2535  0.0306 -0.4690
15871W        W31340   7.553  12.831  12.055  0.1740  0.2925  0.0007
15872W        W31341  12.078   8.730  15.199  0.1020  0.3095  0.1412
15873W        W31342   3.273  10.633  13.593 -0.0115  0.0122 -0.2305
15874W        W31343   8.098  17.123  11.166 -0.1322  0.0723  0.4486
15875W        W31344  16.677   1.126  10.035  0.0278  0.1021 -0.1196
15876W        W31345   3.644   8.122   1.913  0.1377  0.0840  0.0101
15877W        W31346   8.439   8.369  13.916 -0.0880  0.0651  0.4091
15878W        W31347   4.035  13.377  15.015  0.2601  0.0315 -0.2600
15879W        W31348   7.528  14.087  13.222 -0.0663  0.0180  0.0502
15880W        W31349  18.351  11.972   0.038  0.0642 -0.0909 -0.3605
15881W        W31350  14.280   8.198  14.051 -0.5042  0.0274 -0.3419
15882W        W31351  17.366   9.850   4.173 -0.0228 -0.0516 -0.1902
15883W        W31352   1.878   7.789  12.054 -0.0148 -0.1995 -0.0365
15884W        W31353  11.043  12.981  15.896 -0.0728 -0.0129 -0.0183
15885W        W31354  12.501   8.618   4.648  0.0473 -0.2604 -0.2410
15886W        W31355  11.019  13.776   0.154  0.2256 -0.1824  0.3358
15887W        W31356   3.754   1.425  12.088  0.0742 -0.1994 -0.1806
15888W        W31357  12.147   5.179   1.069 -0.1630 -0.2168 -0.1860
15889W        W31358   6.286   2.695  12.133  0.2349 -0.0277 -0.0306
15890W        W31359   1.231  11.327   1.047 -0.2139 -0.1351 -0.1531
15891W        W31360  13.547  13.780  11.316  0.2350  0.4435  0.2547
15892W        W31361   7.014  15.512   4.611  0.1172  0.2806  0.1370
15893W        W31362   6.262  12.489   1.659 -0.2497  0.3057 -0.0599
15894W        W31363   2.647   3.986  15.454 -0.0450 -0.1372 -0.3828
15895W        W31364   9.337  17.915  13.943  0.0850  0.0564  0.2080
15896W        W31365  10.488  14.932  14.238 -0.2029 -0.0995 -0.0655
15897W        W31366   0.802  11.718  13.892 -0.2612 -0.0032 -0.1108
15898W        W31367   6.355   0.717   2.964  0.1989 -0.1832 -0.0845
15899W        W31368   0.968   1.462   1.078 -0.1010  0.1391  0.0862
15900W        W31369   0.265  16.433   3.295 -0.1021 -0.3048 -0.1947
15901W        W31370   0.836   7.700   6.148 -0.1263 -0.0753 -0.0791
15902W        W31371   1.822   3.560   1.516 -0.0097 -0.1841 -0.0468
15903W        W31372   4.208  11.010   1.229  0.1690  0.1615 -0.1489
15904W        W31373  14.829   5.900  12.927 -0.1948  0.1886 -0.1380
15905W        W31374   0.078   3.633   2.413 -0.0479  0.0301  0.0342
15906W        W31375   8.788   8.783   0.924  0.0247 -0.1573 -0.1505
15907W        W31376  16.245  12.794   2.621 -0.0584 -0.1827  0.0613
15908W        W31377  15.770  10.157   3.479 -0.2186 -0.1709  0.1238
15909W        W31378   0.905  18.165  11.979  0.0072 -0.0104 -0.4302
15910W        W31379   1.674  10.549  14.158 -0.4380  0.0969 -0.4188
15911W        W31380   4.919   5.443   2.131 -0.1273  0.1114 -0.2450
15912W        W31381  13.467   4.384  11.796  0.0018 -0.1502  0.0674
15913W        W31382  17.454   0.702   1.513 -0.0203 -0.0335  0.0231
15914W        W31383   8.351   2.727   4.171  0.0802  0.2236  0.0666
15915W        W31384   9.416   4.256  14.988  0.0217 -0.3119  0.1056
15916W        W31385   7.985   5.850   0.681  0.1486 -0.0792 -0.0044
15917W        W31386  13.575   1.625  15.303  0.1272  0.0642 -0.0158
15918W        W31387   7.744   3.021  11.124 -0.0992 -0.4056  0.1169
15919W        W31388   8.231  12.910  14.930  0.0564  0.1182  0.2208
15920W        W31389   4.605  10.297   1.832 -0.4143  0.0803 -0.1494
15921W        W31390   4.191   4.790   3.651 -0.0808 -0.0041 -0.1018
15922W        W31391  15.375  17.964   0.746 -0.0981  0.5272 -0.0363
15923W        W31392   0.325   0.107  13.124  0.0468  0.2671 -0.1070
15924W        W31393   6.253   9.532  11.874  0.0348 -0.0196 -0.2396
15925W        W31394  16.735   2.354   2.955 -0.4172 -0.1103  0.4002
15926W        W31395   0.648   7.701  15.076 -0.1161 -0.1478 -0.1067
15927W        W31396  10.229   8.010  13.805 -0.5027 -0.1245 -0.1489
15928W        W31397   9.092   6.995   3.344  0.2657 -0.2237 -0.1231
15929W        W31398  12.701   2.286  13.153  0.1540  0.0624  0.0497
15930W        W31399  13.656  16.686  10.830  0.1120  0.2639 -0.0555
15931W        W31400  12.776   5.717  15.936 -0.2025 -0.0872 -0.0781
15932W        W31401   2.933  15.464   3.453  0.3503 -0.1776  0.1662
15933W        W31402  12.412  16.901  10.922 -0.0617 -0.1638 -0.1401
15934W        W31403  15.454   3.710  13.918  0.1077 -0.1218 -0.3162
15935W        W31404  18.013   7.696  11.006 -0.1152  0.0524  0.0381
15936W        W31405   6.437  18.172  11.241 -0.1373  0.0994  0.2570
15937W        W31406   0.627   0.775   4.643  0.0831  0.2710 -0.2415
15938W        W31407  16.008  11.992   1.157  0.0843  0.2676 -0.1506
15939W        W31408  18.313  17.207  11.782 -0.0598  0.1502  0.2331
15940W        W31409  12.563   8.603  12.253  0.3664  0.1417 -0.2183
15941W        W31410  13.482   0.159  13.745 -0.0883  0.1551 -0.0482
15942W        W31411  17.053   5.013   6.001  0.1176 -0.0601  0.1521
15943W        W31412  14.826  13.021  15.043 -0.0725  0.0432  0.1527
15944W        W31413   9.000  10.566  14.068 -0.1426 -0.0128  0.0880
15945W        W31414  17.331   7.965  15.277  0.2968  0.0407 -0.2154
15946W        W31415  15.629   6.396  13.102  0.1072  0.1378  0.0728
15947W        W31416  11.060  13.499   1.519  0.0503  0.0764  0.1524
15948W        W31417  17.130  12.145   4.290 -0.1705 -0.2190  0.0934
15949W        W31418  15.076  12.407   0.634  0.0532 -0.1778  0.0954
15950W        W31419  12.560   2.429  15.798 -0.1656 -0.0401  0.0110
15951W        W31420  13.759  14.819   5.610  0.2181 -0.2353 -0.1242
15952W        W31421   6.788  12.372   1.908  0.0183 -0.3060 -0.2846
15953W        W31422   8.372  12.357  12.680 -0.0407  0.1395 -0.1225
15954W        W31423  14.318   7.141  13.995 -0.3473 -0.2417 -0.1554
15955W        W31424   5.184   3.139   6.426 -0.1100 -0.0487  0.2464
15956W        W31425   6.858   6.525  13.403  0.2253  0.0588 -0.2630
15957W        W31426  14.831  16.812  10.973  0.0366 -0.0807  0.1155
15958W        W31427   0.514  12.593   0.058  0.0902 -0.0186 -0.1588
15959W        W31428   9.399  14.038  15.688 -0.0010 -0.3495 -0.2933
15960W        W31429   1.620   3.754   5.058 -0.2901 -0.0424 -0.0317
15961W        W31430  17.181  12.278   2.529 -0.1473  0.0018 -0.0594
15962W        W31431   4.866  17.028   2.998  0.1700 -0.0815 -0.1529
15963W        W31432   0.622   0.236   4.775  0.0468 -0.3758 -0.3244
15964W        W31433  10.580  16.947  14.137 -0.0125  0.0810 -0.0989
15965W        W31434  16.062   9.896  12.910 -0.3173 -0.0141 -0.1302
15966W        W31435   9.428   8.269  11.863 -0.3215  0.0804 -0.2771
15967W        W31436   8.305  12.449   4.095  0.3821 -0.0574  0.0134
15968W        W31437   7.375   2.157   3.400  0.0880  0.0026 -0.0174
15969W        W31438   6.994   9.006  15.123 -0.1052 -0.0507  0.0378
15970W        W31439   5.558   7.358   4.759 -0.1045  0.1184 -0.1028
15971W        W31440  10.412  11.655  15.121  0.0579 -0.1929 -0.1334
15972W        W31441   9.056   3.013   4.288  0.0211 -0.2149  0.0191
15973W        W31442   6.068   6.923   4.246 -0.0002 -0.0556 -0.0394
15974W        W31443  18.322   4.981   5.530 -0.0224 -0.1225  0.0893
15975W        W31444   8.317   0.399  15.181  0.1786 -0.0184 -0.1399
15976W        W31445  14.250  12.862  13.415 -0.0379  0.1183 -0.2478
15977W        W31446   0.557   6.924  15.418 -0.1422  0.0103 -0.0046
15978W        W31447  11.980   7.894   4.072 -0.1805  0.1137  0.1612
15979W        W31448  12.023   3.555   3.151 -0.5515  0.0687 -0.0540
15980W        W31449   1.323   3.387  12.894  0.2430 -0.1899 -0.0086
15981W        W31450   5.018   0.735  15.982 -0.3912 -0.2695  0.1277
15982W        W31451   3.474  10.572  12.730 -0.1971 -0.2653  0.2020
15983W        W31452  13.934  13.277   3.086 -0.0603  0.0257  0.1054
15984W        W31453   4.856  10.353   5.222  0.0504 -0.1682 -0.0250
15985W        W31454  14.127   2.380  14.353  0.3006  0.1422 -0.1477
15986W        W31455  18.156   3.545   1.950  0.0253  0.4194 -0.1484
15987W        W31456   9.265   2.131   4.036 -0.1697 -0.1796 -0.4378
15988W        W31457  17.553  12.886  11.197  0.2332  0.0365 -0.2047
15989W        W31458   7.063  12.055   2.101 -0.2278 -0.0599 -0.2228
15990W        W31459  16.638   0.885   2.568 -0.0979  0.0702  0.4816
15991W        W31460  16.323   0.635  13.086  0.2750  0.2343  0.2540
15992W        W31461  12.387   1.609   0.722  0.0650 -0.1794 -0.3638
15993W        W31462  12.389   2.617   4.088  0.0632  0.2255  0.0286
15994W        W31463  14.522   9.640   2.835  0.1882 -0.1686 -0.2337
15995W        W31464  10.651   1.588   0.859  0.1032  0.0497  0.3167
15996W        W31465  11.439   3.189  11.366 -0.1433  0.2089 -0.0578
15997W        W31466   7.355   9.770   1.107  0.1462  0.4605  0.1294
15998W        W31467  14.094  10.887   4.375 -0.2281  0.0403 -0.0644
15999W        W31468   8.307   7.460   5.946 -0.1775 -0.0740  0.2396
16000W        W31469   4.625  11.999  10.096 -0.4620  0.1109 -0.2191
16001W        W31470   1.098   8.813  14.507  0.3774  0.0146 -0.0992
16002W        W31471  12.379  15.544   1.473  0.3260  0.0305  0.3031
16003W        W31472   7.813   7.112   0.890 -0.1029 -0.0366 -0.2290
16004W        W31473  15.402   6.070   2.135  0.0682 -0.1907 -0.0907
16005W        W31474  12.612   8.601  14.009  0.2570  0.3481 -0.0015
16006W        W31475   1.197  16.874  11.141  0.1020 -0.3026  0.1989
16007W        W31476  15.439   2.354  11.650 -0.2119 -0.0746 -0.0141
16008W        W31477   1.247   5.905   0.223 -0.0206 -0.1400  0.2060
16009W        W31478   8.378  15.898  13.082 -0.2269 -0.3580 -0.0251
16010W        W31479   3.631   8.308   4.562  0.0720  0.0070  0.1834
16011W        W31480  11.091  10.829   0.868  0.4593  0.0297  0.1126
16012W        W31481   8.002   4.446   0.917  0.0503 -0.1831  0.0109
16013W        W31482  11.822   7.778   3.372  0.0278  0.0498 -0.2950
16014W        W31483  10.488   6.414  12.879  0.1400  0.0196  0.2327
16015W        W31484   3.703  15.324  11.193  0.3999  0.0974 -0.4382
16016W        W31485   8.093  10.158  13.705 -0.0017 -0.2563 -0.1714
16017W        W31486  13.641   4.862   3.705 -0.0368 -0.2391 -0.3051
16018W        W31487  14.988  18.227  14.250 -0.0560  0.0040 -0.3901
16019W        W31488   9.700  17.267  11.399 -0.2666 -0.1625  0.4229
16020W        W31489   1.164   4.253   1.118 -0.0966 -0.0002 -0.0280
16021W        W31490   3.365  11.729  13.481 -0.1022 -0.1781 -0.1927
16022W        W31491   5.074   5.926  10.468  0.2444 -0.1570  0.2777
16023W        W31492  14.168   3.190  15.541 -0.1532  0.2228  0.1278
16024W        W31493   4.393  15.483  15.633  0.2469 -0.0575  0.2507
16025W        W31494   3.904   2.745  12.793  0.0844  0.3002  0.0675
16026W        W31495   2.401   5.886  15.883 -0.0602  0.0806  0.0134
16027W        W31496   2.491  11.627  13.112  0.1920  0.4424  0.2763
16028W        W31497  12.064  17.084  13.059  0.0692 -0.1622 -0.1242
16029W        W31498  14.740   1.538  13.858 -0.1095 -0.2341 -0.0868
16030W        W31499  13.986   8.845  10.996  0.0893 -0.0490  0.2705
16031W        W31500  18.414   2.074   5.499 -0.3157 -0.3097 -0.2711
16032W        W31501  11.344   8.345   5.507 -0.1183  0.3381 -0.0310
16033W        W31502  17.603  12.008   4.446  0.2185 -0.0492  0.2041
16034W        W31503   7.616   7.497   1.640 -0.5264  0.3310  0.1337
16035W        W31504   3.960  15.895  10.798 -0.1115  0.3160 -0.1609
16036W        W31505  12.675   9.101   4.820 -0.1352  0.0018  0.0176
16037W        W31506   2.697   6.056  14.654 -0.4295  0.4269  0.0722
16038W        W31507   6.369   1.432   5.579  0.1881 -0.2751  0.0877
16039W        W31508   2.309  13.886  12.442 -0.0374  0.1554 -0.0431
16040W        W31509   0.447  13.404  11.138 -0.2195 -0.1121  0.5096
16041W        W31510  13.786   4.829   0.095  0.2125 -0.3746 -0.1151
16042W        W31511  13.254   1.318  14.343  0.0691  0.0773 -0.1233
16043W        W31512   7.713   1.885   3.123  0.0150  0.0286  0.0329
16044W        W31513   4.078  15.442  14.790 -0.2199 -0.1407  0.1769
16045W        W31514   7.834  17.955   4.658 -0.3135 -0.1494  0.0924
16046W        W31515   7.776  15.479  11.966  0.0143  0.2120  0.1358
16047W        W31516   7.569  17.406  15.091 -0.0673 -0.3309 -0.0522
16048W        W31517   5.760  14.316  10.144  0.1320  0.0992 -0.0535
16049W        W31518  12.888  10.034  12.479  0.1261 -0.0629  0.5408
16050W        W31519  10.851   9.139  15.877  0.4487  0.0094  0.0890
16051W        W31520  18.368  15.809  13.931  0.1173  0.0807 -0.0956
16052W        W31521   0.944   9.019  14.042 -0.0466 -0.1292  0.2855
16053W        W31522   6.936   5.155  15.401  0.3350  0.1639 -0.3419
16054W        W31523  13.967   4.964   4.761  0.1910  0.1572  0.2136
16055W        W31524   4.419  12.660  14.791 -0.1277  0.2022 -0.1097
16056W        W31525   6.051   0.446  11.891 -0.0389 -0.3294 -0.3686
16057W        W31526  10.735   7.113  14.769 -0.0774  0.0347 -0.0676
16058W        W31527  17.798  16.232  12.077  0.2768  0.2059 -0.1215
16059W        W31528  17.679  17.873   3.694  0.0283 -0.2018 -0.0129
16060W        W31529  10.637  13.843  11.956 -0.0129  0.1837  0.1619
16061W        W31530  14.824   6.572  13.546  0.2866  0.0262 -0.0772
16062W        W31531   0.707   5.691   1.338 -0.0819  0.1423 -0.2883
16063W        W31532   4.065  12.550   3.498  0.0181 -0.0060  0.1258
16064W        W31533  10.607   9.626   4.359  0.0157 -0.1168 -0.0998
16065W        W31534   6.789  17.838  15.459  0.0267 -0.1187 -0.1865
16066W        W31535   5.883   8.395   5.094 -0.0932 -0.1210  0.3701
16067W        W31536  14.711  14.199   5.826 -0.3284  0.1121 -0.2199
16068W        W31537  18.456   3.746  14.813 -0.0562 -0.1132  0.0060
16069W        W31538  12.065   7.223   2.723  0.0274  0.0236 -0.0466
16070W        W31539  11.351   8.778   5.264  0.0159  0.1925 -0.1494
16071W        W31540  12.793  15.836   2.623 -0.1933 -0.2576 -0.0317
16072W        W31541   9.749  15.695  13.234 -0.0037 -0.4170  0.2207
16073W        W31542  10.897  10.862   3.526  0.0731  0.3440  0.1285
16074W        W31543   7.046   2.131  13.015  0.0678  0.0138  0.1433
16075W        W31544   3.201   7.325   0.946 -0.0879 -0.1245  0.1914
16076W        W31545   3.858  17.551   9.771  0.0563  0.1565 -0.0634
16077W        W31546  14.694  17.074   0.583  0.1098 -0.1115 -0.1100
16078W        W31547  16.230  11.580   1.060 -0.1306 -0.0823 -0.1084
16079W        W31548   3.950   7.604  11.734  0.0452  0.0428  0.0021
16080W        W31549   9.092  12.700   0.272  0.5109  0.0150  0.3559
16081W        W31550  11.812   0.461   1.023 -0.1584  0.2302 -0.0312
16082W        W31551   4.565  13.029   2.595  0.1833 -0.1615 -0.0247
16083W        W31552  15.887  18.273   4.925  0.2276 -0.2372  0.3776
16084W        W31553  11.894   8.398  15.551  0.0781  0.1734 -0.1001
16085W        W31554  10.390   3.141  13.047 -0.1211 -0.0418 -0.0493
16086W        W31555  16.059  13.534   3.950 -0.0916  0.1182 -0.0716
16087W        W31556   1.963   2.247   5.887  0.1983 -0.0914  0.0817
16088W        W31557  13.253   5.583   0.477  0.1108 -0.0437  0.0426
16089W        W31558  11.762  16.786  12.168  0.1272 -0.2683 -0.0700
16090W        W31559   7.613   2.156   1.961  0.1207  0.3499 -0.0406
16091W        W31560   3.075   8.487  12.126  0.0879  0.0228  0.1008
16092W        W31561   6.516   8.315   2.824 -0.0343 -0.1855 -0.1798
16093W        W31562  17.455  14.825   4.750  0.0997 -0.3621  0.1044
16094W        W31563   7.967   5.556  15.441 -0.3067 -0.2669 -0.0386
16095W        W31564  12.296   7.013   1.472 -0.0975 -0.0708 -0.0587
16096W        W31565   0.828  16.489  11.242 -0.1507  0.3088  0.1223
16097W        W31566   5.025   2.928   2.055 -0.4425 -0.0276  0.0748
16098W        W31567  16.496  14.841  10.897  0.0617  0.0295 -0.1521
16099W        W31568  15.401  14.890  15.766 -0.0602  0.0287 -0.2343
16100W        W31569   7.593   7.059   5.770 -0.1219  0.0323 -0.1119
16101W        W31570   2.918   0.936   3.401  0.1562  0.0291  0.0535
16102W        W31571  14.736   5.304   5.820 -0.0331 -0.0681 -0.1248
16103W        W31572   8.405   7.615   1.455 -0.0500 -0.1792 -0.0481
16104W        W31573  15.211   4.852   4.672 -0.1326  0.4294  0.1489
16105W        W31574  10.381  12.075   4.803 -0.0300 -0.1876 -0.1478
16106W        W31575   3.722   6.516   1.195  0.1903 -0.0917  0.0575
16107W        W31576  17.531   3.285   4.135 -0.1494 -0.2091 -0.2179
16108W        W31577   3.304  17.406   2.168  0.5865 -0.0930  0.0670
16109W        W31578  14.163   8.125  13.238 -0.1746 -0.2239 -0.3821
16110W        W31579   3.646   2.600   1.331 -0.0558 -0.1323 -0.1371
16111W        W31580   2.951   6.101  15.972 -0.2239  0.0246  0.3502
16112W        W31581   0.736  10.275  13.334 -0.0962  0.1634 -0.0422
16113W        W31582  17.581   3.887   4.512  0.1295  0.2901  0.0808
16114W        W31583   2.084  17.944   2.467  0.1568  0.3494  0.4137
16115W        W31584  15.832  15.878   2.092 -0.0791  0.2872 -0.1489
16116W        W31585   3.273   9.367  15.933  0.1994 -0.0095  0.2544
16117W        W31586  12.381   3.214   3.066 -0.0336 -0.1660  0.2247
16118W        W31587  15.189   3.061  15.963 -0.0321 -0.1510  0.1726
16119W        W31588  12.635   5.786  12.678  0.1481  0.2626 -0.1576
16120W        W31589  12.251  15.665   4.074  0.2118  0.1861 -0.0279
16121W        W31590   1.780  13.594  11.605 -0.2746 -0.4910 -0.0108
16122W        W31591  16.056  17.006   4.892  0.1883  0.1132  0.1339
16123W        W31592  12.343   1.058  14.816 -0.2399  0.0034 -0.0307
16124W        W31593  10.657   4.405  13.535  0.1184 -0.0455  0.0345
16125W        W31594  17.265  10.262  15.748  0.1588 -0.3640 -0.2852
16126W        W31595  13.214  15.184  11.468 -0.0130 -0.1665 -0.1660
16127W        W31596  12.211   9.230  11.437  0.1131  0.1261  0.0088
16128W        W31597  12.729  16.410   3.798 -0.1155 -0.0556 -0.3968
16129W        W31598  13.965   9.232   5.128 -0.3689 -0.0836 -0.3639
16130W        W31599  12.516  16.814   1.037  0.2591  0.0561 -0.2617
16131W        W31600   3.147   8.131   3.850  0.0835 -0.3408  0.0890
16132W        W31601   8.276  16.136  15.201  0.3079 -0.2379  0.2070
16133W        W31602   1.671   0.654   2.754 -0.2661 -0.1349 -0.1865
16134W        W31603   8.393  15.120  10.511  0.1199  0.0648  0.1697
16135W        W31604   2.284   8.967   2.768  0.1356  0.1308  0.3293
16136W        W31605   2.418  12.596   0.442 -0.0143  0.0626 -0.1703
16137W        W31606   4.259  15.105   0.516  0.2373  0.1872 -0.1051
16138W        W31607  12.102  10.712   4.853 -0.1942  0.0849 -0.1329
16139W        W31608   6.511  16.890  13.474 -0.1889  0.1389 -0.0374
16140W        W31609  17.672  14.176  10.703  0.0278  0.1476 -0.1419
16141W        W31610  12.000   0.989  14.498 -0.1204 -0.0144 -0.0328
16142W        W31611  17.942  12.556  11.144  0.4525 -0.0584 -0.0196
16143W        W31612   1.451   1.746   4.984  0.0150 -0.1702  0.2160
16144W        W31613   4.789   4.361   5.419  0.2991 -0.0617 -0.2114
16145W        W31614  18.346  13.858  13.662 -0.0071  0.0331  0.1280
16146W        W31615   9.675  10.490  15.033  0.1771  0.0662  0.3789
16147W        W31616  14.796  17.587   0.741  0.2091  0.1990 -0.2150
16148W        W31617   9.994  18.456  11.492 -0.1809  0.0214 -0.1094
16149W        W31618  13.370  11.436   1.386  0.1712 -0.0247  0.1854
16150W        W31619   1.026   3.060  14.280  0.3378 -0.0126  0.3076
16151W        W31620  16.423   5.495   5.699 -0.2411  0.1287  0.0230
16152W        W31621   2.692   8.439   1.490 -0.0513  0.2800  0.0989
16153W        W31622   2.336  17.592   5.113 -0.3173 -0.1859  0.1267
16154W        W31623   8.838   7.923  10.275  0.0977  0.2652 -0.0786
16155W        W31624  15.102   5.561  11.506 -0.0800  0.2159 -0.2436
16156W        W31625   8.115  10.497   4.688  0.2396 -0.2280  0.1580
16157W        W31626  12.873   3.589   5.553  0.0917  0.1398 -0.1076
16158W        W31627   9.048  11.288   2.788  0.0740  0.0125 -0.0992
16159W        W31628   5.571  10.046   6.412  0.5166  0.0425 -0.0964
16160W        W31629  14.145   3.047   2.944 -0.0657  0.1218 -0.1272
16161W        W31630   9.665  17.400   2.633  0.0700 -0.1517 -0.2069
16162W        W31631  11.391   2.088   2.629  0.0616 -0.0311  0.1837
16163W        W31632  17.127   2.634   3.678 -0.1521  0.4999 -0.0636
16164W        W31633   0.073   7.608   4.439  0.1309 -0.2346  0.0360
16165W        W31634  10.800   1.871  12.155 -0.0169  0.1556  0.1218
16166W        W31635   7.790   0.289   5.225  0.1321  0.1366  0.1027
16167W        W31636  14.329  10.099  11.038  0.0836 -0.2453 -0.0854
16168W        W31637  14.956  15.762   2.522 -0.1250 -0.3458  0.3017
16169W        W31638  14.869   1.229  13.538 -0.1094 -0.0670  0.1367
16170W        W31639   7.669   1.155   4.628  0.1389 -0.1010 -0.2041
16171W        W31640  11.241   7.773  15.266  0.3348 -0.0615  0.3069
16172W        W31641   8.617   1.719   0.558  0.0067  0.1349  0.2996
16173W        W31642  17.379  15.386   2.935 -0.0690  0.1012  0.1102
16174W        W31643   7.163   7.033   3.196 -0.3469 -0.0065 -0.1382
16175W        W31644   8.305  12.009   2.652 -0.5246 -0.1957 -0.0879
16176W        W31645   3.337  16.260  13.105  0.1753 -0.3041  0.1250
16177W        W31646   2.948   9.381  11.673 -0.3049  0.1981 -0.1132
16178W        W31647  16.958   7.837   2.209 -0.1083 -0.1350  0.0058
16179W        W31648   4.442   6.104  15.503 -0.1067 -0.2349 -0.0352
16180W        W31649  10.980   4.192  11.614 -0.3250  0.0354 -0.0752
16181W        W31650   8.113  10.618  14.620  0.1937  0.0718  0.1024
16182W        W31651   3.044   7.314  14.604  0.1357 -0.0304 -0.3133
16183W        W31652   7.493   2.822   5.181 -0.4384  0.0838  0.1020
16184W        W31653  17.645  17.788  13.414 -0.1358 -0.2322  0.1255
16185W        W31654   2.196  16.092   3.549  0.1415  0.2204 -0.4363
16186W        W31655  13.650   3.021   1.907  0.2541 -0.2050 -0.2694
16187W        W31656   7.611   1.774  10.496 -0.2411  0.3573  0.2011
16188W        W31657  17.481  11.858  13.639  0.1776 -0.2142  0.0220
16189W        W31658   9.350   8.566  12.629  0.1237 -0.0495  0.3745
16190W        W31659  14.558  12.752  14.490  0.0485 -0.0444 -0.0975
16191W        W31660   6.315   8.506   4.010  0.0761  0.3002 -0.0393
16192W        W31661   3.334  17.868  15.595  0.0120  0.0820 -0.0382
16193W        W31662   0.036  10.020   4.846  0.0216  0.1363 -0.1076
16194W        W31663  14.778   7.166   4.629  0.1489 -0.0506  0.1712
16195W        W31664   0.150   9.786  14.888 -0.0940  0.0477 -0.0742
16196W        W31665   9.225   8.384   3.631 -0.0581  0.2053 -0.1225
16197W        W31666  15.390   1.428   0.249 -0.1939 -0.2161 -0.2529
16198W        W31667  13.898  18.027  15.779 -0.1432 -0.0614  0.0382
16199W        W31668   5.367  17.812   3.908  0.2212 -0.2681 -0.2557
16200W        W31669   2.995  14.996  14.155 -0.0231  0.1345  0.1943
16201W        W31670   2.124  12.131  14.938  0.2031 -0.2675 -0.2916
16202W        W31671  15.497   7.359  14.048 -0.1724 -0.1274  0.1216
16203W        W31672  16.738   2.723  12.377  0.0476  0.0092 -0.3316
16204W        W31673  17.909   5.112   2.235 -0.2255 -0.0246  0.1204
16205W        W31674  14.926  15.169   4.083 -0.1892  0.3399 -0.1419
16206W        W31675   6.771   5.279   3.919 -0.0151 -0.2367  0.2731
16207W        W31676  17.881  14.544  14.686  0.0990 -0.0312  0.2213
16208W        W31677   6.838   9.819   1.233  0.1359  0.0278 -0.2460
16209W        W31678  11.141   1.444   4.943 -0.1223  0.1055  0.1228
16210W        W31679   7.890  14.234  12.224 -0.3526  0.1010  0.0853
16211W        W31680   3.054   8.385   2.457  0.0404 -0.1658 -0.5720
16212W        W31681   7.926   0.363   1.809  0.3403 -0.1367 -0.1025
16213W        W31682   0.658   0.677  15.196  0.1073 -0.0477 -0.4586
16214W        W31683   6.456  12.544  12.340  0.0979 -0.1703 -0.2479
16215W        W31684  11.025  10.538   2.017 -0.0562 -0.1594  0.0583
16216W        W31685   8.312   1.134  14.850  0.1164 -0.2100 -0.2406
16217W        W31686   1.162   8.219  12.989 -0.1997 -0.0263  0.2722
16218W        W31687   6.919  15.975  15.924  0.0459 -0.1802 -0.0233
16219W        W31688   7.086  16.708  12.331  0.0421 -0.0786 -0.2695
16220W        W31689   3.466   4.856  15.672  0.0976 -0.1881  0.1581
16221W        W31690   6.732  11.482  12.953 -0.0055 -0.0167 -0.2194
16222W        W31691  11.647  10.353   3.661  0.0420 -0.1370 -0.3830
16223W        W31692   1.965   8.277  12.789 -0.0288 -0.2867  0.0716
16224W        W31693   3.620   0.546  12.302 -0.0142  0.1712 -0.1846
16225W        W31694  10.377   5.374   2.382 -0.1099  0.0807 -0.0848
16226W        W31695   3.909  12.477   0.318 -0.2301 -0.0601  0.0184
16227W        W31696  12.624   5.171   5.220 -0.0979 -0.0590  0.1663
16228W        W31697  10.641  11.190  11.608 -0.2544  0.1757 -0.3225
16229W        W31698  16.028   1.150   0.958 -0.0418 -0.2304 -0.0028
16230W        W31699  10.684   2.108   0.940 -0.1042 -0.0922  0.0269
16231W        W31700  12.493   3.172  15.345  0.1106 -0.1215  0.0755
16232W        W31701   2.783   6.083  12.706  0.3906  0.2247  0.0126
16233W        W31702   5.336   4.266  15.381  0.2013  0.2928 -0.0612
16234W        W31703   8.127   7.549  12.080  0.0556  0.0145  0.0632
16235W        W31704   7.588  16.060   1.200  0.1405  0.1421 -0.2175
16236W        W31705  14.589   7.198   1.882 -0.1784  0.1517 -0.0848
16237W        W31706   8.369  16.647  11.180 -0.3065  0.1408  0.3343
16238W        W31707  11.463   9.440  12.753 -0.0221  0.1529 -0.1529
16239W        W31708   7.419  17.588   0.923 -0.2406 -0.0016 -0.0049
16240W        W31709   8.226   0.258  11.561  0.0728  0.0700  0.0982
16241W        W31710  18.139   5.151  15.278  0.1409 -0.0154 -0.1417
16242W        W31711  17.843  15.044   1.968 -0.0399 -0.2451  0.0575
16243W        W31712  14.751   0.430   1.902 -0.0668 -0.1583 -0.0859
16244W        W31713  14.515   4.164  12.620  0.1659 -0.0118  0.0039
16245W        W31714   0.436   9.106   0.589 -0.2793  0.3747  0.2910
16246W        W31715  16.570  13.659  10.661  0.1327 -0.2301  0.2705
16247W        W31716   3.700   8.394  11.130  0.1683 -0.2892 -0.1770
16248W        W31717   1.329   0.195  13.888  0.0530  0.1558 -0.0498
16249W        W31718   0.839   4.668  14.264  0.1992 -0.0717  0.0765
16250W        W31719  14.532   9.372  14.695 -0.3184  0.2725  0.1307
16251W        W31720   4.060   6.406  15.353 -0.1429  0.2100  0.2054
16252W        W31721  15.406   3.927  15.950  0.1469 -0.1307 -0.0917
16253W        W31722   5.414   3.521   4.706 -0.3094  0.0031  0.0499
16254W        W31723  10.970  16.246   0.425  0.1021 -0.0971  0.2836
16255W        W31724   4.638   9.270   2.744 -0.2255  0.3229 -0.0551
16256W        W31725  16.029  15.218  15.600 -0.0782 -0.0247 -0.0474
16257W        W31726  12.164   8.863  13.876 -0.3115 -0.0964  0.1935
16258W        W31727   6.166   4.849   2.346 -0.2052 -0.0399  0.0012
16259W        W31728   0.474   2.388  15.248  0.0343  0.1764  0.2865
16260W        W31729   1.533   5.705  15.005  0.1997 -0.1147  0.0223
16261W        W31730   2.338  16.349  11.869 -0.2604 -0.1116 -0.0822
16262W        W31731  10.764   8.952   1.690  0.2192  0.2414  0.3486
16263W        W31732   1.163  16.263   3.872  0.1665  0.2345 -0.0332
16264W        W31733   0.748   1.762   3.856 -0.0106 -0.1500  0.1286
16265W        W31734  15.297   8.487  15.367 -0.2405 -0.2107  0.0366
16266W        W31735  15.734  11.413  15.380  0.3031  0.0546 -0.1027
16267W        W31736   8.318   1.156  13.743  0.1474 -0.1908  0.0870
16268W        W31737   8.550   1.593  12.456  0.0954 -0.1435 -0.0770
16269W        W31738  13.379   7.998  11.035  0.0046  0.0663  0.2453
16270W        W31739   1.167   8.716   0.438 -0.0040 -0.3162 -0.0010
16271W        W31740  14.888   8.126  13.102 -0.0218 -0.0108  0.0365
16272W        W31741   7.152   8.071   5.862 -0.0088 -0.0180  0.0919
16273W        W31742   8.610   1.167   4.760 -0.1177 -0.2503 -0.0799
16274W        W31743   3.891   1.000   4.672  0.4653 -0.1948 -0.0032
16275W        W31744  14.750  14.404  12.686 -0.0491 -0.0923  0.4031
16276W        W31745  15.618   6.246   0.164 -0.0602  0.2794  0.1601
16277W        W31746   8.074   0.899  10.748  0.0534 -0.1987 -0.1513
16278W        W31747   8.897   0.837   0.569 -0.2212 -0.3518  0.2560
16279W        W31748   5.822   3.047  12.845  0.1863 -0.0821  0.0005
16280W        W31749   8.950  17.355  15.322 -0.1356 -0.2363  0.0135
16281W        W31750   6.582   2.600   3.282  0.3965 -0.3145 -0.0619
16282W        W31751  11.927   5.915  11.588  0.3461  0.1940 -0.0914
16283W        W31752  12.922  14.181  12.413  0.3176  0.2818 -0.1463
16284W        W31753  14.280  11.170  14.930 -0.1975 -0.3342  0.2372
16285W        W31754   1.168  13.286   0.091 -0.1861 -0.0043  0.0483
16286W        W31755   7.205   4.085   5.164  0.1453  0.1410 -0.1621
16287W        W31756  12.821   6.198   1.329 -0.2981 -0.3130 -0.0261
16288W        W31757   3.597  15.578   2.731  0.0093  0.0231 -0.0194
16289W        W31758  16.447   8.427  14.715  0.0867 -0.4778  0.2332
16290W        W31759   1.327  15.062   3.148 -0.1395  0.0493 -0.0234
16291W        W31760   8.057   8.099  11.330  0.1278 -0.1493 -0.2175
16292W        W31761   4.144   6.705  11.371  0.1874  0.1431 -0.0056
16293W        W31762  11.444   2.079  15.437  0.4441 -0.1918  0.0127
16294W        W31763   8.027  14.760   5.058 -0.1773  0.1356 -0.0337
16295W        W31764  15.339   3.290  14.204  0.2028  0.0973 -0.4885
16296W        W31765  14.280   7.375  15.426  0.2980  0.1256 -0.1263
16297W        W31766   7.980  11.452  15.360  0.1459  0.4736 -0.0461
16298W        W31767   4.205   8.007  11.410  0.0098 -0.3898  0.0819
16299W        W31768   9.316  15.634  11.917 -0.0334  0.0939  0.2049
16300W        W31769   3.925  13.136   4.641 -0.0350 -0.2211  0.2244
16301W        W31770   3.015  16.466  12.317 -0.0192  0.2970  0.0349
16302W        W31771   8.944  10.847   1.410  0.2558  0.0600 -0.0353
16303W        W31772   7.934   7.818  15.039 -0.0010  0.1430 -0.0585
16304W        W31773   2.170  15.501  13.895  0.3425 -0.1476  0.0453
16305W        W31774   6.805   5.217  11.668  0.3791 -0.0884 -0.0693
16306W        W31775   2.247  10.728  15.697 -0.4352 -0.2846 -0.2642
16307W        W31776  14.390  17.049   4.430  0.1773  0.2771 -0.0495
16308W        W31777   5.779   6.345   1.751  0.2395  0.0928 -0.0538
16309W        W31778  14.396   0.431  15.538 -0.2243  0.2274  0.0025
16310W        W31779  17.677   1.940  14.728  0.3519 -0.0690 -0.0345
16311W        W31780   4.781  11.444   3.364 -0.1066 -0.1021  0.2515
16312W        W31781  11.576  14.723   5.280  0.1124 -0.0003 -0.1773
16313W        W31782   8.835   5.561   1.271 -0.2292  0.1534  0.0703
16314W        W31783  14.710  17.151  15.148  0.0918  0.5342  0.2591
16315W        W31784   8.715   7.298   5.060  0.0741 -0.3354  0.0254
16316W        W31785   2.644   5.194   2.883  0.2220 -0.0416 -0.0217
16317W        W31786  10.663   9.012   2.741 -0.0695  0.1414 -0.1942
16318W        W31787  17.559  10.560  13.664 -0.0361 -0.2677  0.1669
16319W        W31788  11.409  12.003  11.990  0.0031 -0.2621 -0.1086
16320W        W31789   5.652   5.336   9.821 -0.1704  0.0965 -0.3264
16321W        W31790  10.364   1.315  13.464  0.1958  0.3186  0.0263
16322W        W31791   1.517  14.971   1.078 -0.0800 -0.3057  0.0710
16323W        W31792   2.450  12.350   3.136 -0.0074  0.0804  0.2774
16324W        W31793   2.859   6.334   1.800 -0.1580 -0.0914  0.3561
16325W        W31794  15.463   2.652  14.778  0.0202  0.1938 -0.0658
16326W        W31795  15.812  14.819  11.522  0.2503  0.1162  0.2960
16327W        W31796   5.849  14.971   2.307 -0.2177 -0.0457  0.1117
16328W        W31797  16.236   7.630  15.157  0.0074 -0.3610  0.0450
16329W        W31798   3.424   4.127   1.189  0.1874 -0.0296 -0.2335
16330W        W31799   3.291   3.433   5.165  0.0525 -0.0075 -0.2005
16331W        W31800   8.786  10.438  13.496 -0.0217 -0.0596 -0.1189
16332W        W31801  14.305   7.526  12.595  0.3012 -0.0594 -0.0541
16333W        W31802  10.532   1.214  15.927  0.0640  0.0125 -0.2675
16334W        W31803  17.959   3.611   2.448  0.1843 -0.0774 -0.2346
16335W        W31804  10.386   7.458   2.006 -0.2989  0.0528 -0.1174
16336W        W31805   5.898   2.300   5.580  0.1529  0.0732 -0.0056
16337W        W31806   3.909  13.979  11.153 -0.4462 -0.0338 -0.0960
16338W        W31807   0.382   7.218   4.654 -0.1584  0.1016  0.2102
16339W        W31808   3.126  11.494  11.862  0.0325  0.1694  0.1578
16340W        W31809  17.906   6.770  12.495  0.3880  0.2936 -0.0842
16341W        W31810  15.953   9.063  15.189  0.0205  0.1069 -0.0759
16342W        W31811   0.473   5.287   4.390 -0.1988 -0.2475 -0.0732
16343W        W31812  12.435   6.866  15.611  0.0297 -0.1031 -0.1138
16344W        W31813  11.748   5.539   4.914  0.5580 -0.3206  0.0249
16345W        W31814   8.934  16.828  15.659  0.0732  0.2469  0.2649
16346W        W31815   8.055   1.784  15.844  0.0238 -0.2707 -0.1086
16347W        W31816   8.746   7.657   4.724  0.1762  0.0797  0.0434
16348W        W31817   0.357  16.232   0.615 -0.0602  0.2594 -0.2995
16349W        W31818   1.175  16.981  12.420 -0.1620  0.0395  0.1194
16350W        W31819  13.567   7.443   2.908 -0.0122  0.0244 -0.0817
16351W        W31820  16.204  13.818  12.854  0.1334  0.0589 -0.3232
16352W        W31821   4.904   7.730   3.404  0.3317  0.0659 -0.1041
16353W        W31822   0.924  10.861   4.664  0.0425 -0.1368 -0.0377
16354W        W31823  18.369   5.544   3.547 -0.0584  0.1616  0.1332
16355W        W31824   3.031  16.171   1.903 -0.0046 -0.1529 -0.0831
16356W        W31825  14.477  13.451  12.875 -0.1016 -0.0842  0.2480
16357W        W31826   5.120  15.907  14.066  0.2445 -0.0634  0.2533
16358W        W31827   6.770  16.593  14.733 -0.3789  0.0879  0.2709
16359W        W31828  15.271  13.610   4.018  0.1217  0.2097 -0.2386
16360W        W31829  14.413  13.451   4.717  0.2286  0.0727 -0.2011
16361W        W31830   0.771   3.887  11.760  0.0226  0.3147 -0.1549
16362W        W31831  11.941   4.737  13.229  0.3798  0.6313 -0.0443
16363W        W31832   1.840   4.725   4.460  0.1336 -0.1482  0.3109
16364W        W31833   0.352  10.238  12.343  0.1542  0.1311  0.3772
16365W        W31834  15.969  13.490   1.291  0.2491 -0.3299 -0.1449
16366W        W31835  12.123   3.529  15.380  0.0024 -0.0444  0.0323
16367W        W31836  12.547   7.298   4.143  0.0973 -0.0553  0.2600
16368W        W31837   3.718  13.455   2.388  0.2317  0.3860 -0.2744
16369W        W31838   2.281   8.155  10.130  0.2033  0.0773 -0.3380
16370W        W31839   4.755   7.701   4.272 -0.2812  0.0785  0.1038
16371W        W31840   5.048  10.144  14.926  0.3235  0.0332  0.2577
16372W        W31841  17.066   9.514   3.406  0.0514  0.0590  0.0402
16373W        W31842  12.201  14.820  12.278 -0.1509 -0.0284  0.1123
16374W        W31843  15.959   1.607  11.163 -0.0599 -0.0320 -0.2299
16375W        W31844   1.782   3.546   1.990  0.1958  0.0973  0.0821
16376W        W31845  12.376  11.024   5.119  0.1187  0.2318 -0.1470
16377W        W31846  15.866   1.918  13.088  0.1445  0.0521 -0.2803
16378W        W31847  14.541   8.715   2.958  0.2882 -0.0619 -0.0017
16379W        W31848   2.801  16.090   4.071 -0.2261 -0.0675  0.1483
16380W        W31849  11.418   0.510   0.545 -0.1984 -0.3048  0.2945
16381W        W31850   9.008  10.262   5.182 -0.3789  0.0931  0.1088
16382W        W31851  14.813  17.559  14.466 -0.3079 -0.0619 -0.1853
16383W        W31852  15.420   8.862   4.719 -0.2492  0.0560  0.0824
16384W        W31853  13.299   1.524   2.322 -0.1389 -0.2603 -0.3281
16385W        W31854  12.086   3.663  12.449  0.3211 -0.1532  0.0815
16386W        W31855   8.041  12.937  12.018  0.1352  0.3274  0.0293
16387W        W31856  14.418   4.738   4.816 -0.1049 -0.1190 -0.1363
16388W        W31857  11.216   6.241  14.431 -0.1549  0.1411 -0.1506
16389W        W31858  12.473  10.877   3.516  0.0542  0.0212  0.0475
16390W        W31859   5.819   6.484   4.449 -0.2835  0.0733 -0.3446
16391W        W31860  11.403   8.270  15.499  0.0155  0.1998  0.0602
16392W        W31861   9.041   8.485  12.160 -0.1092 -0.0324  0.0229
16393W        W31862  11.172  10.806   4.870 -0.3028  0.0456 -0.0740
16394W        W31863  16.037   4.203   2.606 -0.0702  0.0510 -0.1569
16395W        W31864  13.187  15.589  14.730  0.2552  0.1427  0.1061
16396W        W31865   2.701  16.205  16.010 -0.0730 -0.2906  0.2787
16397W        W31866  16.676  12.332   4.470  0.2392  0.0156 -0.0285
16398W        W31867   7.224   2.164  13.871 -0.1765 -0.0947 -0.0252
16399W        W31868   0.151   1.288   1.520  0.1209  0.2630  0.2489
16400W        W31869   3.012   3.733   0.586  0.2646 -0.1684  0.0809
16401W        W31870  11.995   4.627   5.821 -0.0533 -0.1654  0.0557
16402W        W31871  17.002   5.002  11.352 -0.0897  0.0239  0.3184
16403W        W31872   8.346   9.664   1.064 -0.1314 -0.0571  0.2375
16404W        W31873  14.502   2.426   3.424  0.0392  0.2525 -0.2509
16405W        W31874   8.823   6.184   3.053 -0.1300  0.1315  0.1270
16406W        W31875   2.653  17.958  12.113 -0.2410 -0.0105 -0.2497
16407W        W31876  16.249   8.660   0.750  0.2123  0.2286  0.1411
16408W        W31877   5.500   4.496  12.141  0.1673 -0.1161 -0.0770
16409W        W31878   6.153  11.752   3.356 -0.0465 -0.2371 -0.0458
16410W        W31879   1.928   3.957  14.748  0.0584  0.3182 -0.0615
16411W        W31880  17.660  11.064  14.875  0.0123 -0.0644  0.3948
16412W        W31881   7.159   7.765  11.995  0.0900  0.3278 -0.0367
16413W        W31882  17.326   2.612   4.162  0.1438  0.0628  0.1150
16414W        W31883   1.893  13.013  14.689 -0.2305  0.1436 -0.3090
16415W        W31884   8.171   2.864  11.311 -0.2707 -0.0333  0.2810
16416W        W31885  13.918  17.024   5.872  0.0690  0.3743 -0.2486
16417W        W31886  16.800   3.301  14.601 -0.1411  0.1422 -0.3610
16418W        W31887  15.391  17.300  11.621 -0.0335  0.0544 -0.0416
16419W        W31888   2.865   7.321  12.125  0.1315 -0.2227 -0.0601
16420W        W31889   4.438   1.230  11.657 -0.0365  0.1740 -0.2334
16421W        W31890  16.773  14.873  14.701 -0.2633 -0.0825 -0.0928
16422W        W31891   5.008   3.693   1.048  0.0543 -0.3542 -0.1026
16423W        W31892  13.362  14.925  12.993  0.0165  0.1204  0.0276
16424W        W31893   0.058   3.182   5.290 -0.2429  0.1827  0.0166
16425W        W31894  10.774   6.072   4.384 -0.1282  0.2697 -0.0521
16426W        W31895   9.335  14.843  15.469 -0.1328  0.0511 -0.1059
16427W        W31896  17.533   3.618  12.540  0.0914  0.1569 -0.0253
16428W        W31897  18.006   0.743   4.147  0.1518  0.0895 -0.0625
16429W        W31898  17.896   6.922  14.039 -0.0843 -0.1403  0.1916
16430W        W31899  14.795   8.618  12.783  0.0093  0.4918 -0.1620
16431W        W31900   9.764   5.053  11.169  0.1440  0.2323  0.2096
16432W        W31901   0.227  13.094   4.640  0.1548 -0.0382 -0.1763
16433W        W31902   9.516   0.224  11.667  0.1518  0.0096  0.0187
16434W        W31903  12.347  11.559  11.655  0.0703  0.2472 -0.0652
16435W        W31904   9.991  12.824  13.937  0.0962 -0.0972  0.0277
16436W        W31905   3.835  14.237   4.483  0.0352 -0.5584  0.1737
16437W        W31906   2.283  11.789  11.704  0.0313 -0.0697 -0.4819
16438W        W31907   4.293   2.314  12.585  0.0821  0.3299 -0.0519
16439W        W31908  17.780   9.301   2.866  0.4154 -0.1130  0.2168
16440W        W31909  10.235   4.390  14.479  0.1906 -0.1159 -0.3656
16441W        W31910   8.215  13.848  14.604 -0.0216 -0.3321  0.0337
16442W        W31911   3.506   6.010   1.729  0.0300  0.1668  0.2096
16443W        W31912  14.225   6.150  12.296 -0.3467  0.0495  0.2044
16444W        W31913  17.821   7.697   5.839 -0.0289  0.0275  0.1370
16445W        W31914  18.284   0.157  11.564  0.0747  0.1558  0.3054
16446W        W31915  14.916   1.663  12.692 -0.0567 -0.3204 -0.0577
16447W        W31916  15.083   8.604   0.806 -0.2981  0.3160  0.3027
16448W        W31917  15.304   0.257  13.323  0.1316  0.0170  0.3078
16449W        W31918   2.862  12.166   3.269 -0.0465  0.0777 -0.1075
16450W        W31919   8.443   6.575   4.487  0.0753 -0.0748  0.2609
16451W        W31920   9.256   4.052   4.584  0.1463 -0.1254 -0.0329
16452W        W31921   6.817  11.724   3.865 -0.0666 -0.0839  0.1940
16453W        W31922  11.558  15.302  10.534 -0.0898  0.3410  0.3758
16454W        W31923   6.970   3.473   0.164 -0.1271 -0.3352 -0.0983
16455W        W31924  16.388   6.233  14.517  0.3146  0.1140  0.1737
16456W        W31925  10.974   1.891   0.543 -0.1263  0.2380  0.1710
16457W        W31926   3.530  11.770  11.897 -0.2191  0.0591 -0.3483
16458W        W31927   5.910  12.810   3.023  0.0193 -0.2156  0.1915
16459W        W31928   0.440  13.118   2.670 -0.0570  0.3866 -0.1507
16460W        W31929  13.391  16.624  11.375 -0.0512  0.0604 -0.0576
16461W        W31930  17.819  16.487   1.885 -0.0104 -0.0526  0.0662
16462W        W31931  10.670   7.200   5.246  0.0541  0.1279 -0.0240
16463W        W31932  17.100   5.144  12.205  0.2163  0.0036  0.0598
16464W        W31933   3.570   9.892  14.070  0.3739  0.0699 -0.2010
16465W        W31934  17.001  12.077   1.175 -0.1848 -0.2675  0.1358
16466W        W31935   3.891  16.375  13.595 -0.1255  0.0370  0.3341
16467W        W31936  11.040   9.009   3.031  0.0877  0.0265 -0.0403
16468W        W31937  16.082   2.862  13.140 -0.2110  0.1869 -0.0959
16469W        W31938   2.618   9.293   3.107  0.0325  0.3116 -0.1401
16470W        W31939  14.711  16.871   2.838 -0.1184  0.1436  0.2681
16471W        W31940  14.874  16.897   3.393  0.2159 -0.3576  0.0896
16472W        W31941   4.020   0.977   1.001  0.2684  0.0145  0.0850
16473W        W31942   9.380  16.217   1.816 -0.2501 -0.1269 -0.2219
16474W        W31943  13.682  13.369   3.515  0.2220  0.2301 -0.1618
16475W        W31944   3.427  12.294   3.228 -0.3670 -0.1829  0.1292
16476W        W31945   4.164   0.054  13.374  0.0044  0.4524  0.1504
16477W        W31946   1.122   7.127   2.770  0.2701  0.2514 -0.3433
16478W        W31947   8.439   1.883  15.586 -0.0788 -0.0529  0.0908
16479W        W31948   5.223   4.149  12.338  0.0058  0.0926 -0.0699
16480W        W31949   1.925  16.590   0.067 -0.1169 -0.0200  0.2001
16481W        W31950   3.395   6.431  10.452 -0.0771  0.0561 -0.0036
16482W        W31951  13.927  15.160  14.405 -0.3566  0.2428  0.0615
16483W        W31952   2.253   0.445   3.990  0.2398  0.0499 -0.1408
16484W        W31953  12.119   3.600  11.950 -0.3103 -0.0471  0.1994
16485W        W31954  15.125   1.983  11.218  0.4559  0.0306  0.0229
16486W        W31955  17.789   2.614  12.800 -0.0904 -0.0361 -0.0284
16487W        W31956  13.135  17.272   4.801  0.0119  0.2408 -0.0415
16488W        W31957  14.336   0.540  13.761 -0.0195 -0.1112 -0.1779
16489W        W31958  17.688  14.260   0.612 -0.2904  0.1610  0.2630
16490W        W31959  10.099  11.767  12.211  0.2575 -0.1461  0.0840
16491W        W31960   6.231  16.466   1.180 -0.1341  0.1044 -0.1507
16492W        W31961   2.103   3.794   5.919 -0.1900 -0.1745  0.5138
16493W        W31962  18.221  17.320  11.287 -0.1631  0.1337  0.0434
16494W        W31963   8.702   6.277   5.851  0.1012  0.0326 -0.0280
16495W        W31964   1.551  12.737  15.345 -0.0747 -0.4592 -0.0203
16496W        W31965  14.431   8.044  15.003  0.1071  0.0695  0.3531
16497W        W31966   1.201   3.720   0.348 -0.1408 -0.0211 -0.1113
16498W        W31967   7.764   3.995  14.328  0.0917 -0.3994  0.2337
16499W        W31968   1.840   5.066   1.702 -0.0795 -0.0024  0.0106
16500W        W31969   0.979   9.174   0.666  0.0221  0.0611  0.0119
16501W        W31970   1.984   7.712   1.335  0.0351 -0.1299  0.2035
16502W        W31971   3.804   5.555  15.931  0.1834 -0.0893 -0.1299
16503W        W31972   1.422  18.211   3.191  0.0290  0.0813 -0.4345
16504W        W31973  13.627   5.478  15.806 -0.1792  0.1358 -0.1139
16505W        W31974   2.345  10.267   0.381  0.0837 -0.1747 -0.0733
16506W        W31975  14.047  16.917   0.595  0.1744 -0.3204 -0.2470
16507W        W31976  16.269  11.619  15.986 -0.3651  0.1131 -0.0981
16508W        W31977  14.625   8.217   3.663  0.2331 -0.0943 -0.1146
16509W        W31978  16.272  14.579  13.844 -0.1358 -0.0177 -0.0260
16510W        W31979   5.790   0.570  15.846  0.2028  0.1244 -0.2726
16511W        W31980  13.211  10.459   4.952 -0.2652 -0.1463  0.1752
16512W        W31981   4.201   3.822   5.577 -0.2628  0.2260 -0.2440
16513W        W31982  13.846   3.442   5.461 -0.1629 -0.0191 -0.2573
16514W        W31983   5.837  17.580   4.606 -0.1361 -0.0758  0.0640
16515W        W31984   4.500   7.474   3.242 -0.1229  0.3520 -0.0100
16516W        W31985  10.028   0.834   4.098  0.1792 -0.2208  0.2112
16517W        W31986   5.703   4.626  12.565 -0.0812  0.3749  0.1101
16518W        W31987  16.759   6.139   5.314  0.0949  0.1925  0.1833
16519W        W31988  12.592   5.865  14.782 -0.2910  0.2104 -0.2634
16520W        W31989  10.133   3.480  12.394  0.0492 -0.3159 -0.0477
16521W        W31990  16.273  16.612   3.221 -0.1419 -0.2597  0.0209
16522W        W31991   8.313   1.506   4.705 -0.3459 -0.1156 -0.3901
16523W        W31992   6.577  12.256  15.528 -0.0390  0.1646  0.0445
16524W        W31993   8.697   5.863   5.099 -0.2937  0.0563 -0.1089
16525W        W31994  14.828   5.252  13.065  0.5126  0.0218 -0.3039
16526W        W31995  14.093   6.310   3.742  0.0742 -0.0915 -0.0869
16527W        W31996   9.859   2.946  15.837  0.2500  0.1796  0.1498
16528W        W31997  15.923   5.666   4.001  0.1443  0.2234 -0.1418
16529W        W31998   4.920   1.231   4.769 -0.1095  0.2227  0.0715
16530W        W31999  16.462  10.871   5.167 -0.0629 -0.0964 -0.2328
16531W        W32000   2.974  12.267   1.328 -0.0330  0.0508  0.1922
16532W        W32001  13.515   4.584   5.765 -0.1606  0.1855 -0.1874
16533W        W32002  10.578  15.391  14.101  0.1843 -0.0753 -0.0447
16534W        W32003  10.633  10.088  14.059  0.1418  0.1139 -0.0237
16535W        W32004   2.639   6.255   4.020 -0.1161 -0.1157 -0.3938
16536W        W32005  10.367  15.743  14.944 -0.1407 -0.0258  0.2414
16537W        W32006  11.874  13.135   4.508 -0.0852 -0.2513 -0.2710
16538W        W32007  10.469  15.149  12.572  0.3711 -0.3523  0.1338
16539W        W32008   6.437  18.139  15.750  0.4554 -0.2741  0.0699
16540W        W32009  13.075   5.422   5.603 -0.0216 -0.3828 -0.0623
16541W        W32010   7.450  10.300  13.495  0.2510 -0.3853  0.3256
16542W        W32011   1.864   3.583  12.026  0.3950 -0.0889  0.1659
16543W        W32012   3.212  16.983  11.331 -0.0534 -0.0612  0.0153
16544W        W32013   1.445  13.091  15.732  0.0237 -0.3495 -0.0226
16545W        W32014   5.972  10.886   1.841 -0.1671  0.2616  0.2083
16546W        W32015  12.037   0.910  15.707  0.0106  0.1751  0.2286
16547W        W32016   7.529   5.856  13.284  0.0514  0.0139  0.3207
16548W        W32017   8.156   9.520  13.359  0.2258 -0.2011  0.1518
16549W        W32018   5.451   2.735  12.819 -0.0666 -0.1031  0.0298
16550W        W32019  14.569  14.661  14.637  0.0365 -0.0954  0.2732
16551W        W32020   9.363  12.322  15.993  0.5779  0.0446 -0.1954
16552W        W32021   5.720   9.863   3.136  0.1098 -0.0691  0.2326
16553W        W32022   7.036  13.142   3.676 -0.1927  0.2145 -0.1250
16554W        W32023  10.840   6.884  14.346 -0.0317 -0.0026  0.1108
16555W        W32024  11.771   3.975  14.560 -0.0140  0.2193 -0.1396
16556W        W32025  13.229   2.572  14.155 -0.3706 -0.0294  0.0691
16557W        W32026  15.766  14.096  12.752 -0.1648  0.3716 -0.0259
16558W        W32027  18.368   5.403   0.061 -0.2673  0.1132 -0.3114
16559W        W32028  13.957   7.149  12.398  0.2159  0.0713  0.1009
16560W        W32029   8.912   1.914   0.933 -0.1695 -0.1407 -0.1562
16561W        W32030   6.831   1.273   3.475  0.2126 -0.0670  0.0470
16562W        W32031  12.158  13.130   3.634 -0.2378  0.0857 -0.0801
16563W        W32032  17.130   4.787  11.781 -0.0919 -0.0998 -0.1920
16564W        W32033  15.134   2.720  11.708  0.1281  0.1231 -0.3760
16565W        W32034   9.699   4.541   4.955 -0.0825  0.2740 -0.0670
16566W        W32035  12.481   1.289   2.054 -0.1125  0.3873  0.0303
16567W        W32036  14.838   4.268   6.292 -0.2588 -0.1546  0.4297
16568W        W32037   8.194   3.835   0.247 -0.0536  0.1497 -0.0953
16569W        W32038   3.400  17.477  12.685  0.1752  0.0722 -0.1421
16570W        W32039   0.227   6.788  14.467  0.1835  0.3121 -0.0018
16571W        W32040   3.231   3.759  14.584 -0.0512 -0.0412 -0.0938
16572W        W32041  17.427   3.868   4.027  0.3504 -0.1945  0.1867
16573W        W32042   8.128   2.459  14.865 -0.2031  0.1621 -0.0627
16574W        W32043  10.587   6.698  12.352  0.1337  0.2736  0.1437
16575W        W32044  10.822   0.279  15.770 -0.0570 -0.3265  0.0873
16576W        W32045  14.716  10.017   1.929 -0.0833 -0.0075 -0.0458
16577W        W32046   2.833  17.267  14.765  0.0059  0.0113  0.0429
16578W        W32047   3.364  11.585  15.888 -0.0134 -0.0731 -0.0364
16579W        W32048  10.656   1.762  12.643 -0.0060 -0.2773  0.4590
16580W        W32049  13.887   9.963   4.668  0.2341 -0.0921  0.3657
16581W        W32050  17.365   9.005   1.095  0.0804  0.0267 -0.3701
16582W        W32051  18.461  17.497   4.330 -0.3560 -0.3014 -0.1825
16583W        W32052  13.073  14.349   5.142  0.1145 -0.1665 -0.1026
16584W        W32053   4.272   1.464   3.385 -0.0247  0.3196  0.2525
16585W        W32054   5.074   4.133  13.224  0.0892 -0.0252  0.4372
16586W        W32055   7.087   3.112  11.158  0.0195  0.0966 -0.4812
16587W        W32056  15.284  16.879  12.483  0.1293  0.0907 -0.0179
16588W        W32057  12.012   1.380   3.513  0.1526 -0.0966 -0.0520
16589W        W32058  17.722  10.508   5.005  0.2520 -0.1903 -0.2016
16590W        W32059   0.346   0.032   5.134 -0.1422  0.3039  0.0364
16591W        W32060   9.707   5.450  15.142  0.0026  0.0318  0.2296
16592W        W32061   3.410   4.419   5.075 -0.1567 -0.0529  0.0361
16593W        W32062   5.576   5.814  11.465 -0.2405  0.2553 -0.1757
16594W        W32063  12.430   9.406  11.024  0.2086  0.0008 -0.3839
16595W        W32064   3.029  12.779  14.773  0.0687 -0.1382  0.2126
16596W        W32065   2.632   0.942  13.879  0.0176 -0.2613  0.0310
16597W        W32066  11.857  13.303  15.881  0.2339 -0.0305 -0.1014
16598W        W32067   2.030   8.441  13.634 -0.0086  0.2484  0.3767
16599W        W32068  15.731  17.560   1.009  0.1111  0.0264 -0.2881
16600W        W32069   7.482  16.923   3.460 -0.0687 -0.3087 -0.2066
16601W        W32070   7.453   3.098   1.980 -0.0771  0.0032  0.2066
16602W        W32071   6.456  13.476  12.769  0.4069  0.0860  0.1441
16603W        W32072  11.125  12.112   5.055 -0.1096  0.2532  0.0304
16604W        W32073   2.226  16.759   2.483  0.1538 -0.0745 -0.2121
16605W        W32074  17.871   1.025   1.163  0.1479  0.5446  0.3097
16606W        W32075   9.723   4.321   4.466  0.1354  0.1688 -0.1945
16607W        W32076  17.163  18.248   2.888  0.2286 -0.1083  0.3635
16608W        W32077  16.224   5.355  13.797 -0.1189 -0.0226  0.0536
16609W        W32078   6.530   5.318  15.125 -0.1236  0.2962  0.2497
16610W        W32079  10.875  12.875  12.211 -0.1330 -0.0602  0.2092
16611W        W32080   7.680  13.674  12.327  0.1221 -0.0565 -0.0625
16612W        W32081   4.721  10.620  11.660 -0.1080 -0.1636  0.1892
16613W        W32082  17.767  14.674  14.177  0.1986  0.2182 -0.1392
16614W        W32083  17.794  10.887   3.346 -0.1760  0.1834  0.2248
16615W        W32084   8.695   3.253  14.630  0.0920  0.1575  0.2115
16616W        W32085   7.427   8.466  15.435 -0.0342 -0.0790  0.1393
16617W        W32086   2.766   0.584  12.257 -0.0002 -0.1460  0.0082
16618W        W32087  17.437   1.340   5.268  0.1008  0.1952 -0.1790
16619W        W32088   5.280  11.167  11.951  0.3526  0.0023 -0.0786
16620W        W32089  12.260  14.882  10.898 -0.2459 -0.0739 -0.1358
16621W        W32090   7.827  12.284   0.752  0.1353  0.0451  0.1924
16622W        W32091   8.523   3.382  12.688  0.1593  0.0616 -0.0344
16623W        W32092  15.851   9.297  14.705 -0.1258  0.0044 -0.0336
16624W        W32093  16.850  14.939  11.372 -0.1784  0.0072  0.0979
16625W        W32094  13.843  14.458  15.660 -0.0517  0.2484 -0.2003
16626W        W32095   4.991   1.103   0.291  0.1708  0.0892  0.1808
16627W        W32096  17.678  17.135   4.848  0.1710  0.0189 -0.0376
16628W        W32097  17.184   8.191  11.860  0.0891  0.1069 -0.1471
16629W        W32098   2.734   6.499  11.153 -0.1983  0.0128  0.4230
16630W        W32099  14.393   5.222   4.036 -0.1726  0.1400  0.0680
16631W        W32100   9.349  15.164   3.660 -0.0020  0.0406 -0.3437
16632W        W32101   0.618   8.186  14.903  0.3390 -0.0802 -0.0119
16633W        W32102  16.168  14.372   4.958  0.0222 -0.0366 -0.3450
16634W        W32103  17.928  14.625   4.109 -0.0203  0.0305  0.0711
16635W        W32104   8.102   0.503   0.125  0.0638 -0.2104  0.2067
16636W        W32105  17.821   2.095   4.969  0.2550 -0.1546 -0.1945
16637W        W32106   5.034   8.493   2.948  0.0128 -0.2955 -0.1857
16638W        W32107  14.582  12.595  12.500  0.5627 -0.2770  0.4151
16639W        W32108  16.290  18.391  11.194 -0.0143  0.0627  0.1163
16640W        W32109   0.855  16.018  12.468  0.0280  0.0855 -0.0140
16641W        W32110  12.958  16.339  13.340 -0.2680 -0.1624 -0.0974
16642W        W32111  17.163   7.245  12.183 -0.3172 -0.2750 -0.2690
16643W        W32112   0.055   5.275  11.640  0.0321  0.1915  0.0792
16644W        W32113   6.399   0.422   4.691  0.1589  0.2715 -0.0831
16645W        W32114  18.038   1.804  11.502 -0.1094 -0.1995  0.2000
16646W        W32115  14.637   0.907   3.681  0.1202  0.3506  0.2399
16647W        W32116   7.960  12.637  12.408  0.0739  0.1295 -0.2367
16648W        W32117   0.914  12.298   2.473  0.0944  0.0162 -0.0624
16649W        W32118   5.919   8.286  13.244 -0.3443 -0.2171  0.0008
16650W        W32119  17.702  14.095   1.507  0.2547 -0.0977 -0.0615
16651W        W32120   0.364  11.056  11.993  0.1613 -0.0332 -0.0136
16652W        W32121   7.529   0.055   2.527  0.0660  0.0230  0.0132
16653W        W32122  13.344   7.839  12.085 -0.0923 -0.0780 -0.2915
16654W        W32123   5.953   7.312   5.637  0.0627  0.1390 -0.0352
16655W        W32124  13.620  10.150  12.534 -0.0494 -0.2594  0.1540
16656W        W32125  16.039  17.552   4.529  0.0601  0.1787  0.1699
16657W        W32126   5.873   7.006  13.588 -0.0406  0.2193 -0.0847
16658W        W32127  15.380  15.413   5.129  0.2005 -0.2217 -0.4038
16659W        W32128   0.590  11.079   3.853 -0.1664  0.2068  0.0102
16660W        W32129  12.144   3.382   6.407 -0.0436 -0.1290 -0.1818
16661W        W32130   6.679   7.759   6.404  0.2877 -0.2367 -0.0133
16662W        W32131   8.374   5.924   2.035 -0.0434 -0.0467  0.1495
16663W        W32132   6.482   9.499   1.315 -0.1288  0.0613  0.3458
16664W        W32133  12.075  11.717   6.042 -0.1076  0.1327 -0.3284
16665W        W32134  18.185   7.557  15.108  0.0052 -0.2515 -0.1184
16666W        W32135   5.999   2.994  15.575 -0.3566 -0.1390 -0.3025
16667W        W32136   1.574  10.322   2.379  0.2983  0.1221  0.1790
16668W        W32137  16.663  15.471  11.399  0.0474  0.1785 -0.0940
16669W        W32138  11.645   7.928  14.887 -0.1286 -0.1502 -0.0985
16670W        W32139  15.734   6.821   3.487  0.1118  0.2291 -0.0608
16671W        W32140  13.280   8.063   1.751 -0.1209  0.1530  0.0912
16672W        W32141   9.818   2.830   1.982  0.1165 -0.0981 -0.0769
16673W        W32142  13.683   0.708   3.851 -0.2115 -0.1043 -0.4037
16674W        W32143   8.830  12.618  12.694  0.1039  0.2065 -0.1473
16675W        W32144  15.243   6.711  14.633 -0.0509  0.0879 -0.3243
16676W        W32145   1.772   0.127   6.073 -0.3158 -0.1607 -0.1337
16677W        W32146   1.262  16.079   4.647 -0.0665 -0.2173 -0.1823
16678W        W32147   3.617   0.330  14.794 -0.1792  0.1118  0.3585
16679W        W32148   3.237  12.753   2.023 -0.0583  0.3566  0.0081
16680W        W32149   8.133  16.456  10.768 -0.1169 -0.3672 -0.1114
16681W        W32150  18.448   9.395   4.840 -0.0328  0.0079 -0.0245
16682W        W32151   5.900   2.392  10.962 -0.2987 -0.0278 -0.0119
16683W        W32152  17.937  11.980   0.571 -0.1742 -0.1248 -0.1375
16684W        W32153  15.227   0.229   2.817 -0.5012  0.0723 -0.1145
16685W        W32154  14.547  16.217  12.112 -0.1522  0.2870 -0.0008
16686W        W32155  13.051  11.856   4.679 -0.3074  0.1075  0.1617
16687W        W32156   7.747  15.628   1.562  0.0749  0.0114 -0.2176
16688W        W32157  14.136   5.471   2.702  0.0751 -0.2492 -0.0922
16689W        W32158   4.555  15.823  13.966  0.0106  0.1312 -0.0319
16690W        W32159  11.730   2.001  15.878  0.0253 -0.1496 -0.2568
16691W        W32160   8.739  13.273   2.859 -0.1954  0.0563  0.4005
16692W        W32161   5.602   4.215   9.768 -0.0716 -0.1027 -0.1269
16693W        W32162  15.414   6.783   1.539  0.0605 -0.0114  0.2830
16694W        W32163  12.179  12.292   3.935 -0.3073 -0.0320  0.0660
16695W        W32164   8.807   6.519   0.020  0.2727 -0.1239 -0.4108
16696W        W32165  10.583  18.126  12.036  0.0965 -0.0346 -0.2663
16697W        W32166   2.862   4.930  14.312  0.1274  0.0807  0.2759
16698W        W32167  13.789   6.146  12.601  0.0737  0.0314 -0.0203
16699W        W32168   0.584   3.719   1.649  0.0454 -0.0196  0.3017
16700W        W32169   9.764   6.983  12.302  0.1643  0.1503 -0.2226
16701W        W32170   5.770   1.211   2.108 -0.3238  0.1081  0.1294
16702W        W32171  13.802   2.513  15.084  0.2100  0.0458  0.1155
16703W        W32172   7.429   0.115  11.769 -0.1575 -0.1164  0.1183
16704W        W32173   0.129  12.584   3.211  0.2816 -0.2241 -0.0513
16705W        W32174  10.488   6.169   1.287  0.1036 -0.1143 -0.2576
16706W        W32175   9.086  11.623  15.545 -0.0902 -0.0079  0.2537
16707W        W32176  12.279   3.671  11.078  0.0009  0.1154 -0.0844
16708W        W32177  15.070   7.150   0.099 -0.0198  0.0216  0.2633
16709W        W32178  16.367   9.778  13.621  0.0607 -0.0925 -0.0032
16710W        W32179  13.422  15.547   2.683 -0.0032  0.4256  0.1317
16711W        W32180  12.105   6.375  14.825 -0.0340  0.1560 -0.1343
16712W        W32181   0.637  18.322  14.605  0.1035 -0.2835 -0.2450
16713W        W32182  13.637  13.274   2.171 -0.2116  0.0367 -0.0700
16714W        W32183  11.480   7.999   4.621  0.1409  0.0337 -0.2813
16715W        W32184  18.398  12.186  12.761  0.0575  0.3007  0.4482
16716W        W32185   5.561   9.847  14.954 -0.3532 -0.1123  0.1284
16717W        W32186   7.043   1.111  12.990  0.3656  0.0045  0.0305
16718W        W32187  11.762  13.031   3.989 -0.0080  0.1126  0.3786
16719W        W32188   9.629  12.715   0.028  0.2817 -0.2813  0.2704
16720W        W32189   5.726   3.329  15.283 -0.0661 -0.0870  0.1129
16721W        W32190  15.110  15.543  11.077 -0.1761  0.2989  0.2258
16722W        W32191   9.347  15.316   1.594  0.2555 -0.1048  0.3164
16723W        W32192   9.898   4.601  15.719  0.0408 -0.3074  0.0657
16724W        W32193  13.459  13.566   1.723 -0.2225  0.0843 -0.0057
16725W        W32194  13.935  17.196   4.764 -0.1747  0.0183  0.1418
16726W        W32195   1.065  14.710  15.090 -0.1806 -0.2266 -0.2224
16727W        W32196  13.895   1.475   0.236  0.1507 -0.0868 -0.1319
16728W        W32197  12.720  14.493   2.257  0.1634  0.0547 -0.2327
16729W        W32198   7.285  17.176   0.325  0.1400  0.3497  0.0334
16730W        W32199   6.101   8.444   4.407 -0.0546  0.2732  0.0318
16731W        W32200  15.845  11.736  15.805 -0.0160  0.0426 -0.1878
16732W        W32201  13.515   7.950   2.672 -0.1206 -0.1066 -0.0567
16733W        W32202   9.625   8.256  14.570  0.0082 -0.3753 -0.3223
16734W        W32203   5.879  16.178   3.051  0.2635 -0.0323 -0.0791
16735W        W32204   7.504  11.535   1.130  0.1022 -0.3250  0.0567
16736W        W32205   1.539  10.211  11.957 -0.2153  0.0048 -0.0294
16737W        W32206   0.835  12.395   4.119 -0.0686  0.0195  0.0512
16738W        W32207  12.607   3.321   3.579 -0.1129  0.0441  0.0672
16739W        W32208   3.401   0.578   3.582 -0.1632  0.0756 -0.0509
16740W        W32209  13.181  14.184   0.233  0.1788  0.1619 -0.0595
16741W        W32210  13.403  18.289  12.699  0.3808  0.0219 -0.0166
16742W        W32211  16.411  15.276  13.369  0.0522  0.0138 -0.3495
16743W        W32212   0.492   3.535  15.251 -0.0500 -0.0487 -0.1652
16744W        W32213   5.403   9.251  15.946  0.0064 -0.1740 -0.0088
16745W        W32214  17.384  12.872   0.511  0.1297  0.1942 -0.3419
16746W        W32215   1.507  15.270  12.349  0.0316 -0.2274 -0.1614
16747W        W32216  15.535   9.797   4.510 -0.2260  0.0753 -0.0975
16748W        W32217   5.378  12.597  14.703 -0.0367  0.0452  0.2460
16749W        W32218   7.004  13.276  10.310 -0.2075  0.0158 -0.3385
16750W        W32219   6.039   6.357  14.272 -0.2844 -0.0544 -0.2555
16751W        W32220   2.966   5.650   5.359 -0.2439  0.2091  0.0255
16752W        W32221  14.357   6.139   5.646 -0.1073  0.0242 -0.0468
16753W        W32222   5.415  11.221   0.516 -0.0285  0.0695  0.0694
16754W        W32223  15.276  16.897  11.313  0.2073 -0.3303 -0.1116
16755W        W32224  16.572  10.509  14.990  0.1464 -0.0272  0.0241
16756W        W32225   0.682   8.575  14.557  0.0756  0.2460 -0.2366
16757W        W32226  12.136   3.258   4.626  0.2848  0.0385  0.0768
16758W        W32227   7.885  17.269   3.512  0.3784 -0.0730 -0.2099
16759W        W32228   4.615  17.418  15.547  0.0622  0.4585 -0.1008
16760W        W32229  11.357  15.633   5.110  0.2291  0.0942 -0.1286
16761W        W32230   4.992   0.566  11.321 -0.2457  0.3752  0.2014
16762W        W32231  11.101  14.063  11.889 -0.0009 -0.0337 -0.0864
16763W        W32232   0.959   0.549  11.503 -0.2326 -0.1464  0.4173
16764W        W32233  18.428   4.370  12.966  0.0534  0.1531 -0.2839
16765W        W32234   8.204  15.704  15.493  0.3199  0.1915 -0.3516
16766W        W32235   2.081   4.782  11.664 -0.1006 -0.0958  0.0920
16767W        W32236  17.319  13.234   0.074 -0.0118 -0.1766  0.0013
16768W        W32237   0.230   4.010   4.845  0.0964 -0.0714  0.1905
16769W        W32238  16.777  10.390   1.023  0.0994 -0.1248  0.1513
16770W        W32239   8.155  15.458   0.006 -0.1239  0.1181  0.1020
16771W        W32240   6.816  15.136   2.755 -0.0289  0.1600 -0.0073
16772W        W32241   4.795   6.753  14.568  0.2339 -0.0423 -0.0437
16773W        W32242   6.456   5.115  14.029  0.2544 -0.0761 -0.3821
16774W        W32243  15.501   1.716   3.685  0.2852  0.2792 -0.0973
16775W        W32244  16.326   0.756   2.181  0.5525  0.1494  0.0001
16776W        W32245   0.887  14.857   2.954 -0.0799  0.1781 -0.4221
16777W        W32246  13.298   0.562  11.184  0.0588 -0.4252  0.3630
16778W        W32247  18.372   4.360   4.623  0.1766 -0.0260  0.1250
16779W        W32248   2.342  12.338   2.382 -0.0207  0.0259 -0.0501
16780W        W32249  15.185  10.347  15.215  0.0778  0.1517 -0.3748
16781W        W32250  11.213  17.440   0.329 -0.1704  0.1311  0.0241
16782W        W32251   1.380  18.153  11.198  0.0465 -0.2111  0.2745
16783W        W32252   1.720  17.727  11.160  0.0995 -0.0690 -0.2114
16784W        W32253   1.139  15.489   0.708 -0.0089  0.2724  0.1377
16785W        W32254   6.135   1.718   3.791 -0.1045 -0.1190  0.0653
16786W        W32255   4.757  17.564  14.253 -0.0327 -0.1334 -0.0779
16787W        W32256   1.593  11.957  15.504 -0.0669  0.0192 -0.0024
16788W        W32257   3.653   8.398  12.272 -0.0485 -0.0922 -0.3383
16789W        W32258   4.198   9.531   5.051 -0.0239 -0.3022 -0.2461
16790W        W32259  13.428  13.673   3.053 -0.0495  0.0750  0.0176
16791W        W32260  11.427  17.287  12.294  0.0163  0.1017  0.0926
16792W        W32261   8.104  14.241  10.672 -0.2872 -0.2093  0.0853
16793W        W32262   2.741  10.158   1.324  0.0319  0.0475  0.1125
16794W        W32263   2.491  12.542  12.074 -0.1997  0.2883  0.1577
16795W        W32264   0.147  10.904   4.942 -0.0977 -0.0399 -0.2087
16796W        W32265   9.033   4.015  14.689 -0.1645 -0.0577 -0.0977
16797W        W32266   6.544   2.170   0.128  0.0296  0.1172 -0.3351
16798W        W32267  17.208  11.876   0.094 -0.0918 -0.0034  0.2101
16799W        W32268   6.603   4.768   0.999 -0.0206  0.1374 -0.1463
16800W        W32269  17.326   3.385   4.704 -0.1460  0.2274 -0.0741
16801W        W32270  12.266  14.602   3.999  0.0703  0.1068 -0.0975
16802W        W32271  15.552   5.674  10.249  0.1117 -0.1972  0.0403
16803W        W32272  16.785  11.119   5.910 -0.0148  0.2275  0.0395
16804W        W32273  12.655   6.650   3.047  0.1646  0.1379 -0.2563
16805W        W32274  18.416   1.376   3.134  0.2767 -0.0381 -0.1222
16806W        W32275  12.458  14.131  15.352 -0.3601  0.1036  0.2127
16807W        W32276  10.447   8.435   3.594  0.1263  0.0499 -0.1405
16808W        W32277   8.989  11.725  10.678 -0.1299 -0.1377 -0.0606
16809W        W32278  17.154  14.254   5.075  0.1956  0.2992  0.2449
16810W        W32279   7.564  12.306  12.370  0.1603 -0.0179  0.1819
16811W        W32280   0.135  13.012   0.115  0.2298  0.1622 -0.3823
16812W        W32281  18.192   7.916   4.592 -0.0755 -0.0554  0.1275
16813W        W32282   0.302   4.939   5.206 -0.2699  0.0811  0.0766
16814W        W32283  13.013  17.257  14.067 -0.1449 -0.1870  0.1601
16815W        W32284  10.983   7.872  12.806  0.0752  0.0632  0.2136
16816W        W32285  15.113  15.685   2.988  0.1241 -0.2616 -0.0091
16817W        W32286  11.300  13.379  14.930  0.0228 -0.1595  0.1982
16818W        W32287  13.944   0.058  13.966 -0.1694  0.0622  0.0328
16819W        W32288   6.037  10.477   3.983 -0.1314  0.1590 -0.0880
16820W        W32289   0.702   1.290  12.380 -0.1121 -0.5900  0.0283
16821W        W32290   6.782   2.447   4.643 -0.1101 -0.1055 -0.1505
16822W        W32291  17.182  16.303   2.814 -0.0312  0.1354 -0.2878
16823W        W32292  17.393   2.579   3.193  0.2999 -0.1225  0.1057
16824W        W32293  13.115   7.155  15.784  0.2092 -0.0504 -0.3127
16825W        W32294   0.508  16.501   1.730 -0.0239  0.0145 -0.1405
16826W        W32295   0.791  14.138   1.932  0.1690  0.4039  0.2451
16827W        W32296   8.848   4.214   3.313  0.1668  0.0469  0.1166
16828W        W32297  10.299  15.435   3.683  0.4558 -0.1378  0.1918
16829W        W32298   9.725  13.833   4.057 -0.2547 -0.1821  0.0814
16830W        W32299   0.206   6.872   5.513 -0.0477  0.3738  0.1831
16831W        W32300  13.606   2.244   1.296  0.1803 -0.1705 -0.0118
16832W        W32301   1.902  12.363   4.514 -0.1004  0.2167  0.3027
16833W        W32302   6.682  10.168   0.416 -0.0497 -0.2148  0.0665
16834W        W32303  15.674  16.485  13.729 -0.0355  0.0974  0.2789
16835W        W32304   6.913   6.840  15.030 -0.1941  0.0490  0.0427
16836W        W32305   2.991   1.859   3.475  0.0666 -0.1108 -0.0913
16837W        W32306   2.399   4.616   5.648 -0.5073 -0.1857  0.2018
16838W        W32307  12.157  16.736   4.355  0.2643  0.0490  0.0433
16839W        W32308   5.814   0.428  10.854 -0.0377  0.2214  0.4044
16840W        W32309  15.904   3.089   0.415 -0.0066 -0.3307  0.0595
16841W        W32310  14.342  10.966  15.361 -0.1161 -0.2208 -0.1386
16842W        W32311  11.100   7.647   2.664 -0.0914  0.1019  0.1868
16843W        W32312   4.627  10.448  13.746  0.0886  0.0506 -0.0219
16844W        W32313  10.132  12.432   2.674  0.0859  0.1103 -0.2075
16845W        W32314  14.934  10.899  11.398  0.0460 -0.0310 -0.0909
16846W        W32315  17.278   8.426   4.982  0.0020 -0.1405 -0.1478
16847W        W32316  17.520  11.601   0.379  0.2111  0.0187 -0.0732
16848W        W32317   4.265   7.879  13.990  0.3600  0.1909 -0.0007
16849W        W32318   8.056   8.117  13.655 -0.0168  0.1042  0.0749
16850W        W32319   3.420  13.184   4.774  0.0460  0.0675 -0.1984
16851W        W32320   1.848  10.301  12.419  0.0888  0.1690  0.1958
16852W        W32321  10.019  15.045   3.934  0.0823 -0.1538  0.2278
16853W        W32322   8.548   2.243   3.967 -0.1818 -0.0124 -0.2222
16854W        W32323   6.006   4.764  12.041  0.1756 -0.0856 -0.2354
16855W        W32324  16.203   7.465  13.266 -0.2197 -0.0455  0.2552
16856W        W32325   2.355  17.286   0.115 -0.2506  0.2418  0.2807
16857W        W32326  15.799  17.414   1.983  0.1027  0.1080 -0.0859
16858W        W32327   9.167  14.028   3.185  0.0754 -0.0702  0.2961
16859W        W32328  10.643   3.711   3.269  0.0693  0.2844 -0.2980
16860W        W32329   4.695  16.495  12.900 -0.1537 -0.3039  0.0218
16861W        W32330  13.452  12.843   3.953 -0.0470  0.0175 -0.0022
16862W        W32331   0.507  11.931  15.433 -0.1749 -0.0675  0.0226
16863W        W32332  11.788  14.492   0.392 -0.1284  0.0583 -0.0543
16864W        W32333   8.552   3.669   4.760 -0.1662  0.2818  0.3207
16865W        W32334   6.031   3.684  15.036  0.0325  0.1769  0.1171
16866W        W32335   5.246   5.877  10.971 -0.2076 -0.2521 -0.0317
16867W        W32336  15.469   5.602   2.317 -0.1292 -0.2202  0.2419
16868W        W32337  16.153   7.608  14.529  0.1768 -0.0737 -0.1871
16869W        W32338  13.163   1.604   2.788 -0.0681 -0.0644  0.1691
16870W        W32339   0.842  15.096  11.313  0.2597  0.0156 -0.0670
16871W        W32340   2.767  13.764  13.000 -0.3397 -0.0534 -0.1507
16872W        W32341  11.258  11.187   0.494 -0.2314  0.1036  0.0952
16873W        W32342  17.352   8.166  13.233 -0.1907 -0.1329 -0.1385
16874W        W32343   5.227   0.809  11.630  0.3712  0.2686 -0.1417
16875W        W32344   2.342   3.295   4.515  0.1659  0.4458  0.0943
16876W        W32345  11.251  11.443  11.258  0.3086 -0.3863 -0.0257
16877W        W32346  17.916   9.669   4.129 -0.1007  0.0975 -0.2243
16878W        W32347  10.836  15.698   0.517 -0.0058 -0.2162 -0.0644
16879W        W32348   6.427  11.695   4.969  0.0584 -0.1556  0.2215
16880W        W32349  17.994  11.067   2.902 -0.0667 -0.0166  0.1212
16881W        W32350  13.167  18.368  14.204  0.3895  0.0332 -0.1213
16882W        W32351  17.643  14.949  15.509 -0.1513 -0.0465 -0.1323
16883W        W32352  13.922   0.906   1.627  0.0223  0.0178 -0.1026
16884W        W32353   0.873  17.194  11.524  0.0110  0.2197  0.1453
16885W        W32354   5.673  17.137  12.011 -0.1744 -0.3193 -0.0930
16886W        W32355   6.175   4.482   5.247  0.1666 -0.1117  0.0761
16887W        W32356  16.675   8.202   1.332 -0.2883 -0.0464  0.0841
16888W        W32357  13.308  16.656   5.733  0.2570 -0.1848 -0.0194
16889W        W32358  16.930   4.697  12.698  0.2330  0.0001 -0.0823
16890W        W32359  14.957  16.232   2.204  0.0269  0.1536  0.2340
16891W        W32360  12.271   9.383   4.370  0.0643  0.2047  0.0245
16892W        W32361   4.160   1.969  10.696  0.1827  0.1392 -0.3386
16893W        W32362  13.660   4.512   2.292  0.2468 -0.1628 -0.2497
16894W        W32363  13.312   6.859  13.642  0.2451 -0.1466 -0.0155
16895W        W32364  16.416   3.137  14.928  0.4058 -0.0760 -0.0979
16896W        W32365   3.237   9.689  11.396  0.0557 -0.2331 -0.0771
16897W        W32366   4.972  15.428   4.815 -0.2440 -0.1629 -0.1987
16898W        W32367   3.124   8.209   4.429 -0.1688  0.0927  0.1053
16899W        W32368  14.140   3.722   2.306  0.0941 -0.1580  0.3547
16900W        W32369   6.009   6.072   5.755 -0.0859 -0.3395  0.2128
16901W        W32370   6.691   1.579  10.816 -0.1618 -0.0407  0.1092
16902W        W32371   6.464   7.100   1.604 -0.0496  0.0113  0.1955
16903W        W32372   4.379  10.921  14.014 -0.0541  0.0392 -0.0383
16904W        W32373   2.810  17.731   0.674 -0.1231  0.2035  0.1628
16905W        W32374   7.476  17.932  10.307 -0.1000  0.0888 -0.0976
16906W        W32375  15.830   0.322  15.519  0.0728  0.3960  0.1382
16907W        W32376   6.170   7.920   2.778 -0.3157  0.0691 -0.0579
16908W        W32377  16.036  15.830   5.646 -0.0027 -0.0021 -0.1058
16909W        W32378   5.078   6.944  13.341 -0.0956 -0.2355  0.0310
16910W        W32379  13.111  12.606  13.907 -0.0885  0.1162 -0.0202
16911W        W32380   9.466   9.060  13.524 -0.0591  0.2331  0.1551
16912W        W32381   5.444  17.004   1.131 -0.1682 -0.1577  0.0943
16913W        W32382  10.524   7.097   2.364  0.1316  0.0626  0.0260
16914W        W32383   8.364  17.025  14.550  0.1552 -0.1170  0.2647
16915W        W32384   7.917  17.795  10.539  0.1483 -0.2653 -0.0193
16916W        W32385  18.463  10.640   1.141  0.0643  0.1666 -0.0432
16917W        W32386  18.025   0.462   5.275 -0.0729  0.3682 -0.0203
16918W        W32387   2.118  10.839   1.681 -0.1075  0.0618  0.0438
16919W        W32388   5.387  14.699   4.942  0.1631 -0.2446  0.0253
16920W        W32389   2.240   1.650   3.858  0.1626  0.0537 -0.0917
16921W        W32390   5.429   5.505   1.363  0.1017 -0.0035  0.2166
16922W        W32391  16.940  11.529   2.255  0.1440 -0.0534 -0.3423
16923W        W32392  12.596   4.175  11.220 -0.0985 -0.0219  0.4478
16924W        W32393   6.410   8.598  11.120 -0.2952  0.0546  0.1074
16925W        W32394   3.929   2.980  14.865 -0.1651  0.2454 -0.0995
16926W        W32395  11.108   3.492   3.345  0.0639 -0.1683 -0.3923
16927W        W32396  10.900  11.903   2.881  0.1513 -0.0379  0.0619
16928W        W32397  18.131   1.781   1.560  0.1258 -0.0623  0.0284
16929W        W32398   9.137  16.908   0.135 -0.1643  0.1011 -0.0214
16930W        W32399   2.513  13.643   1.320 -0.1198  0.3405 -0.0018
16931W        W32400   6.940  13.361   2.701 -0.0823 -0.2134  0.0283
16932W        W32401   3.621   7.714   1.636  0.0599 -0.0294  0.0489
16933W        W32402  12.573  11.958  11.947  0.0941  0.0264  0.2389
16934W        W32403   1.664  18.353   2.243  0.1632  0.2201  0.1024
16935W        W32404   8.263  11.109  15.617 -0.1775  0.2319 -0.0421
16936W        W32405   9.516  12.576   1.077 -0.0780  0.2122  0.1044
16937W        W32406  10.907  14.630   2.129  0.1695  0.0931  0.0761
16938W        W32407   4.178   1.276  13.652  0.1227  0.0880  0.0654
16939W        W32408   1.586  14.173   5.106 -0.3656 -0.0218  0.1453
16940W        W32409  13.950   9.058  15.015 -0.1509 -0.2850 -0.1199
16941W        W32410   5.643   9.392   1.126 -0.2119  0.1666  0.2352
16942W        W32411  16.536   5.343   5.229  0.1377 -0.0792 -0.1218
16943W        W32412   7.498   9.341  15.808 -0.2560 -0.0148  0.1639
16944W        W32413  14.986  17.741  12.260 -0.2821 -0.3021 -0.0339
16945W        W32414   7.291   4.019  12.431 -0.0038 -0.2858  0.1313
16946W        W32415  10.937  18.180   5.973 -0.0128  0.0116  0.2519
16947W        W32416  14.224  11.203  10.808 -0.1597 -0.1209 -0.1621
16948W        W32417   7.599  13.800  11.439  0.3459 -0.1354  0.3105
16949W        W32418   9.773   0.355   5.086  0.1749  0.0233  0.2537
16950W        W32419   3.765  18.080  11.802 -0.2576  0.1602  0.3052
16951W        W32420  10.775   3.427  13.831  0.0798 -0.0200  0.1585
16952W        W32421   6.701   2.541   0.440 -0.0472  0.0540  0.3242
16953W        W32422  12.671   0.252   4.820  0.2358 -0.0690  0.4957
16954W        W32423   9.208   9.428  14.490 -0.1135 -0.1786 -0.0296
16955W        W32424  15.004  10.933   5.703 -0.0469 -0.1596 -0.0992
16956W        W32425   3.022  14.644   4.038 -0.1052 -0.0153  0.0406
16957W        W32426  11.801  17.610  14.499  0.4553  0.0322 -0.2005
16958W        W32427   1.543   1.213  11.047 -0.0021 -0.1677 -0.1648
16959W        W32428   6.116   5.869   3.132 -0.1786  0.0492 -0.1022
16960W        W32429   0.086  17.842   0.663  0.1267  0.0688 -0.2355
16961W        W32430  17.681   3.308  13.344  0.1059  0.1279  0.2095
16962W        W32431   1.662  12.584   2.054 -0.0109 -0.2648  0.1065
16963W        W32432   5.920   9.887   6.012  0.3622 -0.1655  0.2061
16964W        W32433  13.869   4.086  11.996  0.2517 -0.0505 -0.2755
16965W        W32434  12.572  17.240   5.068  0.3383 -0.1650  0.0610
16966W        W32435   6.337   1.704  13.609 -0.0309 -0.0517 -0.3658
16967W        W32436   8.599   2.759  10.987  0.0736 -0.0054 -0.4260
16968W        W32437   3.473   4.604   3.428  0.4965 -0.3104 -0.0710
16969W        W32438   7.641  16.326  16.026 -0.0604  0.0341  0.1157
16970W        W32439   6.034   9.919   2.652 -0.1499 -0.1090  0.1338
16971W        W32440   6.876  14.858   5.113 -0.2020  0.3100  0.1971
16972W        W32441   1.630  11.653  13.081 -0.2095 -0.0726  0.4443
16973W        W32442  16.139   4.182  11.534  0.1352 -0.3526 -0.0344
16974W        W32443   0.348  10.543  15.303  0.0504  0.0547  0.0026
16975W        W32444   8.919  14.594  11.060 -0.2135 -0.0501  0.2426
16976W        W32445  10.036  18.141  11.068  0.1792 -0.0118  0.1236
16977W        W32446   6.830   3.672  12.400 -0.0694 -0.0220 -0.0840
16978W        W32447  14.205   8.670  15.364 -0.0133  0.0369 -0.1495
16979W        W32448   5.842  17.449  13.308  0.1459 -0.0001 -0.2909
16980W        W32449   2.363  18.249  13.543  0.2316 -0.2129  0.1111
16981W        W32450  15.505   1.947  13.442  0.1331  0.1797  0.1485
16982W        W32451  12.238  18.080   4.296  0.0444 -0.1349  0.1622
16983W        W32452   6.066   8.485   5.578 -0.0046  0.1693 -0.0744
16984W        W32453   7.682  17.547   1.397 -0.0213 -0.2583 -0.2992
16985W        W32454  17.441   5.047  15.852 -0.2030 -0.1360 -0.3499
16986W        W32455   7.571   4.007   6.493 -0.2115  0.0590  0.0421
16987W        W32456   8.090  11.136   5.328 -0.0852  0.1312  0.1903
16988W        W32457   2.106  13.342  15.890 -0.0734 -0.2273 -0.1885
16989W        W32458   9.795   7.005   2.839  0.0522  0.0889  0.0044
16990W        W32459   2.937   9.228  14.468 -0.2509 -0.1041 -0.3493
16991W        W32460   6.116  18.319   2.455 -0.0174  0.0075  0.0207
16992W        W32461  16.277  15.093  16.001 -0.2159  0.0232  0.1008
16993W        W32462  13.735  16.194  14.151 -0.0827 -0.2871  0.0673
16994W        W32463   0.551  10.120   3.396  0.1186  0.3369 -0.2061
16995W        W32464   1.481   4.358  11.585  0.1323  0.0654  0.1338
16996W        W32465   6.212  14.485  10.314  0.3346 -0.1124  0.0930
16997W        W32466   1.179   5.431   1.543 -0.3042 -0.2430  0.0789
16998W        W32467   1.877   6.368   1.548 -0.3525  0.1933 -0.0083
16999W        W32468  18.092  16.282   5.415  0.0927 -0.0549 -0.2058
17000W        W32469   6.956   8.839  14.618  0.0251 -0.2618  0.0105
17001W        W32470   7.358  12.945   2.450 -0.0770 -0.3067  0.0270
17002W        W32471  17.852  18.417   1.854 -0.0005  0.1685 -0.1934
17003W        W32472  17.047   9.298   5.211  0.1088 -0.0690 -0.2587
17004W        W32473   9.261   7.391   1.235 -0.3415  0.1381 -0.0608
17005W        W32474  15.894   5.539   5.400  0.2357 -0.4015 -0.2214
17006W        W32475  14.826  17.946   4.513  0.0494 -0.1362  0.1123
17007W        W32476   3.136   3.543   1.402 -0.1117  0.1123 -0.2865
17008W        W32477  13.479  17.817   5.294 -0.1870  0.1111  0.0117
17009W        W32478   1.281   2.154   5.292  0.1167 -0.1165  0.0706
17010W        W32479   6.811  16.291  12.423  0.4513  0.2900 -0.1914
17011W        W32480   6.936  16.950  10.471 -0.1324  0.3149 -0.0709
17012W        W32481   4.769   9.319  14.243  0.1719 -0.0858 -0.1842
17013W        W32482   5.049   1.062   3.298 -0.1522  0.0083 -0.1880
17014W        W32483  12.321   0.271   0.372  0.3923  0.1021 -0.0531
17015W        W32484   6.083   8.864  12.400 -0.2565  0.2570  0.2814
17016W        W32485  14.653  14.900  12.254  0.2379 -0.2088  0.1232
17017W        W32486  11.056  15.137   2.200  0.1045 -0.1803 -0.1617
17018W        W32487   4.657  13.375  10.511 -0.2429 -0.0528 -0.1211
17019W        W32488  10.957   6.104   5.743 -0.2248  0.1707  0.1724
17020W        W32489   6.591   6.182   3.838  0.0745 -0.0376 -0.1019
17021W        W32490   8.144   6.386   1.175  0.1527 -0.1649  0.6534
17022W        W32491  16.827   1.387   1.008 -0.1178  0.0950 -0.2519
17023W        W32492  11.422   3.690   1.774 -0.0970 -0.1400  0.4192
17024W        W32493   9.076  13.989   2.279  0.1987 -0.1162 -0.2157
17025W        W32494   4.295   7.446   1.725 -0.0491 -0.2109  0.1268
17026W        W32495  13.251   5.017   5.974  0.0188  0.0356 -0.0061
17027W        W32496  14.253  11.432   4.410  0.0059 -0.1518  0.0244
17028W        W32497  17.522   2.307  12.370 -0.0580  0.0334  0.1515
17029W        W32498  18.128   7.723   5.149 -0.1273 -0.2110 -0.2567
17030W        W32499   0.365   7.203   1.220 -0.2454  0.0228 -0.0181
17031W        W32500   6.300   6.881  12.707  0.2724 -0.1892  0.0113
17032W        W32501  13.273  10.240   4.150 -0.3994  0.1640 -0.2859
17033W        W32502  16.894   8.593  12.770 -0.1468  0.1442  0.2976
17034W        W32503   0.161  17.548  14.673  0.0842 -0.1106 -0.0789
17035W        W32504   2.798   7.270  10.439 -0.0320  0.1559 -0.0698
17036W        W32505  15.548  15.106  13.655  0.3663 -0.0549 -0.0826
17037W        W32506  14.653   3.911   2.233 -0.0713  0.0818 -0.2430
17038W        W32507  11.146   9.422   0.864 -0.0843 -0.2240 -0.2562
17039W        W32508   6.494  13.278  13.350  0.3894 -0.1451  0.0420
17040W        W32509   9.344   2.262   5.369  0.2154 -0.1288 -0.0093
17041W        W32510   1.444   9.786  13.106  0.1132  0.0032  0.1884
17042W        W32511   3.845   0.613  13.407  0.0669  0.2006  0.1431
17043W        W32512   4.674   2.031   0.609 -0.0622  0.3078  0.1431
17044W        W32513  11.209   7.373   1.035  0.2849  0.0841  0.1900
17045W        W32514   2.437   1.696   6.365  0.2843 -0.0185  0.1501
17046W        W32515   8.038   1.734   1.217  0.1169  0.2129 -0.0178
17047W        W32516  10.151   7.924   4.484 -0.1773  0.0263  0.1564
17048W        W32517   0.732  18.393   3.158 -0.2544 -0.0276 -0.0016
17049W        W32518   5.927   8.139  12.723  0.2346  0.0643  0.1208
17050W        W32519  15.537  16.093   1.660 -0.0576  0.0468  0.0524
17051W        W32520  15.037   2.610   4.646  0.0824 -0.0295  0.0176
17052W        W32521  17.129  13.402   0.789  0.0372  0.2972  0.2069
17053W        W32522   8.349   6.193  15.995 -0.0842  0.0163  0.2691
17054W        W32523   5.597   9.196   5.300 -0.0776 -0.0933  0.3257
17055W        W32524   3.885   7.621  13.526  0.1923  0.1932 -0.2036
17056W        W32525  16.959   0.449   1.047  0.0493  0.2635 -0.2205
17057W        W32526   7.887   8.207   4.386 -0.2149 -0.0745 -0.0843
17058W        W32527  14.538   2.951  15.159  0.0852 -0.0500  0.4420
17059W        W32528  15.563  13.323   1.086 -0.0665  0.2581 -0.3753
17060W        W32529   4.064   5.845  15.076  0.1912  0.2681 -0.0335
17061W        W32530  11.375  13.077   2.551 -0.0326 -0.0339  0.0138
17062W        W32531   2.199   3.729   1.809  0.0729  0.2880  0.2496
17063W        W32532   4.101   9.142  14.219 -0.0278  0.1481  0.2704
17064W        W32533   8.624  11.891  12.752 -0.0165  0.1772 -0.1827
17065W        W32534   2.368  12.144  15.590 -0.1396 -0.0149 -0.1821
17066W        W32535  14.725   6.162   3.292  0.0015 -0.0674 -0.2792
17067W        W32536  16.249  16.908   0.816  0.2260 -0.0107  0.1460
17068W        W32537   5.316  17.308   0.670 -0.2052 -0.0147  0.1087
17069W        W32538  17.949  11.699   2.784 -0.1123  0.0159  0.0647
17070W        W32539   5.966  10.425   2.612 -0.2100  0.3059 -0.1285
17071W        W32540   5.082  15.141   3.834  0.2648 -0.0194  0.1691
17072W        W32541   8.102  15.992   1.362  0.1355 -0.1985 -0.2115
17073W        W32542   8.184  15.725   3.859 -0.0453 -0.0418 -0.3621
17074W        W32543   2.047  15.856   6.057 -0.1189  0.1215 -0.2126
17075W        W32544   7.783   1.259   3.578 -0.2307 -0.0635  0.1718
17076W        W32545  16.341   7.318   2.587 -0.2615  0.1238 -0.1672
17077W        W32546   9.365  14.130  11.880 -0.3198 -0.0362 -0.3657
17078W        W32547  11.486   1.006   0.675 -0.0534 -0.2081 -0.1763
17079W        W32548   0.180  14.097   3.608 -0.0915  0.1325 -0.2769
17080W        W32549   2.792  15.109   3.882  0.0490  0.3128 -0.0682
17081W        W32550   8.473  16.074   3.070 -0.0411  0.2156  0.2195
17082W        W32551  10.357   2.791   4.340 -0.1108  0.4059  0.1534
17083W        W32552  14.905   8.182  15.288  0.0277  0.0208 -0.0507
17084W        W32553   5.450  17.743  15.757  0.0848  0.1519  0.0618
17085W        W32554   7.219   1.652  11.577 -0.2397 -0.3074 -0.1378
17086W        W32555  16.567  12.930  12.511 -0.0068  0.2027 -0.0744
17087W        W32556   6.965   0.400   4.692 -0.1257 -0.1353  0.1400
17088W        W32557  11.638  15.532  15.382  0.1153  0.1078 -0.1883
17089W        W32558  13.796   2.974  14.577  0.0503 -0.0752  0.1886
17090W        W32559  17.694   4.698   6.395  0.2223  0.1352 -0.0152
17091W        W32560  12.478  11.832  10.945  0.1488  0.0835  0.2132
17092W        W32561   7.816  18.109   4.162  0.0194  0.0657  0.1208
17093W        W32562   5.714   5.144   5.676  0.1874  0.2961 -0.2480
17094W        W32563   4.558  13.070  11.042 -0.1281  0.1208  0.2653
17095W        W32564  11.574  15.243  14.916  0.0338 -0.1661 -0.1534
17096W        W32565  12.124  17.389  13.666 -0.0980 -0.0577  0.1730
17097W        W32566   9.741  13.853   0.392 -0.1168  0.2547 -0.0084
17098W        W32567  12.587  15.212  12.190  0.0155  0.0671 -0.0907
17099W        W32568  18.403  16.526  13.866  0.0426 -0.2951 -0.0261
17100W        W32569   8.865  16.001  13.805 -0.1328 -0.1298 -0.0651
17101W        W32570  10.292  16.127   3.152  0.1868 -0.1729  0.1002
17102W        W32571  16.734  17.824   4.307 -0.2075 -0.1156  0.1819
17103W        W32572   1.752  13.878  12.593  0.1446 -0.1917  0.3429
17104W        W32573   7.571   6.335   2.515  0.0248 -0.0139 -0.0216
17105W        W32574   8.947   8.346  13.245  0.1267  0.0421  0.1977
17106W        W32575   4.499  13.495  13.451 -0.1287  0.0469 -0.1190
17107W        W32576  10.066   6.263  14.670 -0.1905  0.1630  0.3061
17108W        W32577   8.860   1.539  11.945  0.0152 -0.0629 -0.2211
17109W        W32578   4.326  17.076   1.352 -0.2424  0.1388  0.0761
17110W        W32579   3.884   0.572   3.750  0.1061  0.2608 -0.1379
17111W        W32580  17.051   4.909   4.755 -0.3732 -0.4582 -0.0250
17112W        W32581  13.462   9.841  14.767  0.0690 -0.3320  0.0055
17113W        W32582  17.057   5.533   1.572 -0.2527 -0.1329  0.0032
17114W        W32583   0.654   9.390   2.292 -0.1451  0.1819  0.1291
17115W        W32584   8.570   9.062  12.649 -0.0544  0.1786  0.2347
17116W        W32585   4.034  18.125  10.869  0.0694 -0.0097  0.0618
17117W        W32586   2.203  11.127   3.554  0.1411  0.3088  0.2640
17118W        W32587  10.229  18.359   4.118  0.1422 -0.1413 -0.0915
17119W        W32588  18.339   7.488  13.041 -0.0181  0.1056  0.3077
17120W        W32589   7.902  13.662   1.423 -0.0685  0.1157  0.0570
17121W        W32590  16.557   7.740   5.358  0.3518 -0.0929 -0.4344
17122W        W32591   1.612  15.557   1.973 -0.0589  0.2199  0.0091
17123W        W32592   3.221   5.807   4.130 -0.0698  0.3141  0.0040
17124W        W32593   9.436  10.651  12.124 -0.0138  0.0434  0.1746
17125W        W32594  15.839  13.986   2.316 -0.2687 -0.1036  0.1973
17126W        W32595  13.344   5.521   2.974 -0.0179 -0.2419  0.0657
17127W        W32596  16.574  16.337  13.407 -0.0241  0.0467  0.2294
17128W        W32597   1.638  15.698   5.704  0.4755  0.0440 -0.4759
17129W        W32598   6.577   0.666  13.737 -0.1036 -0.0378 -0.0230
17130W        W32599   8.504   4.464   3.652 -0.0478  0.1520  0.1665
17131W        W32600  17.678  13.220   4.428  0.1039 -0.1448  0.1511
17132W        W32601  16.744   0.407   2.336 -0.3002 -0.1297 -0.1322
17133W        W32602   3.943  16.760   1.185  0.1411  0.0291  0.0735
17134W        W32603   1.963  10.872  14.640 -0.3471  0.0896  0.1180
17135W        W32604  10.048  15.990  12.896 -0.1697 -0.0905  0.2137
17136W        W32605  13.059  17.005   1.056  0.1845  0.0708  0.2099
17137W        W32606  15.052   7.615  11.856 -0.0261  0.1378 -0.0360
17138W        W32607   4.381  12.525  13.491 -0.1566 -0.0911  0.5174
17139W        W32608   2.144   8.989   1.423 -0.0199 -0.0420  0.1300
17140W        W32609   1.540   2.486   3.667 -0.0872  0.1278 -0.0774
17141W        W32610   7.666  14.232   4.824 -0.0277  0.3900 -0.2428
17142W        W32611   3.801   9.475   3.823  0.0520  0.1319 -0.0667
17143W        W32612   4.465   9.675   3.070 -0.0879 -0.1842 -0.0246
17144W        W32613  17.036   7.058   0.576 -0.0714  0.2392 -0.1401
17145W        W32614   7.791  10.652   0.623  0.1294 -0.1954 -0.1591
17146W        W32615   9.974  13.908   3.496  0.2825  0.2729  0.0407
17147W        W32616   9.317   4.722  10.408  0.2009  0.1346  0.0090
17148W        W32617  14.393   7.420   4.786 -0.3417  0.1950  0.2236
17149W        W32618  10.931  13.408   4.347 -0.1671  0.2869  0.1476
17150W        W32619  12.413   9.381   3.487 -0.0909  0.1321  0.2140
17151W        W32620  14.279  17.539   4.718 -0.0853 -0.1081 -0.0119
17152W        W32621  10.059   9.856   0.803  0.0977 -0.3332 -0.3736
17153W        W32622   6.492  16.945   2.508  0.2700  0.0616  0.1896
17154W        W32623  11.326   9.400  15.813 -0.4296  0.2897 -0.1675
17155W        W32624   9.377   1.288   2.760  0.1234 -0.0640 -0.3660
17156W        W32625  15.912   8.214   0.894 -0.0980  0.1468  0.3422
17157W        W32626   2.881   8.079  11.591 -0.2011 -0.0545 -0.0854
17158W        W32627   8.129  10.930  15.123  0.0305  0.3199  0.1600
17159W        W32628  16.827  17.744   4.778  0.2653 -0.0201  0.1289
17160W        W32629  12.624  14.944   4.095  0.2712 -0.0973 -0.1387
17161W        W32630   9.598   0.870   1.959  0.1195  0.2382  0.2916
17162W        W32631   0.509  15.769   4.353  0.1266 -0.0820 -0.0211
17163W        W32632   7.730   2.036   2.551 -0.0262  0.1608 -0.1430
17164W        W32633   9.370  16.551  10.697 -0.0838 -0.1971  0.2543
17165W        W32634  12.400   8.568  10.667  0.1241  0.3085 -0.3545
17166W        W32635   7.896  11.968  11.382 -0.0474 -0.2837  0.2730
17167W        W32636  18.243  15.955   2.952  0.3903  0.1308 -0.2651
17168W        W32637   9.324   5.376  12.101  0.1702 -0.0766 -0.0939
17169W        W32638  17.997  11.772  13.686 -0.0132 -0.0726 -0.0745
17170W        W32639   8.616  10.478  11.916 -0.0589  0.0736  0.0451
17171W        W32640   9.781   1.897  14.630 -0.2166  0.1815  0.0211
17172W        W32641  16.622   4.817   2.638  0.1303 -0.0822  0.0097
17173W        W32642   8.083  10.115  14.694  0.0278  0.0752 -0.3054
17174W        W32643   2.039   2.168   3.772  0.0454 -0.1725  0.1824
17175W        W32644  13.020   7.717   0.020 -0.0018 -0.2276  0.2878
17176W        W32645  13.664   0.429   3.158  0.0411  0.1219  0.0199
17177W        W32646   3.806   4.510   5.836  0.1169 -0.1239  0.1832
17178W        W32647   0.572   4.535   2.354 -0.2450  0.0531  0.2119
17179W        W32648   9.065   5.945  13.683  0.1164 -0.2078 -0.0491
17180W        W32649   3.054   8.500  13.973 -0.0560 -0.0890  0.3159
17181W        W32650   2.146  11.583   0.540 -0.0440  0.1045  0.2023
17182W        W32651   3.359  12.637   0.390  0.0484 -0.1402  0.0623
17183W        W32652  15.311  12.308  14.007  0.1556 -0.1240  0.1888
17184W        W32653  17.809  10.541  15.060  0.1313 -0.0919 -0.2552
17185W        W32654   2.529   4.659  13.670 -0.2965 -0.1715 -0.0885
17186W        W32655  11.328   0.264  14.720  0.0229 -0.0094 -0.3735
17187W        W32656  10.264  11.371  13.312  0.0438 -0.1941  0.1592
17188W        W32657   0.254   1.107  12.473 -0.1825 -0.3489 -0.0370
17189W        W32658  11.062  14.780  11.940 -0.1279 -0.2192  0.0881
17190W        W32659   4.907   2.285   5.198  0.0062  0.1240  0.1343
17191W        W32660  11.827  11.001   0.812  0.0196 -0.1861  0.0872
17192W        W32661  13.741   9.109  14.153  0.1597  0.0105 -0.0032
17193W        W32662  11.394   6.956  15.014 -0.0607  0.3490  0.2620
17194W        W32663   6.080   3.082  12.428  0.0576 -0.0781  0.1995
17195W        W32664   3.256   6.204  12.918  0.0515  0.0837  0.0347
17196W        W32665  13.995   3.085  12.350 -0.3438  0.1584 -0.3271
17197W        W32666   8.370  18.459   0.537 -0.1863 -0.2037  0.0988
17198W        W32667  14.506   0.052   3.353  0.3701  0.2222 -0.4459
17199W        W32668   0.408  15.343  10.948 -0.0664  0.2321  0.0465
17200W        W32669   8.459   8.935  14.484 -0.0721  0.0083 -0.0327
17201W        W32670  14.478   0.426   4.422  0.0670 -0.1961 -0.0773
17202W        W32671  10.148  14.652   2.656  0.3155  0.0214 -0.1992
17203W        W32672   3.139  15.703  10.151 -0.0081  0.0851  0.1358
17204W        W32673   5.599   1.753   4.033 -0.2363  0.2173  0.3568
17205W        W32674   8.889   1.970  13.385  0.0143 -0.0526 -0.1077
17206W        W32675   3.224   7.180   1.549 -0.1636  0.2708  0.1192
17207W        W32676  17.853  10.885  11.828  0.1341 -0.1869 -0.1301
17208W        W32677   2.037   4.693   0.751  0.0092  0.2723 -0.3575
17209W        W32678   2.836  12.450  11.545 -0.2756 -0.5018  0.2098
17210W        W32679   4.672  11.365   0.226  0.0016  0.0546 -0.0722
17211W        W32680  10.045   1.510  15.692 -0.1047 -0.0478 -0.0343
17212W        W32681   8.116   0.795  11.894 -0.1885  0.0467  0.1676
17213W        W32682   7.388  17.949  15.186 -0.2454 -0.0232  0.4386
17214W        W32683  15.452   2.355   0.036  0.0246  0.1847 -0.2259
17215W        W32684   0.916   3.847   1.274  0.4154  0.1309  0.1166
17216W        W32685   2.441  15.893   2.847  0.0760 -0.2896 -0.0310
17217W        W32686   2.525   6.962  14.260  0.0210  0.0364  0.2859
17218W        W32687   2.409  10.372  14.126  0.2265  0.1241 -0.1272
17219W        W32688   3.169   9.313  12.765 -0.0424  0.0804  0.1477
17220W        W32689  11.853  11.987  15.122  0.6220 -0.1377  0.3698
17221W        W32690   8.293   1.469   0.161 -0.0574  0.1159  0.2349
17222W        W32691   0.990   9.054   4.667  0.0507 -0.2128 -0.0796
17223W        W32692   0.065   2.721  11.390  0.0873  0.0815 -0.1092
17224W        W32693   3.978   2.284   6.559  0.1764  0.1864 -0.1564
17225W        W32694   2.524   5.417   0.598 -0.0583  0.0042  0.0491
17226W        W32695  11.090   2.231  13.027 -0.4610  0.0751  0.1015
17227W        W32696  17.393   7.353  15.582 -0.4592 -0.0821 -0.0899
17228W        W32697  10.023  15.906   5.360 -0.0783 -0.2819 -0.1554
17229W        W32698   1.101   5.265   2.350 -0.1940  0.0346  0.1486
17230W        W32699  10.920  16.898   1.922 -0.0730 -0.0786 -0.1015
17231W        W32700   0.020  13.805   3.148  0.1077 -0.0439 -0.0147
17232W        W32701   5.763  15.983  12.218  0.0699  0.1999 -0.0908
17233W        W32702   1.664  18.315   2.802 -0.0986 -0.0986 -0.0097
17234W        W32703  14.177  13.226   1.588 -0.0117  0.0263 -0.2174
17235W        W32704  13.026  16.429  12.806 -0.1049 -0.1350  0.0801
17236W        W32705  18.146  11.960  11.531  0.1406  0.1911 -0.0644
17237W        W32706  11.290   4.724   2.035 -0.0906  0.0682 -0.0173
17238W        W32707   5.974   0.943   3.152 -0.3067  0.0381 -0.2408
17239W        W32708   0.952  14.870  11.807  0.0415  0.2019 -0.1901
17240W        W32709   8.833   7.388  13.558 -0.1002 -0.2755  0.2136
17241W        W32710   2.499   6.017  13.070 -0.2977  0.0951 -0.6544
17242W        W32711   3.551   4.987   5.191  0.1474 -0.1533 -0.2070
17243W        W32712   1.010  11.178   0.482 -0.2997  0.0017 -0.3267
17244W        W32713   1.992  15.956   1.749 -0.1137  0.5400  0.0416
17245W        W32714   7.175   7.285  15.170 -0.0564 -0.2171 -0.2259
17246W        W32715  14.330  10.044  14.871  0.1423 -0.1225 -0.2197
17247W        W32716  13.994   1.638  12.721  0.2900  0.2780 -0.0509
17248W        W32717   5.721   1.031   0.699 -0.0095  0.0928 -0.2533
17249W        W32718  14.479  15.043   2.542  0.0873  0.2560  0.2111
17250W        W32719  13.847   2.196   0.015 -0.0099 -0.0429  0.0505
17251W        W32720   5.322   4.282  12.796 -0.0623  0.1597 -0.1609
17252W        W32721   2.822  15.383  12.569  0.1574  0.1946 -0.2379
17253W        W32722   5.989   1.361   4.081  0.1675  0.2968  0.2367
17254W        W32723   5.197  16.972   5.671  0.0536 -0.0190  0.3135
17255W        W32724   8.384   9.692  10.978 -0.0735 -0.1900 -0.0749
17256W        W32725  13.851  10.554   4.962 -0.0891 -0.0216  0.2003
17257W        W32726  12.442   3.027  14.187  0.1584 -0.0090 -0.0382
17258W        W32727  11.103  13.128   3.982 -0.3887 -0.0609  0.2870
17259W        W32728   4.800  11.104  15.757  0.1634  0.2412  0.3472
17260W        W32729  10.233   7.344   2.800 -0.1408  0.1484  0.2154
17261W        W32730   6.663   4.254  13.249  0.2520 -0.5854 -0.1709
17262W        W32731  10.858  15.479  14.641 -0.1118 -0.2403  0.0635
17263W        W32732  13.707   3.958   1.506  0.4226  0.1102  0.0432
17264W        W32733   9.947   9.404  15.689  0.1361 -0.2462 -0.2226
17265W        W32734  17.456  12.193  12.268  0.0066  0.0877  0.2043
17266W        W32735   4.246  10.153  11.440  0.0509  0.1778  0.2254
17267W        W32736   0.095  16.652   0.848  0.0937 -0.0994 -0.1013
17268W        W32737   4.794  16.229  11.820 -0.0843  0.1298 -0.0822
17269W        W32738   8.005  15.339   0.716 -0.1827 -0.0585 -0.2900
17270W        W32739   4.128  14.895  12.520 -0.0569 -0.0087  0.1330
17271W        W32740  17.210  13.159   1.306  0.0055 -0.2172  0.2001
17272W        W32741   8.890  15.815   0.859  0.3963  0.0505 -0.0705
17273W        W32742   0.931  12.829  12.336  0.0722  0.2813  0.2678
17274W        W32743   7.500  16.809  13.530 -0.0430 -0.0572  0.1554
17275W        W32744  14.321   0.771   0.059  0.1823  0.0367 -0.1744
17276W        W32745   7.959  18.424   4.524  0.0695 -0.0920 -0.0807
17277W        W32746  10.636   6.451   3.942 -0.3428 -0.0593 -0.0296
17278W        W32747   6.031  17.615   0.643 -0.0725  0.1490 -0.3132
17279W        W32748   6.171  16.456  14.624  0.3172  0.2957 -0.0719
17280W        W32749   5.416  15.931  12.615  0.0677 -0.2229 -0.2348
17281W        W32750  15.629   7.226  11.987  0.1755  0.3478  0.0679
17282W        W32751  15.682  16.715   3.302 -0.1300 -0.0159 -0.1177
17283W        W32752  10.815   7.901   1.967  0.1032  0.0938 -0.1886
17284W        W32753   6.219  11.684  12.310 -0.3103  0.1442  0.2525
17285W        W32754  14.035  18.407   2.456  0.2440  0.1081  0.0858
17286W        W32755   0.788  12.427   5.234 -0.0803 -0.2541 -0.2592
17287W        W32756   6.396   9.035  12.032  0.0913  0.2340  0.1438
17288W        W32757   8.671   9.744  15.573 -0.1645 -0.0470  0.0263
17289W        W32758  18.294   4.745  14.736 -0.2466  0.1288 -0.0530
17290W        W32759  16.364   6.955   4.854  0.0785 -0.3778 -0.1439
17291W        W32760  14.831  12.647  11.207 -0.1771  0.0842  0.1978
17292W        W32761  12.596   3.856  10.776 -0.0193 -0.2802 -0.1740
17293W        W32762  11.851  17.395   1.995  0.0670  0.1995 -0.1726
17294W        W32763  13.823  15.099  13.152 -0.0457 -0.0387  0.0312
17295W        W32764   2.493   8.066  13.683  0.1139  0.2346 -0.0220
17296W        W32765   1.348  13.693  13.130  0.0818 -0.1294 -0.2250
17297W        W32766   2.978   0.573  13.045 -0.0629 -0.1361 -0.1024
17298W        W32767   4.290   9.373   1.397 -0.4500  0.0497  0.1403
17299W        W32768  11.910   7.356   1.760 -0.1196  0.3827  0.0925
17300W        W32769  17.596  12.466   5.202  0.3450  0.0957 -0.1769
17301W        W32770   1.354   8.255   0.597 -0.1194  0.3173 -0.0355
17302W        W32771   4.638   6.639  13.398 -0.3783 -0.3012  0.2594
17303W        W32772   1.919   7.123   4.629  0.0015  0.2188 -0.1965
17304W        W32773  15.526  13.473   1.612 -0.1609  0.1876  0.4908
17305W        W32774   8.033  15.948   2.903 -0.1227  0.0615 -0.6152
17306W        W32775   0.896  17.506  13.006 -0.2184  0.2043  0.0302
17307W        W32776   9.737  10.826  15.429 -0.0092  0.0564 -0.3631
17308W        W32777   9.569   2.749  11.488 -0.0661  0.2451 -0.0829
17309W        W32778  13.674  11.177  10.896 -0.4655  0.0015  0.0102
17310W        W32779  11.423   1.575  15.740  0.3652  0.1631 -0.0109
17311W        W32780   5.230   9.066  14.776  0.0659 -0.0863 -0.2299
17312W        W32781  16.441   5.122   2.295 -0.1872 -0.3047 -0.0157
17313W        W32782   8.096  13.862   2.481 -0.1960 -0.1188 -0.1395
17314W        W32783   6.842   2.060  15.822  0.1537  0.0858  0.3174
17315W        W32784   4.037   5.022  11.774 -0.1714 -0.3327  0.0108
17316W        W32785   7.334   0.676  11.731 -0.0578  0.2665  0.0287
17317W        W32786   7.192   3.010  10.233 -0.1712  0.1966  0.1833
17318W        W32787  12.017  15.484   2.568 -0.0398  0.1181 -0.0717
17319W        W32788  15.803  12.165   4.728 -0.0941  0.0955 -0.0359
17320W        W32789   2.467  12.911  10.043 -0.3659 -0.3758 -0.0451
17321W        W32790  11.722  12.428  13.336 -0.6953 -0.1839  0.0274
17322W        W32791   6.768  17.135   0.644  0.1571 -0.0077 -0.0373
17323W        W32792   7.261  17.578   0.031  0.2346 -0.0821 -0.1179
17324W        W32793   4.738  10.015   5.602 -0.0206 -0.0042 -0.1478
17325W        W32794   1.469   4.696  15.984  0.3861 -0.1600  0.0639
17326W        W32795   9.181  16.531   1.454 -0.1076  0.2458 -0.1586
17327W        W32796  17.081  10.642   4.575  0.0464 -0.1539 -0.2065
17328W        W32797   7.443  10.455   4.051 -0.0485  0.0065  0.1554
17329W        W32798  16.352   9.245  11.330  0.0282 -0.4893  0.3315
17330W        W32799   3.513   5.471   4.410  0.1938  0.3017 -0.1222
17331W        W32800   6.928   1.484   1.476  0.0403  0.2982 -0.2227
17332W        W32801  13.720  10.542   4.473 -0.3335 -0.1019 -0.1332
17333W        W32802   5.359   0.759   0.448 -0.3523  0.2153 -0.1825
17334W        W32803   3.108  11.992   0.133 -0.2660 -0.0629 -0.1815
17335W        W32804  10.744  13.902  10.436 -0.2988  0.4133  0.1278
17336W        W32805   5.695   0.084   9.779  0.2236 -0.1693 -0.1621
17337W        W32806   5.228   3.653  12.237  0.1541  0.1613 -0.1176
17338W        W32807  10.427  12.440   3.065 -0.1894 -0.1482  0.0725
17339W        W32808  13.312  11.181   2.638 -0.0546  0.3020  0.3918
17340W        W32809  13.103   9.970   1.388  0.0994 -0.0040  0.0100
17341W        W32810  12.414   7.255  15.337 -0.2470 -0.1635 -0.0341
17342W        W32811   0.857   0.238  13.779  0.1481  0.3137  0.0453
17343W        W32812   9.585  11.098  10.618 -0.0385  0.1055  0.0428
17344W        W32813   8.417   7.535   2.851  0.1212 -0.0558  0.2430
17345W        W32814   7.145  16.375   0.043 -0.0609  0.0260  0.1442
17346W        W32815  15.778  11.722   0.305 -0.3105  0.1310  0.2560
17347W        W32816  17.048   4.059   2.367  0.0018  0.0694 -0.2564
17348W        W32817  15.380   9.420  15.578 -0.1158  0.1106 -0.0856
17349W        W32818   9.026   2.488  10.790 -0.0880  0.2056  0.3801
17350W        W32819  12.038  14.869   1.604 -0.1164  0.0282  0.0987
17351W        W32820   3.451  16.819  15.954 -0.1251 -0.1870  0.1609
17352W        W32821   4.471   9.492  11.884  0.0103 -0.0222  0.2178
17353W        W32822   3.340  11.787   5.932  0.0374  0.5576  0.3746
17354W        W32823   6.740  16.418  10.420  0.0799  0.0583 -0.1663
17355W        W32824   4.880  13.910  11.366  0.1836 -0.1676 -0.0956
17356W        W32825   7.797   7.548   1.174  0.2398 -0.0949  0.1516
17357W        W32826   7.800   3.525  14.235 -0.1193  0.2248 -0.1387
17358W        W32827  13.157  16.218  14.951  0.0482 -0.0769  0.2627
17359W        W32828  11.352  14.760   3.766 -0.2515 -0.2469  0.1322
17360W        W32829  12.184   4.915   0.589 -0.1794  0.1070  0.1532
17361W        W32830   8.821  13.045   1.134  0.1617  0.0297 -0.1275
17362W        W32831   3.307  17.929   4.605 -0.0084 -0.0088 -0.0711
17363W        W32832  12.435   1.257  14.350 -0.2317  0.1767  0.1844
17364W        W32833  10.588  10.744  14.688 -0.1504  0.3113  0.0081
17365W        W32834   2.816   5.121   0.962 -0.2784 -0.2359 -0.0938
17366W        W32835   8.721   4.498   1.943 -0.0559 -0.3949 -0.0766
17367W        W32836   7.548  12.646  14.243 -0.0264 -0.1400  0.1109
17368W        W32837   1.260  13.583  13.618  0.1693 -0.3106 -0.1772
17369W        W32838  12.651  13.622  14.143  0.0250  0.0356 -0.3369
17370W        W32839  18.367   8.411   0.953  0.2390 -0.0127 -0.0521
17371W        W32840   6.002   6.475   0.757 -0.0185  0.1264  0.1354
17372W        W32841   9.683  11.140   1.941  0.0521  0.1253 -0.0667
17373W        W32842   9.517  12.982  14.791 -0.2042 -0.0224  0.1361
17374W        W32843  14.745  11.333   5.844  0.1310  0.0318  0.1013
17375W        W32844   7.083  17.244   3.561  0.1375 -0.1607  0.0293
17376W        W32845   7.791   5.452   1.027 -0.1941  0.1847 -0.1604
17377W        W32846  13.306  13.231  15.775  0.0131  0.1444  0.0862
17378W        W32847  11.854   8.712   2.350 -0.1838 -0.2395 -0.1364
17379W        W32848  14.440  17.285   3.346 -0.0350  0.0386 -0.2556
17380W        W32849  17.406  10.014  11.311 -0.1577  0.3784  0.0097
17381W        W32850   7.531  13.453   1.831 -0.1969 -0.3810  0.1571
17382W        W32851   6.405  17.770   2.801  0.1200  0.1636  0.1259
17383W        W32852   1.460  17.645  14.720 -0.0256 -0.1506  0.1684
17384W        W32853   5.240   1.030   5.231  0.3110  0.2217 -0.0759
17385W        W32854   4.696   5.323  15.358 -0.1776  0.3344  0.1349
17386W        W32855   7.440   0.648   3.764  0.1243  0.0329 -0.0274
17387W        W32856  17.219  11.931   2.127 -0.1902 -0.2595 -0.0953
17388W        W32857   5.958   4.197   3.507 -0.3182 -0.0793 -0.3601
17389W        W32858  12.589   2.417   6.001 -0.0797  0.4111 -0.1326
17390W        W32859  17.909  15.301  15.783  0.1033  0.0723 -0.1721
17391W        W32860  13.484   1.537  12.470  0.0655 -0.0614 -0.0235
17392W        W32861   7.772   9.568   3.008  0.0191 -0.0430 -0.3490
17393W        W32862  12.744   3.313  13.071 -0.1503  0.0280 -0.2824
17394W        W32863  17.707  12.569  13.985  0.2206  0.2618 -0.3249
17395W        W32864   2.781   7.046   2.370  0.3564 -0.2297 -0.2128
17396W        W32865   3.812  13.196   0.879  0.0178 -0.3147 -0.2867
17397W        W32866   9.960   6.989  10.690  0.2145  0.1035  0.1862
17398W        W32867  11.529  12.917  13.429 -0.2134 -0.1353  0.1262
17399W        W32868  16.061   4.357  12.877 -0.1461 -0.0060 -0.1760
17400W        W32869  14.605   6.676   4.496  0.0283 -0.2894 -0.1962
17401W        W32870   0.769  17.839   3.039 -0.0400 -0.2517  0.0767
17402W        W32871  12.038   5.754  12.444  0.1233 -0.0675 -0.3729
17403W        W32872   7.935  17.044   4.739  0.0722  0.2174 -0.5475
17404W        W32873  17.716  10.291   0.134  0.2319  0.1224 -0.0915
17405W        W32874  16.578  14.518   4.597  0.1542  0.1949  0.0320
17406W        W32875  11.113   1.770   1.065  0.2173 -0.1117 -0.0518
17407W        W32876   6.828  16.950   1.113 -0.1676 -0.3159  0.0545
17408W        W32877   3.136   2.149  13.882 -0.0527 -0.1197  0.0035
17409W        W32878   8.527   3.692  14.750 -0.0840 -0.1220  0.2366
17410W        W32879  10.917   1.327   1.872  0.0325 -0.1101 -0.1596
17411W        W32880  13.601   4.433  14.104 -0.1810  0.1010 -0.0402
17412W        W32881   1.923  12.651   2.498 -0.0166 -0.1352  0.0151
17413W        W32882   8.357   7.426   0.155  0.1036 -0.1319 -0.2647
17414W        W32883   2.593   8.498  12.957 -0.1859 -0.0966 -0.2276
17415W        W32884  11.086   7.999  12.258  0.3471 -0.1574  0.1397
17416W        W32885  14.176   9.945   3.824 -0.1158  0.1574 -0.3203
17417W        W32886  17.914   5.005   5.170  0.0313  0.0901  0.0703
17418W        W32887   1.126   4.928   3.245 -0.0386  0.1688  0.1334
17419W        W32888   4.694   0.545  13.390 -0.1193  0.1764  0.1271
17420W        W32889  17.676   5.599   2.287  0.1522 -0.0291  0.0945
17421W        W32890   9.267  16.903   4.955 -0.0524 -0.0219 -0.3557
17422W        W32891   5.923   6.527  15.054 -0.2759 -0.1116  0.0573
17423W        W32892   0.758  11.282   2.231 -0.1350  0.1431  0.0326
17424W        W32893  13.024   5.322  15.687 -0.2487  0.2331 -0.1575
17425W        W32894   1.263  14.020  13.814 -0.1407 -0.1779  0.0627
17426W        W32895  18.077   7.189   1.143 -0.5267  0.1106  0.1488
17427W        W32896   8.422   5.530  14.381 -0.1499 -0.1353  0.1828
17428W        W32897  12.579  10.782  12.446 -0.1796  0.2472 -0.0288
17429W        W32898   5.549   5.649   5.799  0.1396 -0.1748 -0.1785
17430W        W32899   0.991  16.386   4.409  0.2362 -0.2087  0.3903
17431W        W32900  13.137  12.939   0.080  0.0848  0.3209  0.0277
17432W        W32901   9.388   2.040   3.546  0.0019  0.1551 -0.0803
17433W        W32902  11.057  13.387   2.287  0.2220 -0.1828 -0.1866
17434W        W32903   4.323  15.324  12.568  0.0893  0.0297 -0.1995
17435W        W32904   4.000  12.707  15.076 -0.0619  0.1672  0.4928
17436W        W32905  18.212   1.566  13.713  0.2047  0.4070 -0.2256
17437W        W32906  15.528   9.390  12.636 -0.1997  0.0700  0.0873
17438W        W32907  14.709  17.439   4.420  0.0690  0.0347  0.0824
17439W        W32908  17.853  16.971   3.630  0.0064 -0.0277  0.1244
17440W        W32909   2.814  14.444   4.470 -0.2642 -0.3343 -0.2961
17441W        W32910   2.839   1.841  14.624  0.2691 -0.0851  0.1741
17442W        W32911   9.625  11.442   4.734 -0.0555 -0.1378 -0.1147
17443W        W32912   0.641   2.135   1.594  0.1804 -0.1237  0.0405
17444W        W32913  16.868  15.298  10.877 -0.0050 -0.2848  0.0691
17445W        W32914   7.973   8.720   2.915 -0.3202 -0.1526  0.1474
17446W        W32915  16.412   5.777  14.182 -0.1685  0.0655 -0.1024
17447W        W32916   3.668  17.413  14.357 -0.0234  0.1174 -0.1100
17448W        W32917   4.908   6.684   3.484 -0.4617 -0.2504 -0.1119
17449W        W32918  12.937  10.980  13.449 -0.3896  0.1949  0.3622
17450W        W32919   8.165  11.158  11.202  0.1012 -0.3734 -0.2298
17451W        W32920  13.091   6.526   3.235 -0.1395  0.0396 -0.1889
17452W        W32921   4.259   4.338   5.458  0.0622  0.1273 -0.0917
17453W        W32922  15.704   3.409   2.509 -0.1266 -0.0091 -0.0138
17454W        W32923  15.620  16.847  15.070  0.1557 -0.2145 -0.1102
17455W        W32924   0.778  11.374  14.798  0.1372  0.0986  0.0489
17456W        W32925  15.025   5.166   1.530  0.0942 -0.4486 -0.0899
17457W        W32926  17.023  18.352  13.291  0.2031  0.2177  0.1862
17458W        W32927   0.268   0.520   2.321 -0.0799  0.0283 -0.0246
17459W        W32928   5.090  10.649   1.223  0.0523  0.2366 -0.0784
17460W        W32929   1.955  15.543  14.376 -0.1068  0.3066 -0.0489
17461W        W32930   6.456  18.143  14.249 -0.0692  0.0389 -0.0245
17462W        W32931  17.791   9.916  11.560  0.2423  0.3153 -0.0328
17463W        W32932   0.223   1.907   0.530  0.0639  0.0803  0.3174
17464W        W32933   7.159   5.722   1.865  0.2264 -0.0449 -0.0361
17465W        W32934   2.159  16.869  12.614 -0.0285  0.2716 -0.2284
17466W        W32935   3.496   7.523  14.936  0.2624  0.3392 -0.1884
17467W        W32936   6.040  16.279   3.603 -0.2597  0.0674 -0.2297
17468W        W32937   1.137  10.100   4.663 -0.1903 -0.0731  0.2348
17469W        W32938  18.148  15.155   4.779 -0.1039  0.0181  0.1572
17470W        W32939   3.072   9.924   3.078  0.0295 -0.0443  0.0132
17471W        W32940  13.650  12.364   2.920  0.1495 -0.1313 -0.0541
17472W        W32941   6.616  18.376   2.631 -0.3069  0.0695 -0.0840
17473W        W32942  16.399   8.679  15.191  0.3563  0.1712 -0.2100
17474W        W32943  15.896   8.858   5.299 -0.0601 -0.2871 -0.0874
17475W        W32944  13.554  12.021   1.246 -0.2175  0.0261 -0.0737
17476W        W32945  12.742  16.099   0.708  0.3857 -0.3338  0.1307
17477W        W32946  16.875  13.492   1.184 -0.0754  0.1110  0.1066
17478W        W32947  12.780   9.441  14.392 -0.4221 -0.0543 -0.0883
17479W        W32948  10.588   9.554  11.882  0.0472  0.3563 -0.3602
17480W        W32949   2.979  14.444   5.092  0.1550  0.0629  0.0930
17481W        W32950   7.713  14.100   0.737 -0.0074 -0.1884 -0.0450
17482W        W32951  11.783  18.294  10.028  0.2512 -0.1023  0.0004
17483W        W32952  11.415   1.274  12.654 -0.0206  0.3965  0.2666
17484W        W32953  15.277  16.611  15.976  0.0286 -0.0187  0.0034
17485W        W32954  13.993  16.690   4.532  0.0553  0.0432 -0.2994
17486W        W32955   8.815   6.528   3.382  0.0446 -0.2116  0.0144
17487W        W32956   4.923   6.159  15.778  0.3580 -0.0144  0.2097
17488W        W32957   3.839   7.092  13.655 -0.0990  0.4324  0.0387
17489W        W32958   7.085  16.902  14.421  0.2268  0.0010 -0.0476
17490W        W32959   4.093  18.249   0.743 -0.0832 -0.1561 -0.0960
17491W        W32960   6.919   5.987   4.870 -0.2540 -0.1519  0.2684
17492W        W32961  16.764   3.723   4.602 -0.0480  0.0347  0.0947
17493W        W32962   4.157  16.633   0.200 -0.0361 -0.1962 -0.2432
17494W        W32963   3.652   2.806   2.683 -0.0137  0.0957 -0.3195
17495W        W32964   7.346  16.434   3.873 -0.1476  0.2084  0.0862
17496W        W32965   8.805  11.737  13.156  0.0100  0.0211 -0.1418
17497W        W32966  11.981  11.914  12.459  0.1626 -0.1203  0.2315
17498W        W32967  12.257   0.941   4.119 -0.0498  0.0121  0.1132
17499W        W32968   1.689   8.437   5.725  0.0230  0.0410 -0.0215
17500W        W32969  13.701   1.189   2.069  0.0670 -0.2403 -0.2385
17501W        W32970   7.794  11.087  15.903 -0.2766 -0.2065 -0.2038
17502W        W32971   0.734  10.056  14.143  0.4661 -0.0960 -0.4364
17503W        W32972  11.462   2.473  14.721 -0.0058 -0.2577  0.3173
17504W        W32973   6.591  10.718   4.326 -0.1043 -0.0059  0.1318
17505W        W32974  15.265   4.117   4.104 -0.1819 -0.0030 -0.0562
17506W        W32975  14.008   6.759   2.957 -0.1301 -0.1422  0.4289
17507W        W32976  15.907   3.654   4.416 -0.3314 -0.0466  0.1805
17508W        W32977  13.117   2.537  12.382  0.4239 -0.1880 -0.2264
17509W        W32978  13.519  10.199  14.418 -0.4225  0.2966  0.3795
17510W        W32979  13.104  12.804  14.921  0.3159  0.0479 -0.0304
17511W        W32980   1.293   0.876  15.949 -0.1068  0.2986 -0.2189
17512W        W32981   4.678   3.071  11.049 -0.0548 -0.2377  0.0170
17513W        W32982   0.321  15.375   4.108 -0.2127  0.0750  0.0943
17514W        W32983   4.791  15.290  12.301 -0.2528 -0.1119 -0.2863
17515W        W32984  12.776   9.544  10.719  0.3306 -0.0133  0.0106
17516W        W32985   9.343  13.163   3.513  0.3117  0.2713 -0.0597
17517W        W32986   5.798   2.409  13.587 -0.1505  0.0295  0.1028
17518W        W32987   3.229   3.984  11.414 -0.0453  0.1566  0.0788
17519W        W32988   5.535   2.817  15.438 -0.0065 -0.2387  0.2241
17520W        W32989  14.015   5.749   5.606  0.0529 -0.2246 -0.0941
17521W        W32990   1.167   2.329   1.473 -0.1006  0.0972  0.0652
17522W        W32991  10.313   0.344   2.395  0.1059  0.0902  0.1320
17523W        W32992  13.483   3.403  14.657  0.1239 -0.2030 -0.0444
17524W        W32993  12.323   5.085   0.129  0.1100 -0.0477 -0.2409
17525W        W32994  16.744  16.164   5.214 -0.1289  0.1510 -0.0799
17526W        W32995   3.940  11.355   0.321  0.1853  0.1691  0.0362
17527W        W32996   2.455   4.110   3.994 -0.1077  0.2663 -0.1998
17528W        W32997   9.741   8.985   5.155 -0.1383 -0.1408 -0.4317
17529W        W32998   4.707   2.071  15.012  0.0017  0.3853 -0.1620
17530W        W32999  12.820   4.379  15.924  0.1015 -0.2273 -0.0370
17531W        W33000   0.063  12.822   2.753  0.0414  0.4394  0.0960
17532W        W33001  10.071  12.627   1.319 -0.0542  0.1046 -0.1974
17533W        W33002   9.079   2.961   0.673 -0.1826 -0.1496 -0.1508
17534W        W33003  11.901   3.956   2.407  0.0496  0.0056 -0.2524
17535W        W33004  16.296  10.377  12.891 -0.2589  0.0957  0.1422
17536W        W33005  16.436  13.056  11.986 -0.3734  0.3019  0.0151
17537W        W33006  10.360   2.790   3.529 -0.2746 -0.2597  0.1239
17538W        W33007  13.563  13.860  13.808  0.2173  0.1267  0.2655
17539W        W33008  18.346  17.233   1.682  0.0925  0.4415 -0.2365
17540W        W33009   7.659   2.184  14.084  0.0765 -0.1197  0.2312
17541W        W33010   9.223   2.028  14.336  0.1203  0.1088  0.0701
17542W        W33011   2.643  17.359   5.399  0.1290  0.1611  0.0177
17543W        W33012   8.046   9.389  10.738  0.1819 -0.0109 -0.2954
17544W        W33013  18.257  15.595  15.501 -0.0462  0.0037 -0.0236
17545W        W33014   4.546  16.604   4.434  0.1578  0.0281 -0.1304
17546W        W33015  10.440   0.874   2.373 -0.0370  0.2626 -0.2962
17547W        W33016   9.435   0.663  12.018 -0.0785  0.0490  0.0280
17548W        W33017  13.224  16.361  10.921  0.3036  0.0068  0.0572
17549W        W33018   1.831   0.762   4.089 -0.5063  0.2074 -0.2336
17550W        W33019   7.521  12.159   4.615 -0.2452  0.3318  0.3674
17551W        W33020   4.664   2.397  14.609 -0.0003 -0.1554 -0.1082
17552W        W33021   5.286   7.976  11.780 -0.1409 -0.1186  0.0748
17553W        W33022  12.907   4.674  13.463 -0.4143  0.2078  0.0479
17554W        W33023  15.286  14.051  15.284  0.1522  0.0050  0.3301
17555W        W33024   4.595   0.880  11.322 -0.1254  0.1804  0.1669
17556W        W33025   7.567  14.092  11.830  0.2071 -0.0431 -0.0940
17557W        W33026  11.099   0.168   4.011 -0.3343 -0.1123  0.0571
17558W        W33027   0.035  11.489   0.045 -0.2958 -0.0431 -0.1307
17559W        W33028  17.835  12.748   0.769  0.4699 -0.3517  0.0413
17560W        W33029   2.373  16.883   1.528  0.2148  0.1790  0.2424
17561W        W33030   6.390  10.197   1.796  0.0386  0.0849  0.1030
17562W        W33031  13.383   7.797  11.500  0.0750 -0.0358 -0.3366
17563W        W33032  10.644   5.640  14.959  0.0500  0.1610 -0.1619
17564W        W33033  15.087  13.593  14.369 -0.0567 -0.2934 -0.1715
17565W        W33034  16.501  14.445   2.519  0.0706  0.1143  0.0248
17566W        W33035  13.550  11.635   3.027 -0.1420  0.0322 -0.2801
17567W        W33036  13.504  17.266   4.427 -0.0092 -0.1937  0.1335
17568W        W33037   1.848  16.455  12.544 -0.1228  0.1043  0.0188
17569W        W33038  14.929   8.901  11.428  0.1113 -0.1654  0.3131
17570W        W33039  12.165  14.530   1.928  0.2105  0.2814  0.2552
17571W        W33040   7.913   7.085  12.090 -0.0540  0.1626  0.1419
17572W        W33041  17.600  11.369   3.011 -0.1472 -0.1542 -0.0961
17573W        W33042   5.827  12.018   3.662  0.1047  0.1910  0.1534
17574W        W33043   6.797   3.952  10.703  0.0819 -0.0897  0.0669
17575W        W33044  13.365   8.037   0.351  0.2928 -0.1303 -0.2293
17576W        W33045   7.212   1.436   0.391 -0.1705  0.2153 -0.1694
17577W        W33046   4.659  15.078  15.715  0.2246  0.0215 -0.2288
17578W        W33047   6.255   0.605   3.419  0.0423  0.1310 -0.3013
17579W        W33048   1.326   6.603   0.475  0.2775 -0.0639  0.0880
17580W        W33049  18.279   8.095   1.384 -0.0382  0.1980  0.1062
17581W        W33050  17.010  16.741   4.569 -0.2863  0.2324 -0.1978
17582W        W33051  12.995  11.460  15.762 -0.0353 -0.3097 -0.1306
17583W        W33052  13.387  16.700  13.541  0.0672 -0.1492 -0.2769
17584W        W33053   6.922  11.558   2.245 -0.0027  0.2081  0.0586
17585W        W33054   8.347  11.101   2.256 -0.1287 -0.1694  0.1047
17586W        W33055  15.667  13.248   3.636 -0.0293 -0.0233 -0.4693
17587W        W33056   3.323   3.076   3.037  0.0938 -0.0133  0.2758
17588W        W33057  17.869  18.108  10.795  0.1678 -0.3784 -0.0195
17589W        W33058   2.808   2.692   0.238 -0.1466 -0.1698 -0.1429
17590W        W33059  15.230   4.820   6.373  0.0808  0.0617  0.1553
17591W        W33060  16.552   7.154  13.907  0.5676  0.1220 -0.1158
17592W        W33061   2.742   8.858  13.626  0.2069  0.1407 -0.1116
17593W        W33062  11.172  15.656   2.304 -0.0852  0.1487  0.3058
17594W        W33063   3.414   1.624   1.184  0.3336  0.0385  0.2040
17595W        W33064  11.564   0.185   4.129 -0.1727  0.1165 -0.1535
17596W        W33065   2.518  11.285   5.278  0.2798  0.0915  0.2918
17597W        W33066   7.225  16.581   2.948  0.0263 -0.1348  0.0662
17598W        W33067   4.014   6.971   1.381 -0.2116 -0.1272 -0.0668
17599W        W33068   0.729   8.749  13.567 -0.1212  0.2258 -0.2456
17600W        W33069   9.291  11.736   0.637 -0.1581  0.1828 -0.0456
17601W        W33070  12.122   0.488   3.310  0.0305  0.0933 -0.0940
17602W        W33071  16.248  10.906  11.114 -0.0965  0.1420 -0.1361
17603W        W33072  16.025   3.597   1.838 -0.1232 -0.0054 -0.2650
17604W        W33073   9.132   3.401   3.979  0.1450 -0.1670  0.0313
17605W        W33074   3.056   5.569   1.133 -0.0202  0.1242 -0.1201
17606W        W33075  13.007  10.602  13.851 -0.0056 -0.1132 -0.0556
17607W        W33076   7.451   5.477   5.131  0.0539  0.0346 -0.0311
17608W        W33077   7.250   3.191   4.910  0.0090  0.0475  0.5883
17609W        W33078   4.351  15.605   0.511  0.0753  0.0662 -0.0883
17610W        W33079   3.089   0.282   5.139 -0.2601 -0.2879 -0.3325
17611W        W33080  15.870  10.793   1.548  0.2173  0.0316 -0.1510
17612W        W33081   9.750   0.761   3.696  0.1168 -0.0406  0.0120
17613W        W33082   7.524  16.403   5.223  0.1194  0.1020 -0.3188
17614W        W33083   5.886  16.392   2.536  0.3622 -0.1738  0.0675
17615W        W33084  12.127   9.817  15.524 -0.0310 -0.2774  0.2385
17616W        W33085   7.711  12.765  13.298  0.0905  0.0867  0.1222
17617W        W33086  11.378  14.982  15.349 -0.1296 -0.0441 -0.0746
17618W        W33087   5.911   8.807  14.500 -0.2129 -0.0152  0.3171
17619W        W33088   3.901   9.290   4.299  0.0661 -0.1290 -0.2017
17620W        W33089   4.806   3.892  12.117  0.2123 -0.0735  0.2171
17621W        W33090   8.797   6.385  13.763 -0.1659 -0.2535  0.1155
17622W        W33091  12.615   4.326  14.894 -0.0433 -0.2111 -0.0088
17623W        W33092  10.986   4.985   1.767  0.0420 -0.0599  0.2456
17624W        W33093  16.661  17.874  15.100 -0.0738 -0.0749 -0.1683
17625W        W33094   8.691  12.590   2.826  0.0426  0.3160  0.0741
17626W        W33095   2.350  17.941  14.302  0.0394  0.1686  0.0531
17627W        W33096   0.641  13.371  14.216  0.0638 -0.0068 -0.3266
17628W        W33097  18.106   2.227  11.930 -0.1338 -0.0748 -0.0005
17629W        W33098   9.151  16.127   0.073 -0.0189 -0.2004 -0.3290
17630W        W33099   3.386  13.833  11.027 -0.0076 -0.0154  0.3301
17631W        W33100   2.229  15.337  13.070  0.2915 -0.0225 -0.2526
17632W        W33101  16.641  15.335   0.248  0.0185 -0.2044 -0.0458
17633W        W33102   2.487  13.644  14.301 -0.0717  0.1234  0.1053
17634W        W33103  12.530  15.370  12.693 -0.2171 -0.1766  0.1707
17635W        W33104  14.799  17.803   2.822 -0.2101  0.2464  0.0856
17636W        W33105   7.127   9.133   5.927  0.4220 -0.0097 -0.1380
17637W        W33106   1.980   6.802  11.858 -0.1503  0.3645 -0.0520
17638W        W33107  18.358   8.130   2.025  0.2127  0.0562 -0.2489
17639W        W33108  16.157  13.890   5.186 -0.2241  0.2648 -0.3958
17640W        W33109   6.434   8.997  14.553  0.2890 -0.1276 -0.0646
17641W        W33110   7.169   4.517  12.227  0.1214 -0.0204  0.0245
17642W        W33111  14.835  15.779  11.943 -0.0108 -0.1432  0.0742
17643W        W33112  15.325   1.314  14.615 -0.0625  0.2533 -0.0974
17644W        W33113   8.447   5.081  10.704 -0.1287 -0.1147 -0.1495
17645W        W33114  13.966  16.754  16.008  0.0154  0.3937  0.1554
17646W        W33115   6.326   7.456  11.798  0.1063 -0.1541 -0.2488
17647W        W33116  16.372   0.180   0.331  0.0342 -0.1546 -0.0085
17648W        W33117   3.008  13.090   4.169 -0.2108  0.0992  0.1686
17649W        W33118  11.378   8.692  11.439  0.2406 -0.0309 -0.1185
17650W        W33119  12.691   1.078   4.379  0.0526  0.3305  0.0357
17651W        W33120  18.226  11.074  10.870  0.0228 -0.0803  0.2494
17652W        W33121  14.287  13.927  10.935  0.4559 -0.0989  0.0323
17653W        W33122   7.129   5.590  15.103  0.1750 -0.2822 -0.0686
17654W        W33123   9.304   6.846   0.328 -0.0949 -0.1223 -0.1293
17655W        W33124   1.182  15.271   1.191  0.0959 -0.2835 -0.1346
17656W        W33125  14.208  14.266  13.564 -0.1463 -0.1300 -0.1929
17657W        W33126  13.799  17.568   3.944  0.1508 -0.3362 -0.0590
17658W        W33127  18.371  17.425  13.804 -0.1028  0.1721 -0.2161
17659W        W33128   0.432   8.637  12.657 -0.4551  0.1780  0.2718
17660W        W33129   0.378   5.002  13.483 -0.1701  0.3513 -0.2049
17661W        W33130  12.886  13.818  13.654 -0.1144  0.2010  0.4188
17662W        W33131   0.348  16.981  12.171  0.4637  0.3070  0.1551
17663W        W33132  12.877   1.274   0.856  0.0572  0.2140 -0.3032
17664W        W33133  16.362   1.940   2.829  0.5000  0.1397 -0.1642
17665W        W33134   3.367   3.520   4.190 -0.0813 -0.1360 -0.3121
17666W        W33135   1.997   3.910   3.873 -0.2065 -0.0567 -0.1984
17667W        W33136  18.153  12.815   3.336 -0.1927  0.2767  0.1705
17668W        W33137  13.905   7.882   4.416  0.0171 -0.3887  0.1223
17669W        W33138  17.758   9.127   3.984  0.0857 -0.0636 -0.0275
17670W        W33139   8.353  11.366  13.019 -0.2417 -0.0933 -0.2691
17671W        W33140   2.489   6.567   5.733  0.1123 -0.1020 -0.1246
17672W        W33141  15.130  10.406   5.320 -0.1616  0.2072 -0.0769
17673W        W33142  13.605   3.278  15.123  0.1449  0.1000 -0.0079
17674W        W33143   1.073   4.865  12.771 -0.2015 -0.1002 -0.0243
17675W        W33144  16.138   7.667   4.776 -0.3706 -0.0370 -0.3170
17676W        W33145   6.788  15.657  14.658 -0.1351 -0.2800 -0.1449
17677W        W33146  10.551   4.764   1.638 -0.2739 -0.0699 -0.1096
17678W        W33147  15.992  18.324   2.595 -0.0775  0.1228  0.1079
17679W        W33148   6.296   8.631   2.363  0.2134 -0.0809  0.0614
17680W        W33149   8.050   1.978   4.403  0.2687  0.1971 -0.0989
17681W        W33150   3.172  18.059  13.981  0.2704 -0.4101 -0.1052
17682W        W33151  13.149   7.238   2.548  0.1237  0.1917 -0.0000
17683W        W33152   7.264  16.943  13.944 -0.1895 -0.2210  0.1053
17684W        W33153   8.303  11.516   4.544  0.2898 -0.0856 -0.1511
17685W        W33154   6.282   6.246   1.199  0.1221  0.1510 -0.1745
17686W        W33155  10.398   5.806   5.090 -0.0753  0.0263 -0.2106
17687W        W33156   1.320   8.187   3.289  0.0379 -0.1774  0.1044
17688W        W33157   7.416  13.258   0.042 -0.2988  0.1037 -0.1695
17689W        W33158   1.575   5.942  11.620 -0.0130  0.1270  0.1699
17690W        W33159  14.039  17.631  14.880 -0.0331 -0.4115 -0.3097
17691W        W33160   9.970  11.104  11.459  0.0860 -0.2210 -0.0975
17692W        W33161   3.818  12.602   3.034  0.0740 -0.0123 -0.0463
17693W        W33162  17.700  14.350  12.423 -0.2021 -0.0221  0.0309
17694W        W33163   7.144   1.327   1.055  0.1812 -0.0157 -0.3381
17695W        W33164   9.056  10.889  13.377  0.0824 -0.3453 -0.3152
17696W        W33165   7.243   5.658  14.261 -0.0473 -0.3467 -0.1615
17697W        W33166   8.870  17.902  11.274  0.0866  0.0814  0.0085
17698W        W33167   1.620  16.764  10.822  0.1258 -0.0901 -0.2141
17699W        W33168  11.189   0.143  11.743 -0.3178 -0.2286  0.0063
17700W        W33169   7.288   3.631   4.476  0.0880  0.1991 -0.1670
17701W        W33170  12.683   8.258   6.308  0.2621  0.0882 -0.0964
17702W        W33171   8.107  18.158   0.189 -0.1052  0.1265  0.1064
17703W        W33172  15.446   3.771   0.717 -0.0307 -0.2317  0.0940
17704W        W33173   9.765  11.992  10.959 -0.0905  0.0290 -0.1806
17705W        W33174   2.054  10.926  11.978  0.0986 -0.0092 -0.2146
17706W        W33175   6.567  15.884  12.119  0.0765 -0.4566  0.1801
17707W        W33176  16.735   8.276  15.094  0.2471 -0.1782 -0.3141
17708W        W33177   4.033  13.982   5.302 -0.0160 -0.0806 -0.1202
17709W        W33178  15.172   0.737   0.771  0.2319 -0.1377  0.0332
17710W        W33179  13.601   6.706  15.113 -0.1732  0.0605 -0.1003
17711W        W33180   2.780   2.731  12.777 -0.4613 -0.0553 -0.1240
17712W        W33181   0.013  13.434   2.836 -0.1626 -0.1813  0.0827
17713W        W33182  12.284   6.785  12.620 -0.1958  0.1287  0.1182
17714W        W33183   9.102  11.435  14.317  0.1318 -0.1791 -0.0868
17715W        W33184   6.850  15.902  12.866 -0.2343  0.2318 -0.0973
17716W        W33185   9.466  14.275  12.335  0.1965 -0.1936 -0.1140
17717W        W33186   4.730  12.686  13.133 -0.4963 -0.2212  0.0823
17718W        W33187  14.824   3.508   5.247  0.0446 -0.2049 -0.2314
17719W        W33188   5.985   1.184  15.819  0.0447  0.1264 -0.3947
17720W        W33189  15.446   6.344   3.658 -0.0919 -0.4338 -0.1542
17721W        W33190  11.646   4.568   2.416  0.0069  0.1531 -0.1205
17722W        W33191  10.817   2.863   0.317  0.2609  0.0455 -0.4115
17723W        W33192  10.025  15.246   4.427  0.0919 -0.0448  0.1507
17724W        W33193  17.944   2.067  14.296 -0.1165  0.1159  0.5212
17725W        W33194   8.513  16.439  15.714 -0.1415 -0.0825  0.0586
17726W        W33195  15.611   8.661  14.229  0.0195 -0.3647  0.0672
17727W        W33196   0.806   5.057   2.695  0.3665  0.0685  0.0010
17728W        W33197  18.141  17.383  15.449  0.0056 -0.3160  0.2597
17729W        W33198  15.396  10.984   0.926 -0.0183 -0.0072 -0.0398
17730W        W33199  13.479  15.737   0.036 -0.1272  0.0745 -0.1953
17731W        W33200  12.216  10.857  12.784  0.0388  0.0819  0.0428
17732W        W33201   0.743  10.429   2.371 -0.0945 -0.0793 -0.0987
17733W        W33202  11.608   6.168  15.783 -0.1228 -0.1324  0.0998
17734W        W33203   9.130  17.244   2.066  0.1309 -0.0935  0.1629
17735W        W33204  16.572   8.847   4.729 -0.2304 -0.3195 -0.2090
17736W        W33205  15.192   1.236  15.489 -0.1790  0.1723 -0.1091
17737W        W33206   3.763  16.073   2.533 -0.2651  0.0220 -0.1172
17738W        W33207   0.515   3.480   0.352 -0.0217 -0.2747 -0.2123
17739W        W33208  10.873  10.581  11.940  0.0523 -0.1934 -0.0248
17740W        W33209  16.394   3.964   1.596  0.1325  0.3003 -0.2274
17741W        W33210   0.284  17.279  16.004 -0.0014 -0.0020 -0.1259
17742W        W33211   7.058   5.753  13.724 -0.2001 -0.0284 -0.1928
17743W        W33212   9.145  18.001  12.937 -0.3895  0.0466 -0.0119
17744W        W33213   4.693  15.108  12.854 -0.2306 -0.1389  0.2406
17745W        W33214   2.943   4.567   5.390 -0.2780  0.0959 -0.1613
17746W        W33215  12.311  12.316  13.167 -0.1900  0.0640 -0.1035
17747W        W33216  14.863   5.512   4.036 -0.0407 -0.1872 -0.1633
17748W        W33217  12.354  18.093  13.904  0.1499  0.0818 -0.0887
17749W        W33218   2.385  12.151  14.122 -0.2450 -0.1559  0.0193
17750W        W33219   7.383   8.495   5.654 -0.0182  0.1128 -0.0043
17751W        W33220   0.029  17.152   5.328  0.0682 -0.1725 -0.3190
17752W        W33221  10.063  16.432   0.969  0.1003  0.0592  0.1399
17753W        W33222   4.272   9.966  14.466  0.1276  0.1085 -0.1852
17754W        W33223  16.407   2.262   6.213 -0.0214 -0.0358  0.1118
17755W        W33224   4.634  15.757  11.861 -0.1566 -0.2382 -0.0060
17756W        W33225  15.466  15.482   0.387 -0.3656 -0.0154  0.2474
17757W        W33226  15.268   7.820   1.252 -0.0191  0.2489  0.1644
17758W        W33227  11.263   2.945   4.280 -0.1149  0.1826 -0.0622
17759W        W33228  10.985   7.752   0.723  0.3444  0.0935 -0.0807
17760W        W33229   9.659  11.213  12.213 -0.2310  0.0424 -0.3805
17761W        W33230  15.964   5.192  12.522 -0.4315  0.1052  0.1959
17762W        W33231  17.709   0.634  12.228  0.1049  0.2095  0.2610
17763W        W33232  12.192  13.719  11.497  0.1393  0.0082  0.2370
17764W        W33233  12.411  17.086   3.671  0.2005  0.1559 -0.3060
17765W        W33234   3.091  16.878   1.007 -0.4440 -0.2261  0.1308
17766W        W33235   9.714   3.028   5.108 -0.2084  0.0053 -0.1750
17767W        W33236   9.713  13.440   3.411 -0.0653 -0.1714 -0.0966
17768W        W33237   0.047  14.303   2.231  0.1764  0.1749  0.3553
17769W        W33238  11.601   1.791  12.557  0.2460 -0.0047  0.1555
17770W        W33239   1.885   4.122  15.933  0.4026 -0.0589 -0.2272
17771W        W33240  13.773  11.386  12.286  0.0396  0.0517  0.1632
17772W        W33241   3.099  10.019   3.616  0.0127  0.0980  0.2543
17773W        W33242   0.436  17.854   2.121 -0.0834 -0.0010  0.0128
17774W        W33243  13.667   6.080  14.043  0.2547  0.0896  0.3276
17775W        W33244   9.366  11.762   1.985  0.2054 -0.0525  0.2171
17776W        W33245   1.617   2.605  12.016  0.0269 -0.1324  0.3419
17777W        W33246  14.953   2.067   1.413  0.0201 -0.4728  0.2271
17778W        W33247   7.331  12.984   0.519  0.0242  0.3352  0.0386
17779W        W33248   1.424   0.862  14.537  0.1878 -0.1426  0.0002
17780W        W33249  15.010   8.073  12.038 -0.2865 -0.1273  0.1007
17781W        W33250  17.289   3.361   2.927 -0.2081 -0.1065 -0.0183
17782W        W33251   9.359   5.771   4.122  0.3011  0.0838 -0.0071
17783W        W33252  10.199   3.887   5.309 -0.2280  0.0328  0.1350
17784W        W33253   2.232  17.524   4.112  0.1066  0.0765  0.2563
17785W        W33254  11.742  12.107   1.237  0.0296  0.0171 -0.2464
17786W        W33255  13.336  11.367   0.119  0.0739 -0.0263  0.3602
17787W        W33256   2.308  16.358   0.262  0.1854  0.0606  0.3061
17788W        W33257  13.891   3.880   4.016  0.0581 -0.0207  0.0758
17789W        W33258   9.511   4.792   4.243  0.0415  0.2635 -0.1003
17790W        W33259  10.265  18.313  15.413  0.1439  0.2471  0.1608
17791W        W33260  10.161   8.536  16.015  0.0184  0.3022 -0.2106
17792W        W33261   0.729   9.343   6.003  0.0255 -0.0970 -0.0094
17793W        W33262  16.120  13.978  11.863 -0.2300 -0.1488  0.0785
17794W        W33263   6.654  15.192  14.301  0.0070  0.0699 -0.1118
17795W        W33264  18.075   9.957  14.277  0.0458 -0.1356 -0.0439
17796W        W33265   5.494   4.994   2.349  0.0770 -0.0146  0.3276
17797W        W33266   2.610   7.020   5.667  0.0269 -0.0660  0.0246
17798W        W33267   3.474   1.945  11.915 -0.1287 -0.2966 -0.0185
17799W        W33268   4.398  12.818   0.298  0.2655 -0.2031  0.1368
17800W        W33269   0.207   2.432  12.666  0.3196  0.2675  0.0355
17801W        W33270  12.260  12.460  11.235  0.1430 -0.2086 -0.1865
17802W        W33271   8.924  17.933   1.266 -0.0648 -0.1883 -0.0493
17803W        W33272   3.565   1.928   4.841 -0.3582 -0.1784  0.2533
17804W        W33273  13.707  10.485  13.093  0.5948 -0.2083 -0.0305
17805W        W33274  16.122   3.619  14.091 -0.2353 -0.0209  0.1334
17806W        W33275   9.375   0.171  13.886 -0.0920  0.1543  0.2015
17807W        W33276  10.136   2.590   3.096 -0.0575  0.2865  0.0596
17808W        W33277   4.944  14.138  15.539  0.2895  0.0134  0.0121
17809W        W33278  14.076   6.289  15.931  0.0255 -0.2066  0.2700
17810W        W33279   2.258   0.881   0.243  0.2842 -0.0884  0.0115
17811W        W33280  13.935  12.735  11.481 -0.0355 -0.0817 -0.2417
17812W        W33281   4.663  10.687  15.051 -0.0097  0.0746 -0.0533
17813W        W33282  14.421  16.290   2.159  0.1025  0.0259 -0.2170
17814W        W33283  17.520   6.976  15.291  0.0926 -0.1331  0.0023
17815W        W33284  14.434   7.042  12.766  0.1847 -0.1869  0.0713
17816W        W33285  14.362  10.897   2.146  0.0278 -0.1587  0.0380
17817W        W33286   5.393  17.218  13.764  0.3460 -0.1168  0.0684
17818W        W33287   2.069   7.239  15.328  0.2081 -0.1001  0.1310
17819W        W33288   2.220   9.116  14.099  0.0559 -0.1282 -0.3051
17820W        W33289   1.923  13.571  11.067  0.1465 -0.1872  0.3341
17821W        W33290  12.403  16.068   5.128 -0.1631 -0.0014  0.2574
17822W        W33291  11.491  14.752  11.212 -0.1040  0.1042  0.1140
17823W        W33292   3.495  16.882   5.315  0.1977 -0.1071 -0.6281
17824W        W33293   6.756   7.183   6.081  0.1968 -0.0202  0.1270
17825W        W33294   6.543   9.255  14.962 -0.1168  0.0575  0.0879
17826W        W33295   5.446  14.613  14.504  0.0288 -0.0847 -0.1598
17827W        W33296  17.630   5.554  14.529 -0.0426 -0.1252 -0.0001
17828W        W33297   7.653  16.921  15.238 -0.3433 -0.1919  0.2360
17829W        W33298   9.603   7.419  11.602 -0.0542 -0.0007  0.0511
17830W        W33299   8.758  13.185   4.490 -0.0165  0.2840 -0.0273
17831W        W33300  10.133   3.923   1.948 -0.4175  0.0988  0.1726
17832W        W33301   0.790   4.511   4.300  0.2139  0.0096 -0.4847
17833W        W33302   7.521  13.802   4.118  0.0895 -0.0441  0.0440
17834W        W33303   3.957   8.414  12.692 -0.1470  0.1260  0.0019
17835W        W33304   4.620  12.543   2.572 -0.2091  0.1209  0.3726
17836W        W33305   5.556   6.892  13.213 -0.1320  0.1296  0.0386
17837W        W33306   6.864  12.199   5.917 -0.0421  0.1391 -0.1151
17838W        W33307  13.221  10.442   1.481  0.1721  0.0891 -0.1932
17839W        W33308   9.170  11.135  12.012  0.0321  0.0289  0.0153
17840W        W33309  18.381  16.480   1.996 -0.1262 -0.0380 -0.0563
17841W        W33310   7.068   4.404  15.923 -0.1719  0.0984  0.1158
17842W        W33311   0.942  10.345  13.791 -0.0552  0.0590 -0.3915
17843W        W33312  17.145   2.864  12.586  0.2102 -0.1809 -0.0752
17844W        W33313   6.910   3.760   1.874 -0.2402  0.0927 -0.0749
17845W        W33314  13.463  14.077  15.529  0.0726  0.1127 -0.3273
17846W        W33315   8.121  15.001   1.031  0.0703 -0.0445 -0.1601
17847W        W33316   7.032   6.229   1.727  0.1750  0.1819  0.1895
17848W        W33317   7.597  10.282   0.262 -0.0503  0.1085 -0.1859
17849W        W33318   5.250   1.904  13.946  0.1001  0.1329 -0.1556
17850W        W33319   5.399   4.879   4.916  0.1287 -0.1386  0.0129
17851W        W33320  15.519  15.975   3.093 -0.0414  0.0777  0.1892
17852W        W33321  17.847   1.327   5.502 -0.3248  0.2050 -0.1104
17853W        W33322   3.559   1.726   4.321  0.1805  0.3573  0.1925
17854W        W33323  13.169  16.046   1.882 -0.0471 -0.1228  0.0770
17855W        W33324   4.074  16.736  14.867  0.0543  0.0151 -0.0201
17856W        W33325  13.525   4.736  15.306  0.0413 -0.0903  0.1289
17857W        W33326  11.473   4.722  10.602 -0.0401 -0.1638  0.1060
17858W        W33327  14.102   6.926  15.687  0.0289 -0.1536  0.4094
17859W        W33328   8.277   2.026   2.638  0.0845  0.0517 -0.0186
17860W        W33329   2.820  10.775   4.307 -0.2584  0.4231  0.2488
17861W        W33330   7.073  16.191  14.740  0.1247  0.4581  0.2625
17862W        W33331   9.292   6.270   4.358 -0.1465  0.1138  0.1355
17863W        W33332   5.950  15.178  10.697 -0.0790 -0.1314 -0.1241
17864W        W33333  13.750  15.070   2.041 -0.2246  0.2318  0.0708
17865W        W33334   4.253   4.917   4.485 -0.3351  0.0003  0.0894
17866W        W33335  12.461   6.001   1.570 -0.1542 -0.1378 -0.1177
17867W        W33336  14.978   4.521   3.126 -0.2717  0.1435  0.0901
17868W        W33337  10.682   2.798   3.089 -0.2561  0.0816 -0.2227
17869W        W33338  11.710  11.788   4.960 -0.2784 -0.0367 -0.2892
17870W        W33339   1.117   6.614   4.863  0.3066 -0.0297  0.0937
17871W        W33340  15.346  13.968  13.462 -0.0720 -0.0842 -0.0409
17872W        W33341   6.058  13.376   5.645  0.1541 -0.2258 -0.1588
17873W        W33342   0.126   1.189  14.575  0.1142 -0.0584 -0.0809
17874W        W33343  13.072   1.335  10.580 -0.1905  0.1492 -0.0154
17875W        W33344   4.776   8.512  10.911 -0.0631 -0.3007  0.1046
17876W        W33345   0.784   1.866  12.147  0.2234  0.0555 -0.2115
17877W        W33346  15.054  11.204   2.683  0.0376  0.1796  0.4997
17878W        W33347  14.240  17.650   1.791  0.3192 -0.0350  0.1494
17879W        W33348   5.087  16.644   1.023 -0.1651  0.1191  0.0673
17880W        W33349   0.319  15.404  14.848  0.1283  0.1476 -0.0246
17881W        W33350   3.690  17.598  15.255  0.2477 -0.0227 -0.2930
17882W        W33351  10.216   4.045  13.383  0.0735  0.1551 -0.0679
17883W        W33352  12.026   9.697  11.157  0.1615  0.0215  0.0970
17884W        W33353   0.949  10.917  11.620 -0.0936 -0.1900  0.2252
17885W        W33354   5.349  12.139  14.940 -0.0393 -0.0947 -0.0515
17886W        W33355   2.727  18.390   4.540  0.2290  0.2833  0.1088
17887W        W33356   7.902  12.463   4.353  0.2624  0.2754 -0.0679
17888W        W33357  13.137   1.387   4.470  0.0598 -0.2891  0.4545
17889W        W33358   9.025   3.489  12.935 -0.0651 -0.1270  0.1189
17890W        W33359   0.195   4.922  13.023  0.0390  0.0625 -0.0548
17891W        W33360   2.509  15.214   3.481  0.4061 -0.0824 -0.1350
17892W        W33361   4.458  17.288   3.283  0.2778 -0.0714 -0.1501
17893W        W33362   0.063  12.372   4.386  0.1902 -0.1276 -0.1029
17894W        W33363  12.614  14.633  11.477 -0.0466  0.0142 -0.0512
17895W        W33364   8.286  17.085   1.767  0.0677  0.0399 -0.1053
17896W        W33365  18.249  15.826  12.298 -0.0139 -0.0457 -0.0185
17897W        W33366   2.546   6.120   3.091 -0.3620  0.1424 -0.0028
17898W        W33367  14.829   6.056   5.228 -0.1521  0.4522  0.0009
17899W        W33368   2.046   3.180  14.366  0.3380  0.0842 -0.2957
17900W        W33369   1.824  13.834   0.366  0.0445 -0.0628 -0.1542
17901W        W33370   2.822  16.594   0.257 -0.2418 -0.1580  0.4512
17902W        W33371  14.198  14.699  11.450 -0.1913 -0.3280 -0.0098
17903W        W33372   0.404   3.984  14.954 -0.1882  0.2543  0.0455
17904W        W33373  11.017  14.828   0.222  0.3341  0.2034 -0.1482
17905W        W33374   5.293   8.879   0.282  0.0378  0.3916 -0.0393
17906W        W33375  11.429   6.874  10.828  0.1789 -0.1806  0.0114
17907W        W33376  17.533   6.871   2.821 -0.0926  0.0499  0.2332
17908W        W33377  15.644  15.575  10.890 -0.1765  0.1336 -0.2921
17909W        W33378  16.079   4.635   4.165 -0.2554  0.0746 -0.0777
17910W        W33379  13.485   3.684  14.218 -0.0754  0.1738 -0.0135
17911W        W33380   9.926  16.760   4.209  0.1394  0.1077 -0.0908
17912W        W33381   9.989  17.263   2.314 -0.3140 -0.1699 -0.0064
17913W        W33382   1.897   6.821   3.040 -0.0742 -0.2043  0.3261
17914W        W33383   6.268  18.115   3.892 -0.0229 -0.1186 -0.0389
17915W        W33384   8.451  10.157   2.869  0.3025 -0.2812 -0.2328
17916W        W33385  17.502   5.286   2.904  0.1402 -0.0237 -0.0098
17917W        W33386   0.047   9.177  15.720 -0.0003 -0.0705  0.1662
17918W        W33387   4.056   0.384  12.116 -0.0735 -0.0890  0.2845
17919W        W33388  17.677  12.010   0.145  0.0305 -0.1888 -0.0471
17920W        W33389   7.892   3.092   2.260 -0.1074  0.2889  0.1122
17921W        W33390  12.798  17.132   0.383  0.1708  0.0606 -0.2532
17922W        W33391   1.258   6.649   5.594 -0.0378 -0.2634 -0.0126
17923W        W33392  14.354   5.465   0.353 -0.0134 -0.0305  0.0189
17924W        W33393   7.494  14.651  14.741  0.1049 -0.1577 -0.1146
17925W        W33394   8.574   7.672   0.961 -0.0134  0.2431  0.0378
17926W        W33395   1.575  16.949   0.278 -0.0197 -0.0759 -0.1151
17927W        W33396   1.266   2.678   1.857  0.2542 -0.1121 -0.0033
17928W        W33397   1.849   7.104  13.118 -0.0980  0.3448  0.1245
17929W        W33398   8.321   3.946   3.415  0.0171  0.1728  0.0089
17930W        W33399  14.662  15.334   0.897 -0.2045 -0.2560 -0.2778
17931W        W33400  10.459  11.208   0.572 -0.0224  0.1946  0.2282
17932W        W33401   3.567  10.678  11.846  0.0234 -0.1192 -0.0127
17933W        W33402  13.031  17.974  12.512 -0.2301 -0.0823  0.0085
17934W        W33403  15.334   2.476   2.546  0.1980 -0.1066  0.1713
17935W        W33404   5.569  13.876  11.696 -0.0754  0.2731  0.1381
17936W        W33405   4.041   8.356   0.920 -0.2203 -0.4036 -0.0488
17937W        W33406   9.830   8.411  12.493 -0.1330  0.2343 -0.1983
17938W        W33407  10.532   3.430   0.743  0.0015 -0.3079 -0.2337
17939W        W33408  13.940   9.824  10.888 -0.1133  0.3404 -0.1300
17940W        W33409  12.393   6.924   3.722 -0.1794 -0.0350 -0.1831
17941W        W33410   8.731  11.632   3.137 -0.1366 -0.1399 -0.1059
17942W        W33411   5.872  11.367   5.809  0.1443  0.2368  0.1417
17943W        W33412   2.990   5.303  12.546 -0.1236  0.1163  0.0346
17944W        W33413   9.537  16.803  12.388  0.0503  0.0990  0.1108
17945W        W33414   3.798   6.904  12.742 -0.2486 -0.0489  0.0916
17946W        W33415   8.566   6.391   1.470 -0.0295 -0.0073 -0.0775
17947W        W33416  16.409   5.758  15.589  0.5095 -0.2032  0.5270
17948W        W33417  13.044  14.562  10.771  0.2569  0.4472  0.1621
17949W        W33418   4.852  13.171  13.270 -0.2872 -0.0381  0.1704
17950W        W33419   2.553   5.064   5.388 -0.2873  0.1942 -0.1732
17951W        W33420   2.893   0.247   4.203 -0.1123  0.3164 -0.1318
17952W        W33421  14.193   1.339   2.247  0.0246  0.4494  0.1000
17953W        W33422   2.046   9.271  14.934  0.1153  0.2008 -0.0243
17954W        W33423  17.814   1.152  12.345  0.1212 -0.0326 -0.0641
17955W        W33424   1.806   6.334  13.678 -0.1266  0.4044  0.0954
17956W        W33425   7.954  13.601  15.381 -0.0782 -0.0534  0.0999
17957W        W33426  12.429   0.534   3.791  0.1891 -0.1005  0.0498
17958W        W33427  10.770   2.943  14.057  0.6086 -0.0215 -0.2123
17959W        W33428  10.690   0.974  13.250 -0.0867  0.2652 -0.1822
17960W        W33429  16.610  13.612   5.082 -0.1285  0.1386  0.0289
17961W        W33430   4.650  13.215  15.542  0.1741  0.0710  0.0377
17962W        W33431  16.575   0.171  13.226  0.1791 -0.3067  0.2101
17963W        W33432  15.698  14.288   3.493 -0.2457 -0.1835  0.0323
17964W        W33433  14.114  15.512   0.669 -0.0457  0.2928  0.0167
17965W        W33434   2.537  11.709  13.659  0.1042 -0.3287  0.0856
17966W        W33435   3.934  10.476   4.969 -0.0837 -0.0438 -0.1056
17967W        W33436   9.145  11.811   5.396 -0.1711  0.0754  0.0435
17968W        W33437  18.164   0.921   3.592 -0.0206 -0.2711  0.1323
17969W        W33438   6.359  15.143   4.281 -0.1463 -0.2718  0.0884
17970W        W33439  11.458   9.028   0.658 -0.3872  0.1395 -0.2218
17971W        W33440   2.026  14.593   3.138 -0.4292 -0.0741 -0.2539
17972W        W33441   9.961   5.856   2.416 -0.1739 -0.2180  0.1274
17973W        W33442   0.914   2.389   2.035  0.0213 -0.2450  0.1883
17974W        W33443   7.043  11.526   1.410 -0.0062 -0.1020  0.0285
17975W        W33444   5.348  16.234   1.252 -0.3229  0.0295  0.0921
17976W        W33445  10.560   4.543  11.812  0.0377 -0.0994 -0.1093
17977W        W33446   2.683  15.239  14.472 -0.1777  0.5828 -0.1314
17978W        W33447   1.947  13.360   4.711 -0.3839 -0.0738 -0.1761
17979W        W33448   3.253   6.462   0.838 -0.3460  0.1667 -0.2736
17980W        W33449  13.295   3.835   1.795 -0.0092 -0.0086 -0.2963
17981W        W33450   9.705   3.885  15.235  0.0587 -0.1788 -0.0430
17982W        W33451   4.855  14.586  11.340 -0.1172  0.2901 -0.0099
17983W        W33452   6.187   7.136   3.589  0.2024  0.2771  0.3001
17984W        W33453   2.816   2.609   4.784  0.2356 -0.1068  0.0915
17985W        W33454  12.929  14.409   4.650  0.1753  0.1419  0.1674
17986W        W33455   9.323   2.997  14.884 -0.1361  0.3171 -0.2164
17987W        W33456   9.436   3.920   3.750  0.1903  0.3616 -0.2411
17988W        W33457   0.352   6.022  11.652 -0.2229 -0.0557  0.0828
17989W        W33458   7.717   9.974   5.423 -0.3087  0.1478 -0.1828
17990W        W33459  11.818  13.417   3.239 -0.0104 -0.1934  0.0882
17991W        W33460  13.200   7.874   5.035  0.0779  0.1568  0.0700
17992W        W33461  17.858   7.884   3.148  0.1357 -0.0380  0.0552
17993W        W33462  14.713  15.877   5.563  0.1792 -0.0880  0.0324
17994W        W33463   3.361   8.150  11.791  0.2202 -0.3523  0.1312
17995W        W33464   2.604   2.318   5.769  0.1049 -0.0010 -0.0089
17996W        W33465  16.481  16.410  11.893 -0.0405 -0.3383 -0.0547
17997W        W33466   7.606  15.981  13.260 -0.2432  0.0293 -0.0939
17998W        W33467  13.147  10.024  11.930 -0.0799  0.2629 -0.0154
17999W        W33468   7.709  12.211  15.945  0.3704 -0.1852  0.0184
18000W        W33469  18.133  15.865  15.946 -0.0185 -0.0098  0.2160
18001W        W33470  17.974  18.093   5.592 -0.1005 -0.0621 -0.1268
18002W        W33471   3.743   2.949  11.297 -0.0993  0.2591  0.0354
18003W        W33472  14.468  13.028   3.147  0.0811 -0.0047 -0.1043
18004W        W33473   0.478   1.266   4.565 -0.1974  0.1575 -0.0648
18005W        W33474  11.942  17.701   4.974  0.0346 -0.0258 -0.2979
18006W        W33475  11.434   1.172   4.579 -0.1183 -0.0394 -0.1432
18007W        W33476  13.262   8.454  15.413  0.2146 -0.0099 -0.1159
18008W        W33477   5.850   3.767  14.393  0.1687  0.0118  0.0405
18009W        W33478   6.086   3.120  10.747 -0.1864  0.0694  0.2581
18010W        W33479   8.065   1.168   4.371  0.0376 -0.1219 -0.1579
18011W        W33480   1.209  14.144   2.757 -0.1929  0.2600  0.2000
18012W        W33481   1.270  11.344   3.700  0.3202  0.1405 -0.1463
18013W        W33482   6.321  16.248   4.078 -0.1163 -0.1592  0.0564
18014W        W33483  18.421   6.137  14.065 -0.1653 -0.0526  0.0938
18015W        W33484  10.695  12.809  12.750  0.0702  0.1497 -0.3727
18016W        W33485   8.165   5.396  11.826  0.0885 -0.0383 -0.2161
18017W        W33486  17.522  11.420  13.246  0.2663 -0.0312  0.2181
18018W        W33487   7.991   7.043   4.432  0.0952  0.0670 -0.0470
18019W        W33488   7.582   1.476  12.146  0.2979 -0.0649 -0.0367
18020W        W33489   5.538  12.920  12.340 -0.0140  0.0338 -0.0768
18021W        W33490  16.823  14.178  12.604  0.0154  0.0450 -0.1490
18022W        W33491  16.978  13.550   1.687  0.1741 -0.1803  0.0437
18023W        W33492  17.741   1.352   0.716  0.0573  0.0580 -0.1866
18024W        W33493  14.038   3.522  12.653  0.0207 -0.1344 -0.3059
18025W        W33494   3.021   9.498   2.841  0.2135 -0.4472  0.0838
18026W        W33495  13.811  14.200   4.340  0.1254 -0.0266 -0.0156
18027W        W33496  14.782   6.985  11.618  0.1360 -0.0166  0.1877
18028W        W33497   2.773  13.260  14.613 -0.0657 -0.1534 -0.1107
18029W        W33498  15.727  12.741  11.937 -0.1963  0.0497 -0.0259
18030W        W33499  16.087   6.117  13.221 -0.0075 -0.1007  0.4108
18031W        W33500  12.940   9.660   4.042  0.2225  0.0201  0.0775
18032W        W33501   3.597   9.609   2.506 -0.0015 -0.0730  0.0091
18033W        W33502  14.560  11.610  14.274  0.0682  0.0779  0.2709
18034W        W33503  10.429   5.542   0.339  0.2005 -0.3162  0.4471
18035W        W33504  12.972   0.220   0.916 -0.1302 -0.0951  0.1081
18036W        W33505   0.261   3.937  11.794  0.2165  0.0229  0.1526
18037W        W33506   9.239   4.788  13.529  0.2146  0.3656 -0.2390
18038W        W33507   6.878  13.263  14.379  0.0282 -0.1031 -0.0141
18039W        W33508  10.469   7.265   0.452 -0.3468 -0.1017  0.0002
18040W        W33509   0.294   7.280   3.863  0.0906 -0.2331 -0.2937
18041W        W33510   3.948   4.743   0.987  0.1100  0.0753 -0.1531
18042W        W33511  15.429   7.440   2.151  0.1056 -0.1113  0.2584
18043W        W33512   5.791   3.429  10.936 -0.3739 -0.0940 -0.2667
18044W        W33513   0.633   7.441   2.226  0.1953  0.1438  0.1470
18045W        W33514  13.198   9.452   3.651  0.1088  0.0873  0.1109
18046W        W33515  12.419   7.739  10.151 -0.0457 -0.0190 -0.2802
18047W        W33516   5.438   8.505   1.214 -0.2443  0.0450  0.0206
18048W        W33517   6.771   0.463  12.330  0.1443  0.0996 -0.0977
18049W        W33518  13.800  14.780  12.682  0.2583 -0.3278 -0.1001
18050W        W33519   8.126   6.411   3.545 -0.3287 -0.0553  0.0475
18051W        W33520  10.122   1.191   3.649  0.0104 -0.2249  0.0506
18052W        W33521  13.955   7.522   2.080 -0.1000  0.2600  0.2231
18053W        W33522   1.887  11.214  13.365 -0.0875  0.2876 -0.0115
18054W        W33523   4.374   4.314  11.227  0.3798 -0.3293  0.1136
18055W        W33524  12.983   6.784   5.625 -0.2300 -0.1554  0.0394
18056W        W33525   1.477   0.880   6.228  0.4222 -0.1058  0.2139
18057W        W33526  15.870   3.910   4.881 -0.2431  0.0287  0.0742
18058W        W33527  10.732   0.774  14.272 -0.2678  0.2906 -0.1698
18059W        W33528  12.646   5.658   5.232 -0.2203 -0.1961 -0.0023
18060W        W33529   0.853  16.010  15.865  0.3474  0.2883 -0.4096
18061W        W33530  16.236   4.820   5.095  0.0922  0.3516 -0.0065
18062W        W33531   5.643   6.393   5.511 -0.3413  0.1262  0.1020
18063W        W33532   2.302   1.866   5.682 -0.1582  0.2322 -0.0760
18064W        W33533  10.854   9.948  14.739  0.0027  0.2859 -0.0141
18065W        W33534   0.715   3.057   1.220  0.0330  0.1578  0.3137
18066W        W33535   8.052   1.671  12.230  0.0038 -0.1174  0.0081
18067W        W33536  16.109   1.232   2.207 -0.0267  0.1867 -0.0896
18068W        W33537   7.809  14.557  11.854 -0.1004 -0.1006  0.0230
18069W        W33538  16.235   1.442  13.098 -0.0234 -0.2570  0.1365
18070W        W33539  16.011   1.028  11.233  0.0857 -0.0178  0.2177
18071W        W33540  17.201   7.755   0.887 -0.0933  0.0710 -0.2314
18072W        W33541  17.101   7.378  14.659  0.1896  0.1173 -0.0642
18073W        W33542  10.658  17.217   0.427 -0.2540  0.2624  0.1332
18074W        W33543   3.923   1.045  10.846  0.1018  0.0601  0.0427
18075W        W33544   1.454   1.352   5.354 -0.0533 -0.4691  0.1304
18076W        W33545  13.714  16.174   4.009 -0.1039  0.0875  0.2343
18077W        W33546   6.666  17.057   3.185 -0.0973  0.0143  0.0506
18078W        W33547   3.695  12.786   4.161 -0.1345 -0.2472  0.1119
18079W        W33548   2.273  15.811  12.106  0.0782 -0.2089  0.1566
18080W        W33549   6.294   8.848   0.235 -0.1129  0.2134  0.1335
18081W        W33550   6.258   4.672   1.346  0.1850  0.3623 -0.3567
18082W        W33551  17.813   4.638  11.651  0.2244 -0.2268  0.1514
18083W        W33552   7.418   3.696   0.035 -0.1307  0.1027 -0.3369
18084W        W33553  10.754  15.051  13.818 -0.2488 -0.0921 -0.0913
18085W        W33554  13.317  15.488  13.737 -0.3640 -0.0771 -0.0598
18086W        W33555   8.490  13.803   9.926  0.0741 -0.3026  0.1429
18087W        W33556   7.528   6.565  14.156  0.0322  0.1662  0.0156
18088W        W33557  15.315  17.312   9.712  0.2223  0.2627  0.3529
18089W        W33558  17.037   8.437  14.672  0.2715 -0.0518 -0.0373
18090W        W33559   6.224   4.591  12.516 -0.1810 -0.1479 -0.0824
18091W        W33560   1.948   8.777  14.781 -0.0597  0.0386  0.1799
18092W        W33561   5.087  10.288   2.028 -0.1242 -0.0506  0.1299
18093W        W33562   3.781   7.534  12.178 -0.1306  0.4248 -0.2113
18094W        W33563  13.829  12.439   1.069  0.0747 -0.1386 -0.3753
18095W        W33564   5.113   8.952   3.446  0.2344 -0.2488  0.0398
18096W        W33565  12.652  12.846   0.172 -0.2812 -0.1859 -0.0238
18097W        W33566  11.344   7.397   4.576  0.0859  0.0371  0.3030
18098W        W33567  15.773  16.373  11.341 -0.0235  0.0596  0.1647
18099W        W33568   4.752  17.006  13.520  0.2937  0.0040 -0.1012
18100W        W33569  17.329   8.937  14.015  0.3255  0.1813 -0.2459
18101W        W33570  17.873   3.372   4.510  0.4031  0.2524 -0.0107
18102W        W33571   3.255   2.947  14.649  0.1589  0.0612  0.3862
18103W        W33572  11.123  17.993   5.329  0.0883  0.2709 -0.1023
18104W        W33573   2.030   0.030   6.483 -0.2484 -0.1214  0.1786
18105W        W33574   2.649   1.461  13.590 -0.2797  0.2225 -0.0841
18106W        W33575   4.138   9.718   4.436  0.1592 -0.1560  0.1431
18107W        W33576  16.459   5.691  15.035  0.1414 -0.0921 -0.1202
18108W        W33577  16.903  16.853  11.338  0.0383 -0.1489  0.3757
18109W        W33578   4.857  15.296  10.848  0.0903 -0.2506  0.2655
18110W        W33579   6.947  12.312   3.985  0.0463 -0.1120 -0.2330
18111W        W33580  18.337   2.752   0.797  0.2466 -0.0541  0.0313
18112W        W33581   5.070   7.152   0.284 -0.3385 -0.1427  0.1425
18113W        W33582  16.625   4.825   6.206  0.2403 -0.1333  0.0859
18114W        W33583   9.991   7.400   4.515  0.0689 -0.0828 -0.0382
18115W        W33584  16.736  10.817  15.309 -0.3332  0.0338 -0.0562
18116W        W33585  15.141   9.599   1.555  0.2939  0.2473 -0.0930
18117W        W33586  14.558   0.955  13.309  0.0579  0.0924 -0.1093
18118W        W33587   8.977   2.831   4.747  0.0769 -0.0160  0.2682
18119W        W33588  15.681   3.409   5.605  0.0969 -0.0307  0.0843
18120W        W33589  15.668  18.021   1.293 -0.1514  0.0066 -0.2754
18121W        W33590   0.994  15.949  13.493  0.1776  0.1936  0.1427
18122W        W33591   5.093  15.342   4.292  0.2079  0.0903 -0.0707
18123W        W33592   4.871  17.145  15.119 -0.0745  0.0031  0.1019
18124W        W33593   3.820   9.595   1.942 -0.1026 -0.4838 -0.0839
18125W        W33594  11.109   0.200   1.673  0.1137  0.1911  0.3387
18126W        W33595  17.760   4.345   5.462  0.1004  0.3509  0.1619
18127W        W33596   2.619   6.032   1.234 -0.1322 -0.3005 -0.2939
18128W        W33597  14.723   7.762   2.777 -0.0764  0.0283  0.2434
18129W        W33598   5.239  13.269   0.541 -0.0417  0.4766 -0.3097
18130W        W33599   3.946  17.089  13.217 -0.1351  0.2740 -0.0128
18131W        W33600  12.093   3.472  13.982  0.0649  0.2966  0.0165
18132W        W33601  10.245   3.766  15.172 -0.1782 -0.2095 -0.1193
18133W        W33602  13.547  11.647   5.800 -0.1246  0.2777  0.4125
18134W        W33603  13.524   0.335  15.556  0.0441 -0.1096 -0.0815
18135W        W33604  14.944   1.684   0.402  0.1618  0.1950 -0.0937
18136W        W33605  13.208   7.470   0.961 -0.1414  0.2591  0.5287
18137W        W33606  18.042  16.270   2.416  0.1707  0.0659 -0.0082
18138W        W33607  14.150  11.054   2.625  0.2829  0.2445  0.0478
18139W        W33608  18.250   2.425   4.843  0.3777 -0.0886 -0.0785
18140W        W33609   4.557   1.702  14.612 -0.0684  0.0288 -0.0680
18141W        W33610   6.060   7.739  15.749  0.1153 -0.0300 -0.2390
18142W        W33611  12.271   5.707  11.983 -0.0434 -0.1904  0.2264
18143W        W33612  15.522   9.430   2.852 -0.1610  0.0345  0.2452
18144W        W33613  18.436  11.558  11.903 -0.2900  0.4478 -0.2397
18145W        W33614   3.145   9.013  11.956  0.0052  0.0780  0.5319
18146W        W33615   6.643  11.358   1.020 -0.0248 -0.1058  0.2627
18147W        W33616  15.316  13.375   0.321 -0.0366 -0.1840  0.4276
18148W        W33617   6.080  17.984  11.530  0.1115 -0.1029  0.0555
18149W        W33618   8.138   8.478  13.254 -0.0323 -0.2945 -0.0554
18150W        W33619  16.744  11.966  14.076  0.2965  0.3550  0.2619
18151W        W33620  11.922  17.631  15.795 -0.0867 -0.1854 -0.3574
18152W        W33621  11.633   2.686  14.300 -0.0260 -0.0689  0.2572
18153W        W33622   0.542   3.304  14.208 -0.0572  0.5875  0.0681
18154W        W33623   3.659   4.493  14.503  0.0759  0.1400  0.3164
18155W        W33624   5.680  16.526  10.074  0.1581  0.0331  0.1458
18156W        W33625   9.729   3.428  10.398 -0.0738  0.2787 -0.3331
18157W        W33626  13.652   6.145  11.237  0.0820  0.0707  0.3924
18158W        W33627  10.346  17.756  13.595  0.2833 -0.1664  0.1169
18159W        W33628  18.257  12.462   3.971 -0.3152  0.0220  0.1296
18160W        W33629  16.145  18.120   0.356  0.0682 -0.1105  0.0327
18161W        W33630   3.567  17.412   1.373  0.0622  0.0485  0.2401
18162W        W33631   2.562   6.564  12.996 -0.3952  0.2172 -0.0472
18163W        W33632   5.218  11.452  12.379 -0.0392 -0.0036 -0.2118
18164W        W33633   6.105   2.138   0.340 -0.3131 -0.1183  0.0363
18165W        W33634   6.911   7.465  10.809  0.1361  0.0514 -0.0648
18166W        W33635  10.462  11.067   3.470  0.0580 -0.0468  0.0002
18167W        W33636  15.832  15.100  12.841 -0.0797  0.1108  0.2549
18168W        W33637  14.771  18.099   2.111 -0.1144 -0.1792  0.1062
18169W        W33638   6.272   6.434  15.626 -0.0070 -0.0741 -0.0045
18170W        W33639  11.448  17.127   3.279  0.0751  0.1878  0.2816
18171W        W33640   7.760   3.231   0.952  0.3414 -0.0629  0.2351
18172W        W33641  14.778   9.511   4.531  0.1305  0.4663  0.0738
18173W        W33642  12.671   2.968  15.950  0.0338  0.0658 -0.1537
18174W        W33643  11.266  16.096   3.238  0.2188 -0.0410  0.1682
18175W        W33644  10.965  14.862   2.608 -0.0808  0.1794 -0.2167
18176W        W33645  13.431   8.792  10.499 -0.1161  0.0263  0.0352
18177W        W33646  12.218  17.716  12.359 -0.1697  0.0667  0.2671
18178W        W33647   2.990  16.496   0.718  0.0198 -0.1061  0.1054
18179W        W33648   3.748  10.710  14.565  0.3522 -0.1529 -0.4946
18180W        W33649  13.727   1.710  14.719  0.0090  0.0304 -0.0751
18181W        W33650   9.482   3.211  11.110  0.1317  0.0764 -0.2443
18182W        W33651  17.619   1.700  16.001 -0.1198 -0.0036  0.0291
18183W        W33652   5.050   4.713  13.020 -0.2583 -0.2404 -0.1332
18184W        W33653  14.863  14.333  14.409  0.1527  0.2396 -0.0714
18185W        W33654   0.236  11.231   3.469  0.0010 -0.1140 -0.1008
18186W        W33655   1.491  12.067   1.387 -0.1364  0.1021 -0.3138
18187W        W33656   7.119  11.544  10.531  0.1655 -0.0246 -0.0419
18188W        W33657  11.808   4.420  12.193  0.1252  0.3150  0.0000
18189W        W33658  17.619  14.076   1.045  0.3822  0.3408 -0.2626
18190W        W33659  12.773   2.784  14.904  0.1276  0.0250  0.1932
18191W        W33660  17.936   8.437   3.907 -0.0602 -0.1795 -0.3368
18192W        W33661   2.498  11.877   2.284  0.3417 -0.0431  0.0968
18193W        W33662   3.805  14.632  13.177  0.0105  0.0502 -0.0967
18194W        W33663   6.612   5.697   5.218  0.0257 -0.1708  0.0725
18195W        W33664   3.092  14.395   3.111 -0.1981 -0.3557  0.0345
18196W        W33665  14.005   6.011  13.152 -0.1349 -0.1837  0.0203
18197W        W33666  10.168   1.974   1.875  0.1005 -0.0449  0.0810
18198W        W33667   5.965  11.809   1.981 -0.0984  0.0157 -0.1981
18199W        W33668   0.020   8.933  14.045 -0.0956 -0.0467  0.0614
18200W        W33669  16.683  16.450  12.861  0.1903  0.0492 -0.0685
18201W        W33670   8.208  12.886  11.377  0.1959 -0.1045 -0.1884
18202W        W33671  12.278   8.118   5.148 -0.1266 -0.3749 -0.2575
18203W        W33672   4.305   8.605   4.834 -0.0089 -0.1274 -0.0766
18204W        W33673  17.797   8.193  12.958  0.2603 -0.0652 -0.1750
18205W        W33674  15.599  15.702   4.711 -0.1090  0.1400  0.0629
18206W        W33675   3.353   0.872   4.567 -0.0230  0.3316  0.1232
18207W        W33676   9.153  14.012  10.068  0.0374  0.0800  0.0891
18208W        W33677  13.754   8.410   4.413  0.0329 -0.1554  0.2234
18209W        W33678  16.258   9.571  15.135  0.0319  0.0699 -0.1827
18210W        W33679   5.615   6.646  12.020  0.2140 -0.1185  0.1492
18211W        W33680   0.665   8.055   4.351  0.0599  0.2293 -0.2980
18212W        W33681   8.080   0.426   4.322  0.2621  0.0827 -0.0412
18213W        W33682   9.944  17.426  15.989 -0.1588  0.1930  0.0493
18214W        W33683  12.944   2.590   0.083  0.0087  0.0706 -0.4002
18215W        W33684   5.723   5.137  15.388 -0.1360 -0.0934  0.1722
18216W        W33685  12.770  16.520  15.784 -0.1366 -0.0725  0.1244
18217W        W33686  15.379  11.753  14.020  0.0078 -0.0042  0.1898
18218W        W33687   3.240   1.893   0.033 -0.0874 -0.1419  0.0644
18219W        W33688   3.096   5.450   1.650 -0.1374  0.1244 -0.0202
18220W        W33689  14.864   6.289   5.682  0.1718 -0.2378 -0.0494
18221W        W33690  17.529   6.241  15.184  0.1692  0.2178 -0.0803
18222W        W33691   2.894  16.271  11.737  0.0452  0.2414  0.2555
18223W        W33692  16.374  12.814   3.086  0.0690  0.3919 -0.1731
18224W        W33693   6.350   9.533  10.845  0.0412  0.2376 -0.1825
18225W        W33694   1.297   7.957   5.668 -0.0031 -0.2050 -0.1132
18226W        W33695  15.119   3.768   3.168 -0.2157  0.2152 -0.5478
18227W        W33696   7.487   2.308   2.853  0.1604  0.4143 -0.2370
18228W        W33697  17.892  12.969  11.550 -0.1390  0.1328 -0.3007
18229W        W33698   2.021  13.793  14.597  0.1340  0.0720 -0.1005
18230W        W33699  10.839  15.221  11.749  0.3478  0.0892  0.0466
18231W        W33700   7.237   9.854  13.546  0.2362  0.1741  0.0523
18232W        W33701  13.798  17.041  11.352 -0.1307  0.0459  0.1572
18233W        W33702   2.954  11.147  15.040  0.1786 -0.0923 -0.0925
18234W        W33703  17.161   7.141   6.393  0.2187 -0.0768 -0.0389
18235W        W33704   6.453  15.416   3.362 -0.3195  0.2850 -0.0653
18236W        W33705   7.886  10.395   3.765 -0.4050  0.0980  0.3335
18237W        W33706   0.180   7.830  15.131  0.0800 -0.1191  0.0776
18238W        W33707  12.011  15.508  10.832  0.0980 -0.1975  0.2030
18239W        W33708   3.745  17.171  15.610  0.1258  0.1459 -0.1973
18240W        W33709   9.902  13.407   2.293 -0.0779 -0.0383 -0.1327
18241W        W33710   4.467   6.176   1.012  0.1120  0.1425  0.0996
18242W        W33711   6.420   2.798   9.907  0.1341  0.2266  0.4280
18243W        W33712  17.660   3.716   1.608 -0.1522  0.0916  0.0641
18244W        W33713   8.561  10.483   5.754  0.3098 -0.0619 -0.2183
18245W        W33714  13.721   8.438  13.161  0.4278  0.1994 -0.1575
18246W        W33715  15.325  13.076   3.335  0.5685 -0.0792 -0.0812
18247W        W33716  15.958  13.519  14.893 -0.2145 -0.0548 -0.2829
18248W        W33717   8.982  10.471  13.027  0.1217 -0.1789 -0.1943
18249W        W33718  12.080  18.059  15.708 -0.1246 -0.2305  0.3534
18250W        W33719   7.742  16.434  11.746 -0.2989  0.3879  0.3842
18251W        W33720   1.510   9.599  14.893 -0.0067  0.0419  0.3841
18252W        W33721  16.515   9.574   2.646  0.1873 -0.1748  0.0410
18253W        W33722  14.848  15.164   2.229 -0.0034  0.1151 -0.1407
18254W        W33723   4.237  11.280  13.575 -0.2188 -0.2181 -0.0569
18255W        W33724  10.816  11.919  14.910 -0.1989  0.3455  0.0077
18256W        W33725  10.856   8.326   3.306 -0.2791  0.0549 -0.1136
18257W        W33726   2.006  15.100  12.112 -0.0381  0.0696 -0.1418
18258W        W33727   2.032   4.764  13.717  0.0648 -0.0085 -0.3901
18259W        W33728   1.562  15.435   2.951 -0.0267 -0.0314  0.2115
18260W        W33729  15.353   6.519   5.783 -0.1041  0.0948 -0.0931
18261W        W33730   0.002  10.869   4.403 -0.1035 -0.2015 -0.1524
18262W        W33731   5.439   5.921   1.704  0.2489  0.0576  0.1460
18263W        W33732  13.568  12.073  10.186  0.0174  0.1091  0.2145
18264W        W33733  17.881  17.426  14.110  0.1285  0.0673 -0.1112
18265W        W33734  16.182   1.349  10.796  0.1971  0.1090  0.0287
18266W        W33735   7.739  16.623  12.216  0.1669 -0.0641 -0.0333
18267W        W33736   6.130   1.765  11.150  0.0161  0.0048 -0.0775
18268W        W33737  12.541   2.623  14.482 -0.0876  0.2616  0.0422
18269W        W33738   1.157  12.284  10.270  0.2625  0.0330  0.3250
18270W        W33739   1.531  17.498  12.217 -0.1525  0.2820  0.1899
18271W        W33740   5.245   6.094  12.980  0.2382  0.0052 -0.0645
18272W        W33741   8.818  13.333   1.578 -0.0577  0.2581 -0.0410
18273W        W33742  13.243  12.968  11.470  0.0508  0.0410  0.2445
18274W        W33743   9.158   1.011   1.974 -0.0073  0.0965  0.0801
18275W        W33744   4.879  18.044  11.348  0.3244 -0.1736 -0.2355
18276W        W33745   6.390   4.031   0.261  0.1108  0.1249 -0.0211
18277W        W33746  15.235  11.541  11.859 -0.1916 -0.4913  0.2010
18278W        W33747   7.817   6.153  13.596 -0.1331 -0.2442 -0.0304
18279W        W33748   9.074   2.905  11.233  0.1388 -0.1476 -0.1346
18280W        W33749   2.671   5.165   1.506 -0.0247  0.0271  0.2717
18281W        W33750  11.752  17.770  13.640  0.5050  0.2189 -0.2878
18282W        W33751  13.032  16.622   1.996  0.1810 -0.1847 -0.0553
18283W        W33752   9.204   1.580   3.746 -0.1952  0.0425 -0.0928
18284W        W33753  10.019  10.603  11.402 -0.0608  0.2382 -0.1845
18285W        W33754  16.497   6.446   3.196 -0.1007  0.0032 -0.1440
18286W        W33755  12.162   9.423  13.701 -0.0808  0.4260  0.2056
18287W        W33756   1.510  13.997   1.254 -0.1660  0.1333 -0.2300
18288W        W33757  13.760   8.219   5.667  0.2370 -0.1459 -0.1188
18289W        W33758   0.502  14.072   0.392 -0.2037  0.3259  0.0326
18290W        W33759   3.279   6.561  15.989  0.1229 -0.2940  0.0062
18291W        W33760   6.902   6.393  15.943 -0.0644 -0.1111 -0.0287
18292W        W33761  13.227  10.701   3.920 -0.1257  0.0344  0.2645
18293W        W33762   0.620   5.262   1.636  0.2570  0.1657 -0.0950
18294W        W33763   2.410   0.718   5.340  0.0162 -0.2690 -0.1165
18295W        W33764  10.054   5.996  11.232 -0.1818  0.1184 -0.0344
18296W        W33765  10.149  11.180  12.438 -0.0495 -0.1805  0.0128
18297W        W33766   0.965   1.224  11.072 -0.3122 -0.0406  0.2246
18298W        W33767   2.795   4.514  15.718  0.2993 -0.2963  0.1170
18299W        W33768  17.721  16.354   2.918 -0.2499 -0.0251  0.1192
18300W        W33769  18.138  10.350  12.972  0.1657 -0.1549  0.1319
18301W        W33770   7.426   2.063   5.513  0.1330  0.0747 -0.0852
18302W        W33771  15.889   9.760   0.674 -0.3605  0.1561  0.2999
18303W        W33772   7.908   9.833  14.305  0.2485 -0.1821  0.2029
18304W        W33773   0.217  17.887  11.064 -0.0988  0.0257 -0.2346
18305W        W33774   8.609  18.265   2.893 -0.1197  0.4342  0.2205
18306W        W33775   6.888   7.005   2.142 -0.0801  0.1163 -0.0837
18307W        W33776   6.205   3.384  14.129 -0.1247  0.2101  0.0142
18308W        W33777  15.068  14.424  15.501  0.0612 -0.0158  0.1128
18309W        W33778   3.956   4.989   2.429  0.1097 -0.1760  0.2367
18310W        W33779  10.107   4.499  13.461 -0.1667 -0.2689 -0.2636
18311W        W33780   9.241   7.517  11.301  0.3912  0.1244  0.1250
18312W        W33781  14.907   0.436   2.486  0.1211 -0.0883  0.0260
18313W        W33782  10.909   3.392   4.221 -0.0960 -0.1730  0.0679
18314W        W33783   7.074  10.642  15.823  0.1176  0.1427 -0.1236
18315W        W33784   4.895   1.555   3.336  0.2456 -0.0742 -0.2515
18316W        W33785   8.070   4.280  13.914 -0.1117 -0.2799  0.1336
18317W        W33786  14.962   4.510   4.054  0.1647  0.0261 -0.0377
18318W        W33787  15.117   5.896   1.523  0.0515  0.1156  0.2322
18319W        W33788   0.889   6.597   6.367  0.1205 -0.0254 -0.2401
18320W        W33789  12.646  13.260  13.163 -0.0570  0.3764 -0.0102
18321W        W33790  17.795   3.908  14.415 -0.2820  0.1363 -0.1528
18322W        W33791  14.488   8.681   3.448 -0.1161 -0.0710 -0.0130
18323W        W33792  17.069  17.338  11.102 -0.1600  0.0708  0.1982
18324W        W33793  13.771   5.650  14.902 -0.0538 -0.1263 -0.0142
18325W        W33794   3.057   5.989   0.899 -0.3975  0.1574  0.0760
18326W        W33795  11.448  12.996   4.837  0.0560 -0.2146 -0.1527
18327W        W33796   2.140  16.402   1.982 -0.4720  0.3234 -0.2849
18328W        W33797   3.224  10.074  13.633  0.0993 -0.1126 -0.1786
18329W        W33798  17.420  18.004   4.090  0.0875  0.1214 -0.0707
18330W        W33799   3.245  11.842   3.326  0.3172 -0.0900  0.0303
18331W        W33800  11.581   1.326   1.064  0.0758 -0.0154  0.0137
18332W        W33801  16.710   7.431   4.469  0.0736  0.3773  0.1452
18333W        W33802  11.470   2.762   1.324  0.0265  0.1661 -0.1071
18334W        W33803   8.004  17.832   3.401 -0.2339  0.3197  0.1814
18335W        W33804   6.244   6.031  15.112  0.2094  0.1130 -0.0016
18336W        W33805  10.680   8.164  11.970 -0.0592 -0.2529  0.1492
18337W        W33806   9.514  17.772   3.364  0.1675  0.1473  0.0320
18338W        W33807   9.612   1.793   6.065  0.0604 -0.0850  0.1418
18339W        W33808   9.363  11.602  12.164 -0.2817 -0.0550  0.0322
18340W        W33809   2.689  12.296   3.700 -0.0038  0.0718  0.0185
18341W        W33810   2.425  10.093  14.534  0.1808  0.2064  0.0693
18342W        W33811  16.932  10.866   1.502 -0.1639  0.1323 -0.1570
18343W        W33812   2.217  12.411  11.074 -0.1030  0.0946  0.1050
18344W        W33813  11.906  17.512   4.109 -0.0416 -0.0828 -0.1596
18345W        W33814   4.289  10.723  10.141  0.1590 -0.1213 -0.2024
18346W        W33815  13.633   8.882  15.389 -0.0372  0.0810  0.1469
18347W        W33816   3.300   7.780   0.639  0.1847 -0.0171  0.2513
18348W        W33817  13.517  16.329   4.552  0.1646  0.0373  0.0988
18349W        W33818  10.621  11.038   2.109  0.0562 -0.2253  0.1253
18350W        W33819   8.430   9.942   1.484 -0.1598  0.2102 -0.0970
18351W        W33820   4.645   9.522   2.215 -0.4677 -0.0587 -0.1768
18352W        W33821   1.734   6.349   2.840 -0.1716  0.1376 -0.1401
18353W        W33822  15.828  11.589   2.925 -0.0396  0.0622 -0.3549
18354W        W33823   9.071   1.110  13.008  0.1656 -0.0021  0.0653
18355W        W33824   0.878   6.222  11.524  0.0409 -0.0255 -0.2614
18356W        W33825   9.183   6.201   2.432 -0.0454  0.0064  0.0065
18357W        W33826   9.310  10.547  15.379  0.1811  0.2851  0.2765
18358W        W33827   3.018   2.641   2.461 -0.0036  0.1407 -0.0920
18359W        W33828  16.533   6.769   0.136 -0.2215 -0.1880 -0.0599
18360W        W33829   7.529  17.701   4.271 -0.0559  0.2022  0.0359
18361W        W33830  17.945  14.427  15.568  0.5294  0.1404  0.0181
18362W        W33831   5.289   3.185  12.004 -0.0283 -0.0626  0.0706
18363W        W33832  15.169   6.193   6.107 -0.0468 -0.1131  0.2920
18364W        W33833   1.933   7.084  11.416 -0.0175 -0.1201  0.0627
18365W        W33834   3.714   9.848  11.530  0.0162 -0.2281 -0.0613
18366W        W33835  16.705   4.531   2.221  0.1597 -0.2910  0.1431
18367W        W33836  16.924   3.370  10.927 -0.0923 -0.0423 -0.1045
18368W        W33837   8.353  13.904   2.917  0.2314 -0.1226  0.0316
18369W        W33838   3.405  15.794  13.942 -0.0283 -0.1107  0.0703
18370W        W33839   1.256   7.024   1.243  0.2608 -0.1096 -0.1226
18371W        W33840   2.757  13.987   9.967  0.0793  0.2599  0.1234
18372W        W33841  12.579   7.529   4.598 -0.0442 -0.0949  0.1020
18373W        W33842   7.245  14.004  14.109 -0.0762  0.0752 -0.0701
18374W        W33843   1.833   9.803  11.071  0.0143 -0.3568  0.0580
18375W        W33844  13.785   9.014   0.791  0.1699 -0.0768  0.1323
18376W        W33845  10.031  11.441   3.454 -0.1086 -0.0305  0.0784
18377W        W33846  12.120   3.372   5.089 -0.1162 -0.1223  0.0476
18378W        W33847  13.975   8.717  11.919 -0.0577 -0.0525 -0.0776
18379W        W33848   1.713  18.094  15.365 -0.0245  0.2428  0.0492
18380W        W33849   6.921  11.796   5.004 -0.0320 -0.0148  0.1184
18381W        W33850  12.947   9.950   2.339  0.2294  0.0872  0.0573
18382W        W33851   7.919  14.219   2.790 -0.2622  0.0829 -0.1516
18383W        W33852  12.961   4.163   2.076  0.1727 -0.1234 -0.2039
18384W        W33853   9.328  11.061   3.205 -0.0584 -0.2958  0.2600
18385W        W33854  15.232  12.665   4.085  0.2782 -0.0840  0.1347
18386W        W33855  11.032   8.779   0.786 -0.4537 -0.0774 -0.3224
18387W        W33856   2.334   2.406   1.922  0.0890  0.0349  0.1199
18388W        W33857   4.359  16.859   2.889  0.0131  0.2939  0.1137
18389W        W33858  16.896   1.255  11.324 -0.0981  0.1280  0.1101
18390W        W33859  14.429  13.846   3.588 -0.1449  0.0188  0.1241
18391W        W33860   8.596   5.949  10.365 -0.2153 -0.1566  0.3733
18392W        W33861   1.818   7.578   3.697 -0.0017 -0.1170 -0.4037
18393W        W33862   8.126  12.316  13.908  0.0187 -0.0298  0.1269
18394W        W33863   5.005   6.369   5.030  0.0520  0.1739  0.2475
18395W        W33864   8.311  11.388  14.298  0.1127  0.1909  0.0142
18396W        W33865  16.920   7.049  12.561 -0.2742  0.3476  0.0806
18397W        W33866  18.017   4.700   2.582  0.1815  0.0449 -0.2773
18398W        W33867   6.511  13.231  10.068 -0.1105  0.0247  0.2058
18399W        W33868   1.760   1.346   2.604  0.0757 -0.2864 -0.3716
18400W        W33869  12.467   5.948  10.934  0.2031  0.0964 -0.1331
18401W        W33870   2.535  14.476  14.898 -0.1279 -0.1372 -0.3160
18402W        W33871   2.162   6.443   3.877 -0.1608  0.0971 -0.0307
18403W        W33872   4.986  17.732  12.008  0.1032 -0.0520 -0.0286
18404W        W33873  17.332   8.343   1.134  0.2368  0.1718 -0.2355
18405W        W33874   9.360  12.257   1.987  0.1676 -0.0166  0.2470
18406W        W33875   6.774   1.625  15.523 -0.3909 -0.0518  0.0736
18407W        W33876   4.196   5.512   4.147  0.2493 -0.0299 -0.1331
18408W        W33877  11.693  10.169   0.876  0.0052  0.1128  0.2571
18409W        W33878   1.261   2.435   0.727  0.0484  0.1434  0.1247
18410W        W33879   8.684   0.015   3.316  0.1496  0.0962 -0.1384
18411W        W33880   1.101  11.823  15.502 -0.0378 -0.1996  0.0229
18412W        W33881  14.772  12.159  11.290  0.4408 -0.2661 -0.0809
18413W        W33882  12.428  17.216  12.107  0.0019 -0.4131 -0.2192
18414W        W33883   6.010  14.673   0.474 -0.0920 -0.0454  0.2455
18415W        W33884   7.450   1.239  10.487  0.1545 -0.0809  0.2831
18416W        W33885   6.044   1.041   5.333  0.0190  0.0832  0.1297
18417W        W33886  16.859   7.514   1.761 -0.1613 -0.1707 -0.0240
18418W        W33887   2.129   4.316  13.929  0.2443 -0.0947 -0.1492
18419W        W33888   2.297   9.978   4.316 -0.0953  0.1326 -0.2225
18420W        W33889  10.199   1.045  12.155 -0.0830 -0.0262  0.3749
18421W        W33890   4.387  14.080  15.386 -0.3322  0.1753  0.0588
18422W        W33891  14.674   7.613  14.886  0.0622 -0.3255 -0.1239
18423W        W33892  16.578  12.682   3.602 -0.0899  0.0847 -0.1334
18424W        W33893  11.943  10.065  14.648 -0.0600  0.2521 -0.2531
18425W        W33894   9.659   5.692   3.024 -0.2834  0.0142  0.2069
18426W        W33895  14.173  16.707  10.863 -0.0574 -0.0317  0.0544
18427W        W33896  17.246  18.461   4.311  0.2033 -0.1715 -0.1648
18428W        W33897   5.124   3.738   3.941  0.1660  0.1414  0.2304
18429W        W33898   3.713  13.035  13.641  0.2432  0.2188  0.2745
18430W        W33899   1.199   2.682   5.901  0.2495  0.1668 -0.1164
18431W        W33900  13.622   3.550   2.094  0.2153  0.0506  0.1754
18432W        W33901   4.012   1.308  12.644  0.1891 -0.1252  0.0001
18433W        W33902   0.750   0.872   1.094  0.2517 -0.2582  0.0306
18434W        W33903  10.612  11.243  15.400 -0.0019  0.1934  0.0226
18435W        W33904   6.555   2.596   2.801  0.2314 -0.0762 -0.3237
18436W        W33905   2.679   4.181   0.612  0.0758 -0.2773  0.2604
18437W        W33906   3.243   5.516  12.148  0.5423  0.1577  0.1043
18438W        W33907   9.988  14.829  13.536  0.0005 -0.1812 -0.0683
18439W        W33908  10.068   5.641  15.476 -0.0669  0.0840 -0.0217
18440W        W33909  13.786  13.747   2.319  0.0909  0.1756 -0.1306
18441W        W33910   2.266  15.124   2.443  0.0809  0.1388  0.2853
18442W        W33911   9.565  15.517  15.629 -0.1645 -0.3141  0.1300
18443W        W33912  14.503  12.310   1.887  0.1134 -0.0972  0.0514
18444W        W33913  10.318  14.480  14.454 -0.0983  0.0167 -0.1947
18445W        W33914   0.394  16.261  13.919  0.2912 -0.2377  0.0610
18446W        W33915   7.111   9.359  12.129 -0.1274  0.0885  0.0256
18447W        W33916  10.936   8.326   0.596 -0.1517 -0.0568 -0.1359
18448W        W33917  17.325  12.418   3.858 -0.1241  0.2205  0.0488
18449W        W33918   2.527  11.230   1.700 -0.0402  0.0097  0.4797
18450W        W33919   8.240  17.910  12.143  0.0515  0.4884 -0.1183
18451W        W33920  16.884   5.809   3.474  0.0511 -0.3239 -0.0985
18452W        W33921  10.781   3.455   1.242  0.2454 -0.0105 -0.2604
18453W        W33922  16.704  17.256   3.725  0.0016  0.1154 -0.0422
18454W        W33923  14.967   7.546  15.810 -0.5149  0.2768  0.1485
18455W        W33924  14.137  15.340   1.281  0.0603 -0.1301 -0.1413
18456W        W33925  17.192   1.040   3.669 -0.3433 -0.2708  0.2678
18457W        W33926  10.156  11.592   2.750  0.0974  0.1696 -0.2678
18458W        W33927  13.112   8.295   0.789 -0.0104  0.1314 -0.3851
18459W        W33928   6.638   7.840   4.536 -0.0000 -0.0990  0.1817
18460W        W33929  12.194  17.266   2.717  0.0318 -0.1393 -0.0335
18461W        W33930   9.897   4.925  14.210 -0.2265 -0.3082  0.2499
18462W        W33931   6.898   4.301   0.957  0.4811  0.1052 -0.3099
18463W        W33932   7.244   0.312  14.873 -0.0905 -0.2075  0.3210
18464W        W33933   6.672   4.745  12.929 -0.2945  0.0014  0.1445
18465W        W33934  13.291  14.731  15.013  0.0468  0.1380  0.3337
18466W        W33935  11.393   1.693   2.037 -0.0230 -0.0760  0.1448
18467W        W33936   7.674  10.897  13.321  0.1254  0.0527 -0.2517
18468W        W33937  14.776   9.608  11.726  0.0435  0.0475  0.0565
18469W        W33938   7.576   0.551   0.292  0.0860 -0.3435 -0.1805
18470W        W33939  10.091  15.507   4.853  0.2278 -0.1103 -0.0648
18471W        W33940  17.060  18.334  10.981  0.0308  0.2244  0.2301
18472W        W33941   1.560  14.094   4.150  0.3461 -0.1297  0.3657
18473W        W33942   2.970  12.684   1.583  0.1958 -0.0276  0.1727
18474W        W33943  12.360  14.914  14.839  0.3533 -0.2450 -0.1887
18475W        W33944  10.150  10.809   4.941 -0.0294  0.0399 -0.3980
18476W        W33945   3.045   9.052   4.421 -0.0694  0.2869  0.0883
18477W        W33946  11.387  10.121  11.817  0.2124 -0.0250  0.1141
18478W        W33947   1.255   8.027  15.667  0.3622  0.0812 -0.2807
18479W        W33948   9.149   1.460   0.202 -0.2523 -0.0892  0.4396
18480W        W33949   5.722   2.743  14.444  0.0132  0.0301  0.1455
18481W        W33950   5.625   4.306   0.748 -0.2292 -0.0894  0.1165
18482W        W33951  15.516   8.914   1.699  0.2984 -0.0579  0.0813
18483W        W33952   8.678  12.850   2.392 -0.2667 -0.2440  0.0645
18484W        W33953   2.710  17.765   3.286 -0.1574  0.2414 -0.0695
18485W        W33954   1.356  11.281  11.782 -0.0644 -0.1105 -0.0968
18486W        W33955   6.861  12.616   0.516  0.1468 -0.0134  0.3824
18487W        W33956  13.944   5.797   1.833  0.1709 -0.0618  0.0912
18488W        W33957   1.194  18.297  12.557  0.2526  0.2705 -0.1360
18489W        W33958  15.987   2.604   3.325  0.1468 -0.0229  0.0201
18490W        W33959  17.208  16.001  11.426  0.0741  0.1255  0.0658
18491W        W33960  14.131   1.162  11.678  0.1555  0.0203 -0.0967
18492W        W33961  11.135   5.163  13.868  0.0180 -0.1221 -0.0337
18493W        W33962   4.268  11.457  13.105 -0.0275 -0.0014 -0.2639
18494W        W33963  17.096   8.631  13.208  0.0686 -0.0399 -0.2753
18495W        W33964  14.281   9.887  13.841 -0.0241 -0.1054 -0.0799
18496W        W33965   4.232  12.659  14.278 -0.0381 -0.1161 -0.1842
18497W        W33966  12.754   6.906   1.789  0.0675 -0.2822  0.0172
18498W        W33967   7.170   4.886   1.870  0.1090 -0.2058  0.1680
18499W        W33968   2.232   3.010   3.614 -0.1835  0.1098  0.3398
18500W        W33969  11.283  10.141   5.538  0.1504 -0.1129  0.0190
18501W        W33970   2.905   0.500   1.203 -0.0443  0.1514  0.2206
18502W        W33971   7.193   0.123   5.028  0.1856  0.0082 -0.2436
18503W        W33972   6.265   8.633  15.443  0.1328  0.0579  0.3743
18504W        W33973   3.332   4.199   3.639 -0.2405  0.1422 -0.0469
18505W        W33974  16.802  11.932  11.714 -0.2589 -0.1308 -0.0594
18506W        W33975   0.461   3.641  12.735  0.3546  0.6103  0.0076
18507W        W33976   9.015  16.860   2.998 -0.1293  0.1362  0.2212
18508W        W33977   2.384  11.666  12.543 -0.1286  0.1156  0.1777
18509W        W33978  12.591   7.191   2.828 -0.0637 -0.0105  0.0450
18510W        W33979  17.449   6.303  13.012  0.1046 -0.1606  0.0124
18511W        W33980  13.888   1.981  12.368 -0.1649 -0.1181 -0.1144
18512W        W33981  18.028   3.487  13.043 -0.0616 -0.2243 -0.4064
18513W        W33982   6.860  10.765   1.090 -0.1140 -0.0727  0.1716
18514W        W33983   3.793   7.388   3.468 -0.0077 -0.0462  0.1412
18515W        W33984   8.451  10.435   1.403  0.1314  0.1777 -0.0560
18516W        W33985   9.141  12.324   3.011 -0.1262  0.0334 -0.2638
18517W        W33986  13.881  12.931  10.994 -0.1340  0.0508  0.1449
18518W        W33987  13.940   7.803   3.920  0.2432 -0.1228 -0.1619
18519W        W33988   3.591  18.318   1.086 -0.1741  0.3043  0.0347
18520W        W33989   7.638  17.821   3.739  0.3369 -0.0828  0.3713
18521W        W33990  13.176   6.135   4.317  0.0281  0.3801  0.2741
18522W        W33991  17.796  14.938   5.096  0.0732 -0.3285 -0.3867
18523W        W33992  10.924  11.864   3.372  0.2961  0.1286 -0.0891
18524W        W33993   9.970  13.068  12.197 -0.4403 -0.1239 -0.0901
18525W        W33994   6.059  10.614   3.504 -0.1173  0.0970 -0.1155
18526W        W33995   7.604  12.462  12.859  0.0413 -0.1069 -0.0724
18527W        W33996   9.010  13.823  12.866  0.0895 -0.1190 -0.4466
18528W        W33997  12.078  16.420  11.080  0.0349  0.3825 -0.2852
18529W        W33998   7.228  11.757   4.624 -0.0321  0.1830  0.1053
18530W        W33999   1.143   6.009   5.148 -0.1609 -0.2114  0.4202
18531W        W34000  14.529   2.114  11.479 -0.3011 -0.1382 -0.0266
18532W        W34001   4.115   1.557  14.433 -0.0221 -0.1305 -0.1167
18533W        W34002  15.778  10.884  11.245 -0.1483  0.1094 -0.4450
18534W        W34003  16.428   6.993  13.366 -0.0450 -0.2075 -0.1928
18535W        W34004   1.261  17.143   1.500 -0.1814 -0.2714  0.2450
18536W        W34005  12.520  10.421   0.627  0.2341  0.1464 -0.0486
18537W        W34006  14.073  15.072   4.622  0.0390 -0.0580  0.0997
18538W        W34007   5.210   3.609   2.569 -0.1844  0.0522 -0.0462
18539W        W34008   8.832   3.454  11.019  0.0249 -0.2172 -0.0224
18540W        W34009  18.161  10.645   3.094  0.0123 -0.1654 -0.2940
18541W        W34010  13.209  12.750   4.850  0.2300  0.0686  0.0156
18542W        W34011   7.956   0.288  14.335 -0.0261  0.0620  0.2913
18543W        W34012  16.119  15.122  11.739  0.0585  0.0083  0.3147
18544W        W34013  17.055   1.038   4.689  0.1305  0.1468  0.0392
18545W        W34014  13.889  16.208  10.955 -0.0817  0.0626 -0.1776
18546W        W34015   2.268   3.726   4.293  0.0607 -0.0306  0.0866
18547W        W34016  11.948  11.615   5.533 -0.2664 -0.1372  0.0320
18548W        W34017  16.177  17.853  15.882  0.3507  0.0341 -0.0787
18549W        W34018   3.465   9.108   0.357 -0.1116  0.1386  0.2037
18550W        W34019  10.406  16.016   4.125  0.1731  0.1194 -0.1881
18551W        W34020  10.154  11.872  11.245 -0.0053 -0.0234  0.0510
18552W        W34021  14.607   2.511   1.504 -0.3688  0.1309  0.1886
18553W        W34022   1.404   6.557  15.089  0.0424  0.1744  0.1697
18554W        W34023   7.848  11.168   0.664 -0.0036  0.1548  0.2386
18555W        W34024  13.410  14.523   3.772 -0.0130 -0.2921 -0.0768
18556W        W34025  11.047   6.781   3.698 -0.1843  0.0960 -0.1135
18557W        W34026   6.014   5.814  11.729 -0.2084  0.0611 -0.0099
18558W        W34027  16.264   4.456   1.524  0.0425 -0.1829 -0.1872
18559W        W34028   3.952  14.272   1.397  0.2076  0.0183 -0.2072
18560W        W34029  13.596   9.239  15.896 -0.1800 -0.0694 -0.0558
18561W        W34030   3.186   1.091   5.536  0.0150  0.2023  0.1072
18562W        W34031  16.450  12.866   1.897  0.2023  0.1574  0.0579
18563W        W34032  12.814   9.770   1.855 -0.0405 -0.1383 -0.2596
18564W        W34033  14.348  17.437  13.800 -0.0206  0.2439 -0.0936
18565W        W34034   4.135   7.042  10.494 -0.0676  0.2755  0.0889
18566W        W34035  13.648   9.718  15.434  0.1081  0.0731 -0.0864
18567W        W34036   0.717   3.066  15.234 -0.2283  0.0356 -0.3415
18568W        W34037  16.776   4.716  15.970 -0.0720  0.0385  0.0826
18569W        W34038  11.764  10.676  14.139 -0.1945 -0.0152  0.0684
18570W        W34039  16.688  17.115  12.451  0.0823  0.0843  0.1019
18571W        W34040  10.794  13.914   4.534  0.0917 -0.1028  0.2422
18572W        W34041   8.949   2.353   4.970 -0.0192 -0.1495  0.0869
18573W        W34042  11.838   7.750  11.507  0.0597  0.1093  0.0878
18574W        W34043  18.420  15.389   3.771  0.1599  0.2649  0.3284
18575W        W34044  11.745   5.588   1.611  0.1752  0.1469  0.4101
18576W        W34045  15.541  12.961   0.092 -0.1025 -0.1616 -0.2690
18577W        W34046  12.709  17.180   1.329 -0.0731  0.1369 -0.1615
18578W        W34047  13.735   5.982   1.221 -0.4040  0.0628 -0.0824
18579W        W34048   7.115  14.103   2.257  0.1349  0.0374  0.1012
18580W        W34049  14.580   2.249   1.104 -0.0996  0.1995 -0.1646
18581W        W34050   4.762   7.953  12.644  0.2060 -0.1437  0.2960
18582W        W34051  16.302   2.094  11.909 -0.2412  0.0607 -0.1016
18583W        W34052  12.724   8.804  15.261 -0.1444 -0.1248  0.0852
18584W        W34053  16.702  13.980  12.118 -0.2103 -0.1291 -0.3721
18585W        W34054  13.584  11.830   2.344 -0.1981 -0.0151  0.0261
18586W        W34055  18.244  17.250   3.492 -0.1195 -0.0793 -0.0643
18587W        W34056   3.221  12.317  12.511  0.1846 -0.0544 -0.2841
18588W        W34057  15.055  18.077   5.894  0.1393 -0.2788  0.1095
18589W        W34058   9.276  13.004   1.304 -0.0607 -0.1481 -0.1837
18590W        W34059  10.797  15.228   1.557 -0.5599 -0.0993  0.1144
18591W        W34060  17.302   7.660  13.613  0.1256  0.1962 -0.1259
18592W        W34061   5.506  14.470   0.287  0.1065  0.0398  0.0599
18593W        W34062   6.343  12.849  14.918  0.0065 -0.0809 -0.2952
18594W        W34063   7.541   1.558   0.804 -0.2577  0.2940  0.3988
18595W        W34064   5.420   0.908  12.078 -0.3042  0.2131  0.3326
18596W        W34065   8.890  17.594   0.808 -0.0028  0.0949 -0.1499
18597W        W34066  15.339  17.273   3.391 -0.1754  0.3728 -0.0813
18598W        W34067  15.511   4.586   5.609  0.2435  0.2833  0.2695
18599W        W34068  14.747  13.569  15.084  0.2068 -0.2162  0.1063
18600W        W34069  10.222   5.538   3.333 -0.0856 -0.0748  0.2146
18601W        W34070  15.495   0.060   9.888  0.0660  0.2895 -0.0619
18602W        W34071   4.594   4.837  14.903  0.0439 -0.1304  0.0763
18603W        W34072  11.703  13.401  13.502  0.2363 -0.1751 -0.4010
18604W        W34073   3.566  14.859   5.606  0.1389 -0.3943 -0.1245
18605W        W34074   3.717   2.810   4.752  0.0704 -0.1867  0.5273
18606W        W34075   7.025  15.005   1.853  0.2064 -0.0061  0.1475
18607W        W34076   8.377  15.438  10.095 -0.0297  0.2095  0.1090
18608W        W34077   1.220   3.826   0.844 -0.1230 -0.1381 -0.0438
18609W        W34078   1.078  17.988  14.562 -0.0336  0.0873 -0.0918
18610W        W34079   7.755   1.523   4.061 -0.1571 -0.1813 -0.2579
18611W        W34080   4.909  11.788   4.550  0.1573  0.2659  0.0519
18612W        W34081  16.821   8.000  12.382 -0.1123  0.0241  0.1486
18613W        W34082  11.945  10.754  10.484  0.2687  0.1484  0.0772
18614W        W34083   3.800   1.980  15.639 -0.0427  0.0301  0.1906
18615W        W34084   2.947   7.612   2.991 -0.1049  0.1499  0.0207
18616W        W34085  13.705   3.101  15.663  0.2170  0.2836  0.0768
18617W        W34086   5.922   8.477   0.815 -0.1186 -0.1519 -0.2794
18618W        W34087   8.492   5.453  15.567  0.2206 -0.1978  0.0249
18619W        W34088   7.608   3.908   1.756  0.1546  0.0300  0.1138
18620W        W34089  17.862   6.376  14.015 -0.0845 -0.0847 -0.1716
18621W        W34090  12.842  12.117  10.685  0.2627  0.2035  0.1564
18622W        W34091  11.328   5.895  14.799 -0.2953 -0.0597 -0.2572
18623W        W34092  14.151  13.805  13.786  0.0870  0.0954 -0.0588
18624W        W34093  15.164   7.522  14.773  0.0114  0.0644  0.1151
18625W        W34094  15.781  18.383   2.042 -0.2259  0.2736  0.2188
18626W        W34095  11.154   5.169   3.409  0.0171 -0.0362 -0.0577
18627W        W34096  16.155   7.469   3.521 -0.1349 -0.0271  0.0843
18628W        W34097   9.911  16.127  10.718 -0.1358 -0.1019  0.3234
18629W        W34098  15.390   0.012   3.985  0.1644  0.2663 -0.0289
18630W        W34099   5.655   8.957  12.142 -0.1353  0.0073  0.1443
18631W        W34100  14.399   3.598   3.736  0.1222 -0.1599 -0.2958
18632W        W34101  12.880  16.714  12.298 -0.0798  0.2422  0.1319
18633W        W34102  12.338  10.938   0.870 -0.4721 -0.0094 -0.0784
18634W        W34103   5.389   9.205   4.789 -0.2960  0.1490 -0.2259
18635W        W34104   1.049   2.817   4.869 -0.3233 -0.2703 -0.1113
18636W        W34105   2.315   7.624   3.955  0.0424  0.0617 -0.2435
18637W        W34106  12.382   3.969  12.810  0.2536  0.1573  0.1524
18638W        W34107  10.555   5.662   4.124 -0.1062  0.1592 -0.1002
18639W        W34108  11.579   8.013   2.641 -0.2109  0.0253 -0.1970
18640W        W34109   0.078   1.350   4.258  0.1539 -0.3182 -0.0667
18641W        W34110  15.013   1.831   3.653  0.0809 -0.0771 -0.0910
18642W        W34111  11.679   2.502  12.991  0.2197  0.1196  0.1862
18643W        W34112   8.938  14.394  14.245  0.0136 -0.0537 -0.1014
18644W        W34113   5.857   6.483   1.261 -0.2449 -0.1861  0.1993
18645W        W34114   5.654   9.287   3.194 -0.1596  0.1922  0.2297
18646W        W34115   3.243  11.990  14.255  0.0673 -0.1183  0.3627
18647W        W34116   8.161   7.838   0.262 -0.0047 -0.0626  0.0416
18648W        W34117   2.560   2.205  13.107 -0.0710 -0.0989 -0.1503
18649W        W34118   8.856   1.642   4.603 -0.0054 -0.0131 -0.0018
18650W        W34119   2.461  13.683  10.265 -0.0365 -0.0736  0.1823
18651W        W34120  10.203   3.457   2.067 -0.0785  0.1526 -0.1535
18652W        W34121   3.822  15.377   0.466 -0.5609  0.3672 -0.0761
18653W        W34122   8.167  15.484  13.276  0.2761 -0.0559 -0.2212
18654W        W34123   7.834   8.992  10.966  0.1519 -0.1086  0.1912
18655W        W34124   9.314   1.084  11.109 -0.3228  0.1442 -0.2663
18656W        W34125  13.716  14.985  14.890  0.4734 -0.0824 -0.0269
18657W        W34126   8.409  16.935  14.055 -0.0667  0.1556  0.0261
18658W        W34127   8.456   1.406   5.209  0.0753 -0.2499  0.0442
18659W        W34128  17.072  12.644  11.257 -0.0597 -0.2539 -0.2439
18660W        W34129   4.142   3.466   1.002  0.1378 -0.0157 -0.0929
18661W        W34130  15.298  18.362  11.833 -0.0749 -0.3846  0.1973
18662W        W34131   4.011   8.140  15.931 -0.0210  0.3377  0.0446
18663W        W34132  16.125  10.060  11.540 -0.1469  0.2536 -0.2193
18664W        W34133   5.059   1.027  12.955 -0.2682  0.3479  0.0827
18665W        W34134  13.879  16.616  14.441 -0.0545  0.0383  0.2425
18666W        W34135   1.537   1.397  14.808  0.2407 -0.2222  0.0600
18667W        W34136   5.260   6.082   3.273 -0.0225 -0.1831  0.1145
18668W        W34137   6.181  10.338  12.581  0.1452  0.3943 -0.2032
18669W        W34138   9.154  15.256   4.949  0.0025 -0.0645 -0.1492
18670W        W34139   6.143   4.657  15.641 -0.0881 -0.1675  0.3480
18671W        W34140   1.565   2.785  15.971 -0.1211  0.2052  0.3165
18672W        W34141   9.222   1.389   4.712  0.0159  0.2881  0.0827
18673W        W34142   0.300   7.314  14.366  0.0669  0.1116  0.0739
18674W        W34143  16.961  10.110  14.829 -0.0536  0.0192 -0.1995
18675W        W34144   1.380   2.448  12.600 -0.1872  0.1471 -0.2150
18676W        W34145  17.506  14.643  11.011  0.1842 -0.2106 -0.0235
18677W        W34146  11.400   7.460   3.431  0.0532  0.0033 -0.1585
18678W        W34147   9.619   6.978  15.667  0.1225 -0.0535  0.2570
18679W        W34148  14.746   2.961  10.213 -0.1082 -0.3425 -0.1254
18680W        W34149  15.588   7.087   4.198 -0.0605  0.1035  0.2545
18681W        W34150  14.830  11.810   5.043  0.1369  0.1881  0.0730
18682W        W34151   9.643   1.199  15.620 -0.2435  0.0396  0.3451
18683W        W34152  16.333   1.252   2.693  0.3203  0.2010  0.0196
18684W        W34153  10.365  14.089   2.550  0.0222  0.0604  0.3412
18685W        W34154   1.438  16.875   2.905 -0.2262  0.2277  0.0217
18686W        W34155  13.048   3.857  13.888  0.1090 -0.0495 -0.0788
18687W        W34156  16.978  13.598  15.980  0.3266  0.1398  0.1219
18688W        W34157   0.450  13.888  15.951  0.3959 -0.0239  0.0559
18689W        W34158   4.295  10.944  15.401  0.2742  0.0611  0.0713
18690W        W34159  13.537  10.769  14.556 -0.1285  0.1353  0.0723
18691W        W34160   8.557   6.085  11.727 -0.0794  0.1513 -0.2627
18692W        W34161  14.900   1.221  13.000  0.1480  0.0570  0.0754
18693W        W34162  15.231   0.566   5.684  0.0155  0.1815  0.1786
18694W        W34163  13.606  17.667  13.308  0.1836  0.1565 -0.3434
18695W        W34164   3.495   8.468  13.656  0.2079  0.0252  0.0551
18696W        W34165   3.562  13.822   5.403  0.0034  0.1595 -0.0502
18697W        W34166   2.452  13.715  11.200 -0.1471 -0.0145 -0.0832
18698W        W34167   6.798   2.460   0.968 -0.3630 -0.0826 -0.0888
18699W        W34168  16.999   7.203   4.006 -0.4067  0.0757  0.4017
18700W        W34169  11.127  10.816   2.916 -0.0772 -0.2104 -0.0968
18701W        W34170   2.816  18.361  13.781 -0.0038 -0.0834 -0.0721
18702W        W34171   6.457   3.205   3.333  0.1578  0.0821 -0.1041
18703W        W34172  11.877   2.989  13.993  0.0687  0.1048  0.0863
18704W        W34173   6.250  10.016  13.217 -0.2435 -0.3283  0.1586
18705W        W34174  17.049  17.598   3.463 -0.0871 -0.2208 -0.1753
18706W        W34175   7.444  16.028  11.968 -0.0407  0.0406  0.1504
18707W        W34176   4.147   7.218   2.124 -0.2282 -0.1171 -0.3260
18708W        W34177  10.324   1.613  11.247  0.3259  0.1939  0.2004
18709W        W34178  11.950  16.285  14.718  0.0476  0.1260  0.0911
18710W        W34179  11.606   8.813  11.022  0.0111  0.1876  0.0590
18711W        W34180  10.234  13.731  13.207  0.0007 -0.1432  0.1254
18712W        W34181  13.784   1.781   5.374 -0.0312  0.1863 -0.1747
18713W        W34182  14.839  13.530   3.763  0.1307  0.0449 -0.4764
18714W        W34183   4.426  15.964  15.616 -0.0559 -0.1643  0.0090
18715W        W34184   7.953   4.267   1.970  0.0711 -0.1858 -0.0974
18716W        W34185   9.824  10.447  15.789  0.4033  0.1345 -0.1481
18717W        W34186  11.996   9.009  11.847  0.3183  0.0223 -0.1305
18718W        W34187   7.170  16.402   4.383 -0.1533  0.2598  0.2821
18719W        W34188  12.994   6.095  15.048 -0.1087 -0.1798 -0.1715
18720W        W34189   6.517  17.452   1.582 -0.1451  0.2114  0.0741
18721W        W34190   8.822  16.029   1.877  0.0940  0.2554 -0.0048
18722W        W34191  11.842   6.295   3.201  0.3537  0.1525  0.0215
18723W        W34192  13.918   5.306   1.869 -0.2206  0.1617 -0.0417
18724W        W34193   3.936   1.217  11.672 -0.1746  0.1831  0.1151
18725W        W34194  15.455  15.791  15.313  0.1876 -0.0178 -0.3269
18726W        W34195   0.305  16.091   1.924  0.0502 -0.0911  0.3281
18727W        W34196  15.291  12.544   1.685 -0.0211  0.0693  0.2450
18728W        W34197   2.667  13.924  13.831 -0.0680  0.0770  0.1426
18729W        W34198   7.822  13.692   2.882  0.2452 -0.0347  0.0459
18730W        W34199   8.888  13.592  10.156  0.1013 -0.0576 -0.1073
18731W        W34200   3.177  13.615  15.918 -0.1270  0.1988  0.0475
18732W        W34201  13.308  13.064   1.706 -0.0173  0.1791 -0.0435
18733W        W34202  16.497   3.504   5.401  0.0800 -0.0886  0.1754
18734W        W34203  16.698   0.866   3.743  0.1842 -0.1113 -0.0714
18735W        W34204  11.478   9.626   5.429  0.1410 -0.2132  0.0238
18736W        W34205   8.701  14.078   5.002  0.1223 -0.1033  0.1207
18737W        W34206   9.865  12.380  12.875  0.4324 -0.3394 -0.1029
18738W        W34207   9.377   4.738   0.605  0.0475  0.1320 -0.2162
18739W        W34208  15.495   6.570   1.966  0.2062  0.0330 -0.0915
18740W        W34209  16.505   5.223  11.412  0.3134 -0.2108 -0.3211
18741W        W34210   4.284  14.618  13.375  0.2772 -0.0205  0.1194
18742W        W34211  14.796  15.596  15.435 -0.0036 -0.0616  0.4147
18743W        W34212  15.832   9.640   3.297 -0.3145 -0.2803 -0.0066
18744W        W34213   3.028   2.504   4.229  0.1328  0.2649  0.2656
18745W        W34214  16.809   8.552  15.535 -0.1972 -0.2138  0.3243
18746W        W34215   1.464   8.942  12.293  0.1263 -0.0186  0.3358
18747W        W34216   5.421  17.688   4.928 -0.2662 -0.0264  0.2475
18748W        W34217   9.206  14.641   3.704  0.0447  0.1067  0.0161
18749W        W34218   7.151  17.218  12.035  0.3299 -0.0552 -0.4740
18750W        W34219  15.287  13.928   5.325 -0.2500  0.0175 -0.1748
18751W        W34220  11.742   7.059   4.513 -0.1782  0.0359 -0.0385
18752W        W34221   9.752  15.457   3.503 -0.1175 -0.0580  0.0384
18753W        W34222   1.594   1.551   3.099 -0.0678  0.1937  0.0789
18754W        W34223  15.976   2.265  15.987 -0.0869  0.2780  0.2705
18755W        W34224   6.831   9.371   3.480  0.0986 -0.2448  0.0672
18756W        W34225   8.342   8.345   5.437 -0.0311 -0.1378  0.0998
18757W        W34226  10.484  10.338  12.212  0.1544  0.0547 -0.2885
18758W        W34227   0.622  10.647  11.966  0.2610  0.2289 -0.2557
18759W        W34228   6.602   9.921  11.806  0.1235 -0.1154  0.0346
18760W        W34229  15.922   9.863   2.546 -0.3205 -0.0187 -0.1902
18761W        W34230   9.070   6.482  14.430 -0.0343 -0.0957  0.1825
18762W        W34231   7.244  12.502   2.139 -0.1548 -0.1107  0.2001
18763W        W34232   6.964   7.746   0.873 -0.0632 -0.0370  0.0890
18764W        W34233   0.886   6.623   3.267  0.1547 -0.0430 -0.1420
18765W        W34234   1.993   7.203  15.856 -0.0418 -0.2084 -0.2930
18766W        W34235  13.913  13.633   3.932 -0.3473  0.0370  0.3049
18767W        W34236  11.385  13.941  11.423  0.0190 -0.2801 -0.5089
18768W        W34237  17.152   4.969   0.334 -0.0135 -0.0414  0.0849
18769W        W34238   0.665  16.960   0.110 -0.1083 -0.1087  0.3434
18770W        W34239   0.724  14.955  15.984  0.4449  0.2595  0.0275
18771W        W34240   0.784   2.578   4.558 -0.0572 -0.2364 -0.2237
18772W        W34241  16.717   6.997   1.785  0.0006  0.1518 -0.0096
18773W        W34242   7.309   3.472   1.608  0.2231  0.0233 -0.2203
18774W        W34243  14.473   6.802  13.245  0.2091  0.0994  0.0350
18775W        W34244   0.241   5.586  12.954  0.5033  0.3195  0.2556
18776W        W34245  11.469  11.493   0.121  0.0133 -0.1328  0.0519
18777W        W34246  14.818  17.505   5.505 -0.0502  0.0604  0.0988
18778W        W34247   5.807  15.897   2.629  0.0480 -0.0376 -0.2212
18779W        W34248  10.557   3.922   0.494 -0.0572 -0.3164  0.3298
18780W        W34249   0.824  15.571  10.803 -0.0854  0.2476 -0.1794
18781W        W34250   3.463   7.500  13.878  0.0204 -0.0240  0.4138
18782W        W34251   3.897   4.752  13.974  0.0726  0.0286 -0.2383
18783W        W34252  10.557   5.922   3.099  0.1190 -0.2120 -0.1092
18784W        W34253   4.879   2.835  14.558 -0.1213 -0.2378  0.0794
18785W        W34254  16.315   7.623  11.461 -0.0428  0.3266 -0.2042
18786W        W34255   0.429  11.629   2.264  0.1642 -0.2012  0.0679
18787W        W34256   4.742  18.171   2.785 -0.0026  0.0990  0.3947
18788W        W34257   9.814   2.316  11.270 -0.1300 -0.2345 -0.1261
18789W        W34258  12.666   5.141   1.099  0.2447 -0.0717 -0.2860
18790W        W34259  18.435  11.888  13.940  0.1535  0.0688 -0.0770
18791W        W34260   7.621   4.591  11.022  0.2236 -0.3263 -0.1852
18792W        W34261  16.897  10.989   4.889 -0.1701  0.1292 -0.1798
18793W        W34262   1.264   3.707   3.901 -0.1137  0.2589  0.0354
18794W        W34263   2.809  12.571   2.313 -0.3329 -0.0230  0.0454
18795W        W34264  10.197   3.262   6.379 -0.2154  0.1640 -0.0539
18796W        W34265   6.773  13.200   4.227  0.0218 -0.0704  0.0963
18797W        W34266   5.744   2.723   3.982  0.3314  0.0940  0.2032
18798W        W34267   6.111  12.613  12.799  0.1679 -0.0788  0.1478
18799W        W34268  10.725   5.439  13.953  0.1265 -0.1874  0.2364
18800W        W34269   6.274   4.671  11.111  0.3686 -0.0576 -0.0150
18801W        W34270   4.651   5.418  12.841  0.0648 -0.0723  0.1766
18802W        W34271  18.446  16.870   3.235  0.3110 -0.2086  0.1794
18803W        W34272   1.920  13.169   2.832  0.1496 -0.1263 -0.0685
18804W        W34273   5.518   6.515  12.775 -0.1390  0.0478 -0.1059
18805W        W34274  12.729  13.777   6.203 -0.1875  0.1054 -0.0239
18806W        W34275  10.587   5.568  10.454  0.1063 -0.1901 -0.0835
18807W        W34276  16.115   8.128  15.018 -0.1112  0.0204 -0.0214
18808W        W34277  12.591   1.865   3.780 -0.1323 -0.1709 -0.1285
18809W        W34278  14.491  14.989   4.251 -0.1956  0.0525  0.1400
18810W        W34279  18.339   0.235  15.651  0.3420  0.0629  0.0112
18811W        W34280  11.913  16.855  10.757 -0.2812 -0.0113  0.1996
18812W        W34281   7.897  17.027  13.909  0.1067  0.3922  0.2633
18813W        W34282  10.035   8.952   3.621 -0.2271 -0.0162 -0.2012
18814W        W34283  12.204   5.517  12.824 -0.1767 -0.1455 -0.1965
18815W        W34284  16.169   6.899   5.397  0.1291 -0.0850  0.2239
18816W        W34285  13.880   8.506  10.587  0.0829  0.2948  0.1499
18817W        W34286  17.966  13.591   1.180  0.1143 -0.1348 -0.0250
18818W        W34287  17.109  10.384   1.409  0.0576 -0.2907  0.3337
18819W        W34288  15.695  12.567   2.655  0.5882  0.0965  0.0186
18820W        W34289   4.178  10.002   4.876  0.1784 -0.1013  0.3224
18821W        W34290   3.934   4.418   9.737 -0.1970  0.0082 -0.2449
18822W        W34291  13.444   4.214  15.068  0.0572 -0.0762 -0.1459
18823W        W34292  17.572   1.399  14.565 -0.1048  0.0284 -0.0508
18824W        W34293  10.686  13.886   1.485  0.0081  0.0763  0.2839
18825W        W34294   1.975   6.757   4.219 -0.1127  0.3709 -0.1474
18826W        W34295   0.070   1.718  11.792  0.1985 -0.3669  0.0012
18827W        W34296  18.236   9.035  15.276 -0.3073  0.1422  0.1370
18828W        W34297   8.140   8.193   2.663  0.0810  0.1203  0.1012
18829W        W34298   6.811   9.617   5.630 -0.0045  0.0326  0.0395
18830W        W34299  14.495   5.239  10.878  0.0989  0.1728  0.0958
18831W        W34300  13.777   7.179   4.316 -0.1144 -0.2049 -0.0024
18832W        W34301   3.530  15.625  15.111  0.0118  0.1274  0.2084
18833W        W34302   2.996  12.002   1.749  0.1345  0.1670 -0.4685
18834W        W34303   7.388   1.942   0.471 -0.2236  0.0325  0.5701
18835W        W34304  18.067  14.180  13.842  0.0509  0.2823 -0.1014
18836W        W34305  17.029  10.781  15.765  0.3453 -0.1470 -0.0665
18837W        W34306  14.860  17.919   1.272  0.0063  0.2397 -0.1713
18838W        W34307  14.267   3.969   1.693  0.0500 -0.1798  0.1103
18839W        W34308   3.826   7.887  15.007 -0.0336 -0.1759 -0.0811
18840W        W34309  14.524   0.064   2.607 -0.3523 -0.4173  0.2196
18841W        W34310  17.638   0.132  12.204  0.1541  0.0207 -0.1770
18842W        W34311   3.431   1.210  10.073  0.1593  0.2541  0.1838
18843W        W34312   1.714  14.091   2.325 -0.1018  0.0061 -0.0515
18844W        W34313  17.193   3.909  13.757 -0.0096 -0.1655  0.0585
18845W        W34314   0.362   9.765  12.492 -0.1215  0.0272 -0.0140
18846W        W34315   2.524  12.016  14.620  0.1562  0.0752  0.0917
18847W        W34316  15.102   4.365   5.334  0.4477  0.0934  0.0571
18848W        W34317   7.269   3.873  14.269 -0.1847 -0.1839  0.1843
18849W        W34318   0.031   6.852   1.176 -0.0437  0.0447 -0.0944
18850W        W34319  10.290   3.124  12.134 -0.2868  0.1595 -0.2250
18851W        W34320   6.558   4.344   0.613  0.1472 -0.2892  0.0760
18852W        W34321   5.849   8.958   0.563 -0.2872  0.1033 -0.0972
18853W        W34322  16.982   4.284   3.944 -0.0686 -0.2083 -0.1697
18854W        W34323  16.063   9.259   4.049  0.2456 -0.0581  0.0389
18855W        W34324  12.818   6.626   5.163 -0.3181 -0.0605  0.0860
18856W        W34325   4.970   1.224  15.188  0.1202  0.1733  0.0386
18857W        W34326  13.833   6.545  15.509  0.0257 -0.1267 -0.0458
18858W        W34327   3.902   8.714   2.370 -0.0193 -0.0424  0.1117
18859W        W34328  12.417   9.107  10.623 -0.0210  0.1796  0.0899
18860W        W34329  12.532  16.280   2.562  0.1896  0.0386 -0.1300
18861W        W34330  13.512   2.143  15.462 -0.1399  0.0072  0.2772
18862W        W34331   2.234   2.144  15.972 -0.1233  0.0978  0.0145
18863W        W34332   6.840  10.286   1.463 -0.0802 -0.1441 -0.1613
18864W        W34333  16.635  15.991   1.371  0.0052 -0.0939  0.0828
18865W        W34334   6.377  11.960   3.770 -0.0108 -0.0209  0.0709
18866W        W34335   7.854  17.373   1.947 -0.0626  0.2670 -0.1710
18867W        W34336   3.256   2.079   4.457  0.2852  0.0018 -0.0399
18868W        W34337   7.689   5.749   4.192 -0.0326 -0.1427 -0.1304
18869W        W34338   8.716   8.662  14.794  0.0704 -0.0206  0.1100
18870W        W34339   7.546   6.748  12.108 -0.2134  0.1431  0.0809
18871W        W34340   1.189   7.054  13.051 -0.3586  0.1815  0.1960
18872W        W34341  15.199   3.791   1.803  0.0181  0.1215  0.1494
18873W        W34342  16.252   0.931  15.991 -0.0731  0.1945  0.0599
18874W        W34343   0.673  13.049   0.722  0.1561  0.0641  0.0168
18875W        W34344   6.345  16.224   5.446 -0.0029 -0.1257  0.0305
18876W        W34345   2.869  11.884  13.372 -0.5600 -0.1211  0.1455
18877W        W34346  10.439   4.493   0.466  0.0762 -0.1164  0.0742
18878W        W34347   5.086  11.290   4.653  0.1619  0.1513  0.2141
18879W        W34348   8.378   3.235   2.013 -0.0521 -0.0522  0.4845
18880W        W34349  17.447   4.023  14.745  0.0936  0.0482  0.2120
18881W        W34350  12.342  15.973  10.928 -0.0542  0.0619  0.3101
18882W        W34351   4.971  10.702  12.078  0.0907 -0.2042 -0.0193
18883W        W34352  12.044   0.225   1.737  0.2127  0.0542 -0.4764
18884W        W34353  17.208  11.721  14.076  0.0448  0.1235  0.1054
18885W        W34354   3.783  12.269  15.887 -0.1016  0.0637  0.1709
18886W        W34355  13.395   2.660  14.662 -0.2038 -0.0092 -0.0002
18887W        W34356  13.701  15.162  13.757 -0.3016  0.2859 -0.3722
18888W        W34357  16.020   0.942  10.655  0.0875  0.1020  0.0880
18889W        W34358   9.147   7.058   5.071 -0.1621  0.3132 -0.0283
18890W        W34359   1.299   4.156   0.169  0.2916 -0.0782 -0.0965
18891W        W34360   9.935   5.524  13.451  0.2203 -0.1438 -0.1811
18892W        W34361  15.539  10.782  14.044 -0.0611 -0.0537 -0.1109
18893W        W34362   6.839  11.791   1.782 -0.0801 -0.0675 -0.1009
18894W        W34363  13.735   1.233   0.733 -0.1853  0.1867 -0.0022
18895W        W34364  16.160   2.738   4.878 -0.1268  0.1997  0.1557
18896W        W34365  14.922   1.696  10.658 -0.4006 -0.2234  0.1121
18897W        W34366  17.878  12.423  12.253 -0.0149  0.1409  0.1110
18898W        W34367  12.141  15.479   0.526  0.2942 -0.3067  0.2338
18899W        W34368   3.776  10.151  14.492  0.3452  0.0631 -0.0292
18900W        W34369  18.433  16.638  12.531  0.1741  0.0891 -0.2421
18901W        W34370  15.004   7.967   5.680 -0.0056  0.1218  0.2652
18902W        W34371   3.733  13.020  12.246  0.2116  0.4676  0.2152
18903W        W34372  10.194  16.342   4.505 -0.1629  0.0255 -0.2098
18904W        W34373   8.500  10.379   4.972 -0.0221  0.1034 -0.1336
18905W        W34374  17.700   2.761   0.542 -0.1327  0.1288 -0.0037
18906W        W34375   7.221  14.863  14.269  0.1621 -0.1332 -0.1923
18907W        W34376  18.415  13.839   4.577  0.0584 -0.1704  0.0619
18908W        W34377  16.708   2.362  13.573 -0.1920 -0.0198 -0.0829
18909W        W34378  14.532  10.157   5.389 -0.0638 -0.0370  0.3712
18910W        W34379   7.353  15.917  12.870  0.2395  0.1336  0.2870
18911W        W34380  13.796  13.579  15.017  0.1669  0.0366  0.0515
18912W        W34381   7.943   9.918   4.689  0.1876 -0.0883 -0.1347
18913W        W34382  11.685  13.650  11.162  0.3009 -0.3441 -0.0462
18914W        W34383  15.528  17.112   5.096 -0.1386  0.0329  0.3063
18915W        W34384  13.453   7.034   4.793 -0.1150 -0.1503  0.1164
18916W        W34385  16.270  14.785  15.572  0.0960 -0.1350  0.1418
18917W        W34386  14.532  15.175  15.401 -0.0528  0.2214  0.2007
18918W        W34387  15.958  11.656   2.432  0.0376  0.1087  0.2516
18919W        W34388  14.721   6.180  14.515 -0.1683  0.2844  0.1604
18920W        W34389   3.974  11.930  12.104 -0.1979 -0.1609  0.0723
18921W        W34390  18.047  15.592   3.288  0.2333 -0.0294  0.0911
18922W        W34391  16.208   7.403   1.767  0.0218  0.2580  0.0224
18923W        W34392   3.627   3.208   1.244 -0.1328 -0.3462 -0.2557
18924W        W34393  13.585  16.859  11.796  0.1152  0.2569 -0.2079
18925W        W34394   4.829   0.390   5.457 -0.4871  0.1330  0.2616
18926W        W34395   1.149   9.820  13.917 -0.1816 -0.0292 -0.0508
18927W        W34396   6.086   1.977   4.844 -0.2372 -0.0578  0.1755
18928W        W34397   4.121   6.984  15.735 -0.3283 -0.0615 -0.2948
18929W        W34398  12.195  10.431  14.323  0.2251  0.0442 -0.0040
18930W        W34399   5.674   7.692  12.618  0.2270  0.1964  0.1926
18931W        W34400   7.857   6.134  14.088 -0.1354 -0.2194  0.2829
18932W        W34401  13.131   1.969  11.404 -0.0868  0.0882 -0.2769
18933W        W34402   5.035   6.799   2.004  0.1918  0.3265  0.0407
18934W        W34403   1.718  17.828   3.434 -0.1040  0.1500  0.2542
18935W        W34404  15.511  17.265  12.735  0.1860  0.0331  0.0329
18936W        W34405   4.536  16.243   1.831  0.0954  0.0922 -0.0735
18937W        W34406   9.021   4.971   4.376  0.0655  0.0172 -0.2777
18938W        W34407  11.540   8.259  12.301  0.0727  0.0074  0.0678
18939W        W34408   1.424  11.018  15.649  0.1248 -0.0652  0.0628
18940W        W34409  17.814  11.063   1.949  0.0347  0.2065  0.2055
18941W        W34410  17.535  18.416  11.259 -0.1495 -0.0601 -0.3215
18942W        W34411   3.446   2.399   0.906 -0.1261  0.0937 -0.0762
18943W        W34412  11.531  11.186  14.029  0.2244 -0.1016  0.1108
18944W        W34413   4.692   8.307   2.584 -0.0813  0.1463  0.0674
18945W        W34414  13.215   7.621  15.570  0.0324 -0.0030 -0.5531
18946W        W34415   0.254  10.561  13.359 -0.2999 -0.1182  0.0111
18947W        W34416  14.102   9.634   3.330  0.1637 -0.2801  0.0534
18948W        W34417  14.712   3.453   4.105 -0.2652 -0.2381  0.2836
18949W        W34418   0.096   5.059  12.120 -0.0454  0.3683  0.1749
18950W        W34419  17.584   5.103  13.982  0.3399 -0.0382 -0.1876
18951W        W34420  12.504   4.150   0.299 -0.1993 -0.1325 -0.0735
18952W        W34421   6.407  12.829   2.948 -0.0421 -0.0644 -0.0390
18953W        W34422   3.739   0.353   2.305  0.0245  0.0533  0.0521
18954W        W34423  10.321   6.014  11.841 -0.0223  0.0984  0.1365
18955W        W34424  17.153  16.163  15.099 -0.2282  0.1271 -0.0001
18956W        W34425  10.846   0.045   5.572 -0.0013 -0.0104  0.2541
18957W        W34426   8.787   6.228   2.011  0.0104 -0.0093  0.0921
18958W        W34427  13.713   2.558   1.690 -0.0103 -0.1168 -0.0444
18959W        W34428   2.003  10.415   4.679 -0.1259  0.1627 -0.2428
18960W        W34429  18.416  15.899   0.600  0.1312 -0.1305 -0.2165
18961W        W34430  15.228   7.179  15.494 -0.1921  0.1229 -0.0567
18962W        W34431   9.857  13.824  15.940  0.1142  0.1543  0.4216
18963W        W34432  14.846  17.877  11.601  0.3830  0.0643 -0.0261
18964W        W34433  17.896  18.264  11.900 -0.0086  0.3190 -0.1042
18965W        W34434   6.931   9.335  15.787  0.0810  0.2409  0.1325
18966W        W34435  14.178  17.186   1.597  0.1985 -0.0599  0.0970
18967W        W34436   5.330   8.309   4.041 -0.0583 -0.0600  0.4315
18968W        W34437   8.177  13.701  12.797 -0.0838  0.1742  0.1175
18969W        W34438  10.921   5.872  15.312 -0.0141 -0.2115 -0.0994
18970W        W34439   2.453   9.550  13.167  0.0809 -0.1325 -0.0860
18971W        W34440  10.564   1.667  15.485  0.1830  0.0210  0.1753
18972W        W34441   4.554   4.763   1.736 -0.1352 -0.1083  0.2246
18973W        W34442  12.282   3.149  11.011 -0.3706 -0.1015  0.0927
18974W        W34443   4.747  18.171  11.971 -0.1661 -0.0403 -0.1875
18975W        W34444   1.916  11.223   2.092  0.0156 -0.3984  0.2436
18976W        W34445   7.542  11.900  15.446  0.1958  0.1118 -0.0353
18977W        W34446  17.570  16.029   1.828 -0.1311  0.2296 -0.0900
18978W        W34447   4.244   2.608   0.330 -0.0157 -0.0890 -0.1019
18979W        W34448  11.771   0.872  12.648  0.1577  0.1727  0.0070
18980W        W34449  12.515   1.738  15.338 -0.0924 -0.3805 -0.2167
18981W        W34450   0.895   5.247   1.204 -0.1326 -0.0459  0.2647
18982W        W34451  18.167   1.765   0.695  0.0987  0.3150 -0.0722
18983W        W34452  16.960  16.285   4.765 -0.2164  0.2060 -0.0560
18984W        W34453   5.921   2.528   1.176 -0.0857  0.1155 -0.0875
18985W        W34454   3.965  10.849   0.786 -0.0361  0.1632  0.0190
18986W        W34455  14.507  17.151  11.790 -0.1059 -0.0070 -0.3245
18987W        W34456   7.244   9.463   5.548 -0.2253 -0.0403  0.3930
18988W        W34457   4.207   3.721  12.294  0.2144 -0.0201 -0.0441
18989W        W34458  10.744   4.020  13.205  0.3141 -0.1155 -0.2275
18990W        W34459  11.497   5.875   3.144  0.0491  0.0733 -0.0289
18991W        W34460   4.292   8.750   0.756  0.1124  0.2665 -0.1183
18992W        W34461  12.163   8.114  15.190  0.1301  0.0423  0.3445
18993W        W34462  17.388  13.394  15.613 -0.0878 -0.1031 -0.1754
18994W        W34463  17.342   1.306  13.567  0.0458  0.1966  0.0901
18995W        W34464  15.433  12.878   1.244 -0.3659  0.2058 -0.2936
18996W        W34465   3.283   2.187   2.576  0.0388 -0.0366  0.1841
18997W        W34466   9.507  12.073  12.688 -0.0712 -0.0859  0.1224
18998W        W34467   1.112   5.528   5.204  0.0029 -0.2572 -0.0057
18999W        W34468  10.947   6.880   5.542  0.1142 -0.1873  0.0902
19000W        W34469   0.027   4.034  15.838  0.4251 -0.4218  0.0185
19001W        W34470  16.315  16.285  12.395  0.1912  0.1080 -0.2310
19002W        W34471   6.263   3.789  13.806  0.0804 -0.1586  0.3799
19003W        W34472  17.831   2.698   4.646 -0.2564  0.0576  0.1831
19004W        W34473   3.734  18.320  11.396 -0.3439  0.0376  0.3823
19005W        W34474   3.315  12.055   3.792 -0.0457  0.0391  0.0700
19006W        W34475  14.260  11.525   2.168  0.1804 -0.0983  0.1989
19007W        W34476   0.215   8.966  13.588 -0.0866 -0.1516  0.1400
19008W        W34477   9.035   2.914  13.942 -0.1592 -0.1177 -0.5387
19009W        W34478   8.041  15.086  11.813  0.0092  0.0541  0.1067
19010W        W34479   6.397   2.423   1.324 -0.1522 -0.1380 -0.2306
19011W        W34480   7.290  11.206  11.528 -0.1551  0.0489  0.1713
19012W        W34481  18.176   0.682   4.842 -0.0976 -0.2936  0.0823
19013W        W34482   9.046   7.463  12.956  0.2104 -0.1487 -0.4375
19014W        W34483   9.488  15.147  13.366 -0.1628  0.0628  0.0681
19015W        W34484  18.300   5.610  14.356  0.2424  0.3048 -0.0264
19016W        W34485  17.358  15.090  11.343  0.0200  0.2643 -0.0567
19017W        W34486   4.882  13.546   4.756 -0.0148  0.0170 -0.3121
19018W        W34487   8.374   3.584  10.520 -0.0105  0.1738  0.0822
19019W        W34488   4.528   9.314  12.884  0.3138 -0.2190  0.2790
19020W        W34489   3.657   1.736   2.241 -0.0005 -0.0891 -0.3965
19021W        W34490   5.215   8.700  12.753  0.0204  0.1433 -0.0675
19022W        W34491   1.722  16.355  13.344  0.1440 -0.4362 -0.4145
19023W        W34492   7.595  17.121  14.331  0.0826 -0.1588 -0.2139
19024W        W34493  15.629   6.949  13.816 -0.1006 -0.2383  0.1486
19025W        W34494   2.635   0.648  15.783 -0.2515 -0.1750  0.0846
19026W        W34495  16.074  14.818   4.775  0.0997 -0.0485  0.0570
19027W        W34496  16.262  12.031   4.503  0.1945 -0.1998 -0.1117
19028W        W34497  14.920   0.161   5.636  0.0113 -0.4481 -0.3060
19029W        W34498   3.426  10.738   0.414 -0.0194 -0.1191 -0.0584
19030W        W34499   2.799   5.312   3.412 -0.2760 -0.1861  0.0212
19031W        W34500   4.565  14.711  10.153 -0.1531 -0.1952  0.0128
19032W        W34501  12.349   4.533   3.004 -0.2734  0.0828  0.0786
19033W        W34502   6.883  11.053   1.527  0.0212  0.1313  0.1293
19034W        W34503   6.996   5.646   0.450  0.2480  0.4768 -0.0880
19035W        W34504  13.348   1.806  14.297  0.0853 -0.0178 -0.2738
19036W        W34505  12.259   4.075  15.179  0.1852 -0.2749 -0.0166
19037W        W34506   8.024  17.777  11.708  0.0848 -0.0619 -0.0832
19038W        W34507  14.343   5.027  15.121 -0.0616 -0.2355  0.0645
19039W        W34508  17.961  15.460  14.159  0.2676  0.0072  0.1757
19040W        W34509   8.571   6.140   2.491 -0.0124  0.0940  0.2248
19041W        W34510   7.030   0.779   1.050  0.2107  0.1239 -0.1086
19042W        W34511   3.758  11.121  15.817  0.1533  0.2666 -0.2554
19043W        W34512   0.699   2.063   5.398 -0.1430 -0.0106  0.1395
19044W        W34513  17.781   2.237   3.339  0.0313  0.0334  0.1428
19045W        W34514  14.319   2.667  13.916 -0.0349  0.2538  0.0704
19046W        W34515   3.323  10.577   5.482  0.1632 -0.0607  0.0222
19047W        W34516   0.169   2.565  14.764 -0.0876 -0.0550 -0.1395
19048W        W34517   2.961  10.720   1.915 -0.0423 -0.1460  0.1428
19049W        W34518  18.049   2.189  14.821 -0.0089  0.1675  0.0721
19050W        W34519  14.943  17.798  12.968  0.1289  0.0081 -0.0105
19051W        W34520   0.530  13.610  12.110 -0.1347 -0.0548 -0.0877
19052W        W34521  11.409  15.784   1.127 -0.2269 -0.0106 -0.0291
19053W        W34522  12.803  17.211  13.604  0.2535  0.1057 -0.0724
19054W        W34523   7.532   0.603   1.023 -0.3009  0.1222  0.1225
19055W        W34524   7.500   3.725   0.857  0.1345 -0.0697  0.3280
19056W        W34525  14.193   4.118   3.671  0.0230  0.3016 -0.0021
19057W        W34526  12.547   7.832   0.579 -0.1500 -0.1249  0.0638
19058W        W34527   8.447  10.242  15.628  0.2801  0.1531 -0.4094
19059W        W34528   0.665  11.450  15.339  0.1454 -0.1583  0.0149
19060W        W34529   0.137   8.150  11.907  0.1033  0.0022  0.0236
19061W        W34530  12.921  15.675   3.896  0.0940  0.0440 -0.0627
19062W        W34531   7.829  16.831   0.187  0.1660  0.2255 -0.3638
19063W        W34532   1.632   7.228   6.147  0.1471 -0.0460  0.0314
19064W        W34533  10.285  11.735  13.609  0.1033  0.2317 -0.1856
19065W        W34534   7.910  16.922  14.813 -0.1173 -0.3808 -0.0168
19066W        W34535  11.125   1.208   0.932  0.2791  0.2356 -0.0089
19067W        W34536  17.291   0.291  13.793 -0.0310 -0.2588 -0.3863
19068W        W34537   6.692  13.752   2.332  0.0597 -0.1633  0.1620
19069W        W34538  15.781  15.503  11.710  0.0214 -0.0490  0.1888
19070W        W34539   7.039  12.046   3.541  0.1869  0.0421  0.1596
19071W        W34540  10.943   7.597  11.971 -0.0757  0.2602 -0.2083
19072W        W34541   1.004   3.705  12.609  0.1560  0.0564 -0.0887
19073W        W34542   0.602  14.851   0.828 -0.1076 -0.1938  0.4220
19074W        W34543  12.030  13.484   4.183 -0.2056 -0.2904  0.0716
19075W        W34544   9.469  13.350  13.421  0.1371 -0.1101  0.0826
19076W        W34545  13.227  11.470  15.239  0.1523  0.0503 -0.2128
19077W        W34546   1.755  16.656   2.245 -0.0125 -0.4783  0.1529
19078W        W34547   9.076  14.945   3.369  0.3144 -0.2606  0.3519
19079W        W34548  16.129   9.770  12.166  0.1491 -0.4045 -0.1372
19080W        W34549   8.393  12.551  15.994  0.2882  0.0991  0.2153
19081W        W34550  16.621  11.597  12.343  0.4455 -0.0108 -0.0587
19082W        W34551   2.066  13.946   3.740 -0.0681  0.0723 -0.0504
19083W        W34552  10.657  12.630   1.945  0.0143  0.0960 -0.0891
19084W        W34553   3.694   6.175   0.684  0.0967  0.3161 -0.0466
19085W        W34554   8.630   9.714  13.423  0.1499  0.0655  0.3534
19086W        W34555  13.656   7.239   3.767  0.0664  0.2172 -0.0997
19087W        W34556  10.198   8.236   5.779  0.2208  0.1225 -0.0449
19088W        W34557   1.143  10.809  14.110  0.0249 -0.0845 -0.0259
19089W        W34558  12.260  18.436   2.083 -0.0744  0.0456  0.2219
19090W        W34559   2.392  16.143   1.072  0.2553  0.0143  0.0744
19091W        W34560  12.580   4.946  11.912 -0.0308  0.0148 -0.2526
19092W        W34561  16.881  16.219   3.291 -0.2243  0.0682  0.0787
19093W        W34562   4.556  10.996   5.356 -0.1209 -0.1686  0.0250
19094W        W34563   5.178   5.752   5.123 -0.0706  0.1646  0.1292
19095W        W34564   4.196   9.631   0.491 -0.2405 -0.0270 -0.1517
19096W        W34565   8.914  18.421  14.606 -0.0779 -0.0115 -0.3636
19097W        W34566   5.605  14.910  12.406  0.0923  0.3705 -0.1171
19098W        W34567  15.789  11.605  13.702 -0.0963  0.1347 -0.2079
19099W        W34568  10.406  12.723   3.894  0.3799  0.1504 -0.0920
19100W        W34569  16.959   5.763  14.190 -0.0287  0.0990  0.1102
19101W        W34570  15.046   9.938  12.002 -0.1496 -0.0040  0.0097
19102W        W34571   9.763   1.598   3.560 -0.2838 -0.0549  0.0919
19103W        W34572  14.857  10.863   1.867  0.2306 -0.1257 -0.2074
19104W        W34573  14.687  15.127  14.892 -0.0591  0.2035  0.1004
19105W        W34574   5.904   7.057  15.954 -0.0059 -0.0141 -0.0958
19106W        W34575  18.135  11.609   0.853  0.0169  0.0016 -0.0781
19107W        W34576  15.484  11.800   2.409 -0.0732  0.0636 -0.0051
19108W        W34577  13.452  11.195  12.728  0.1967 -0.0542 -0.0322
19109W        W34578   4.727   9.219   5.349  0.0134  0.0902  0.1554
19110W        W34579  10.882  14.935  13.294 -0.2134 -0.3079 -0.3486
19111W        W34580   6.240   9.261   4.589 -0.0766  0.4503 -0.3121
19112W        W34581   4.450   3.798   0.782  0.1192  0.0209  0.0152
19113W        W34582   0.011   3.330  12.829  0.1093 -0.4073  0.3158
19114W        W34583   9.362  14.391   2.236  0.1546 -0.2132  0.3562
19115W        W34584   7.229   5.735   4.552 -0.2154 -0.1753 -0.0527
19116W        W34585   3.271   4.191  10.941 -0.1020 -0.4073 -0.1818
19117W        W34586   6.304   3.599   5.140 -0.0323  0.1943  0.4014
19118W        W34587  13.528  13.022  11.876  0.0126  0.3369 -0.1840
19119W        W34588   3.304   1.385   4.730  0.2336  0.0043 -0.1477
19120W        W34589   5.648  16.535   2.041 -0.1759  0.1843  0.0331
19121W        W34590  13.846   8.091   0.549 -0.1167 -0.0074  0.0542
19122W        W34591  12.196  14.906  14.333  0.1802  0.3115  0.1300
19123W        W34592  11.892   9.374   5.101  0.1086  0.3181  0.3820
19124W        W34593   6.693  12.233  14.280 -0.0228  0.0725 -0.0073
19125W        W34594   5.339   7.033   3.356 -0.0179 -0.2179  0.0743
19126W        W34595  15.605  13.710  14.479  0.0936  0.2256  0.3500
19127W        W34596  16.601   7.970   6.364 -0.2184 -0.0645  0.1446
19128W        W34597   1.814   7.867   4.135  0.3089 -0.2779  0.2445
19129W        W34598  14.992   9.931  13.817 -0.2542  0.0197 -0.1139
19130W        W34599  11.980  14.633  11.309  0.0068 -0.2419  0.1026
19131W        W34600  16.593   1.413  14.080 -0.2624  0.0530  0.0224
19132W        W34601  11.287   7.979   0.353 -0.2076 -0.0425  0.0384
19133W        W34602   3.768  17.593   0.481 -0.3460 -0.1199 -0.0617
19134W        W34603   4.773  11.301  13.323 -0.5264 -0.0237  0.0881
19135W        W34604  16.744   6.471  11.625  0.1599 -0.1394 -0.1630
19136W        W34605  16.253   5.000   0.653  0.0226  0.0810  0.3768
19137W        W34606  18.050   3.149   0.786 -0.0406  0.1368  0.1108
19138W        W34607  10.639  16.642  14.884  0.0117 -0.0114 -0.1673
19139W        W34608   6.329   7.674   3.739  0.4232 -0.0905  0.1818
19140W        W34609   4.842  12.678   2.051  0.2984 -0.0422 -0.3906
19141W        W34610  17.610  17.557   4.207 -0.1608 -0.4754  0.3043
19142W        W34611   4.969  13.416  15.964 -0.4697  0.0517 -0.0191
19143W        W34612   7.088   6.109  11.367  0.0340  0.0810  0.1124
19144W        W34613  17.985   6.843   5.460  0.2361  0.1381 -0.1818
19145W        W34614  16.808  16.162  15.485 -0.0372  0.1608  0.3081
19146W        W34615   4.090  17.084  10.520 -0.1050 -0.0314  0.0576
19147W        W34616  16.647   5.621  13.789 -0.3030 -0.0903 -0.0597
19148W        W34617   0.559  14.708   3.279 -0.3332  0.1660 -0.0568
19149W        W34618  15.500   9.974  14.003 -0.0719 -0.3276  0.0988
19150W        W34619  13.334  10.375  15.813 -0.4164  0.2543  0.0408
19151W        W34620   1.289   1.708  14.279 -0.4456  0.2195  0.1824
19152W        W34621  11.716   3.210   4.355 -0.0056 -0.0448 -0.1577
19153W        W34622   6.553   5.674  14.761 -0.0610  0.0139  0.2449
19154W        W34623   7.019  10.879  15.394 -0.0629  0.3454 -0.0586
19155W        W34624  14.194   6.924  14.428 -0.1608  0.1689  0.1778
19156W        W34625  14.862   2.110  15.060  0.2802 -0.0355  0.0602
19157W        W34626   8.925  13.019   1.992 -0.1026 -0.4445 -0.0213
19158W        W34627  16.328   1.404  11.417 -0.0344  0.0378 -0.3016
19159W        W34628  17.927   2.284   1.554  0.1289 -0.1546 -0.1156
19160W        W34629   5.162  16.670  10.775 -0.0561  0.2517 -0.1265
19161W        W34630   6.708  16.425   1.067 -0.1320  0.1326  0.1141
19162W        W34631   5.505  10.002  11.590 -0.0003 -0.0317  0.0171
19163W        W34632   0.645  15.727   0.439  0.1794  0.2954 -0.0031
19164W        W34633   6.207  12.781  11.806 -0.0292 -0.2602 -0.0240
19165W        W34634  14.979  11.707   2.431  0.0050 -0.1139 -0.3236
19166W        W34635   1.030  11.392   4.883 -0.2002 -0.1728  0.1583
19167W        W34636   8.385   0.234   4.639 -0.2942 -0.3983  0.1681
19168W        W34637   8.826   2.782   2.062  0.0630 -0.0214 -0.0677
19169W        W34638   8.968  10.364   1.594  0.4592 -0.1067 -0.0344
19170W        W34639   8.635  17.891  14.577 -0.1599  0.1088  0.0811
19171W        W34640  17.355   8.095  12.281  0.1647 -0.0008  0.2769
19172W        W34641  11.973  10.587   1.095  0.2078 -0.2014  0.3469
19173W        W34642   2.054  12.372  13.113 -0.0662 -0.1936  0.1067
19174W        W34643  17.753   5.964  12.298 -0.0791  0.1827 -0.0923
19175W        W34644  15.468  17.123   0.197 -0.0183  0.1701 -0.0514
19176W        W34645  11.267  17.637   3.036 -0.1039 -0.5019  0.2183
19177W        W34646   5.633  11.579  13.580 -0.1783  0.1211  0.0302
19178W        W34647  10.261   5.402   0.757  0.2031 -0.1227 -0.2033
19179W        W34648  12.708  17.413   4.549  0.0048  0.3647  0.2080
19180W        W34649  12.386  10.486  13.152  0.0695  0.2533 -0.0060
19181W        W34650  15.836  11.454   0.732 -0.3515  0.0928  0.1882
19182W        W34651   1.666  12.857  14.206  0.5339  0.1816 -0.2193
19183W        W34652   9.422  15.610  14.869 -0.0562  0.2240 -0.0993
19184W        W34653  17.216  13.733  13.309  0.1971 -0.2303 -0.1359
19185W        W34654   5.513   0.939  16.001 -0.2896  0.1101  0.0672
19186W        W34655  12.162   1.182  11.652 -0.0278  0.1683 -0.0269
19187W        W34656   3.612  12.771  12.777 -0.0208 -0.3827 -0.0316
19188W        W34657  15.244   6.260  11.842 -0.0503  0.3028 -0.0760
19189W        W34658   5.466  14.968   4.121 -0.1539  0.3665  0.2798
19190W        W34659   3.667   8.731   3.288 -0.2955  0.0839  0.0093
19191W        W34660   4.048   0.874   0.440  0.2803 -0.0961  0.0195
19192W        W34661  17.766  14.521  13.658  0.3515  0.1813 -0.5175
19193W        W34662  13.061   5.440  12.626  0.1456  0.1743 -0.0201
19194W        W34663   2.881   6.175  15.398  0.1103  0.2335  0.0251
19195W        W34664   7.938   3.945   0.804  0.0754 -0.2982 -0.0946
19196W        W34665   6.141  16.692   5.618 -0.6330  0.3130 -0.0134
19197W        W34666  17.031   5.206   5.407 -0.1108  0.2672  0.3032
19198W        W34667  10.023   0.226  15.145  0.0806 -0.0931 -0.1515
19199W        W34668  16.677   6.714  11.106  0.0467  0.1170  0.3626
19200W        W34669   9.176   7.595   1.891  0.1160  0.2590  0.0039
19201W        W34670  15.617  11.755  13.193 -0.2789 -0.1625 -0.1065
19202W        W34671  11.294   9.500  14.051  0.2173  0.1774  0.2055
19203W        W34672   9.164   9.630   2.987 -0.2060 -0.0375  0.3310
19204W        W34673  10.948   2.547   4.264 -0.2347  0.0277 -0.1402
19205W        W34674  16.980  16.596   2.424  0.0479 -0.0103 -0.2266
19206W        W34675  15.251  16.754   4.813  0.2380 -0.2165 -0.0964
19207W        W34676  17.206   7.409   2.089 -0.1123  0.2528  0.3100
19208W        W34677   4.611   4.982  14.085 -0.0534 -0.1274 -0.0180
19209W        W34678  17.805  13.154   5.748  0.0012 -0.1415 -0.1656
19210W        W34679  17.767  10.941  14.125 -0.1381  0.1972  0.1845
19211W        W34680   4.645   8.264  11.391 -0.0731 -0.0894  0.1209
19212W        W34681   0.107  10.420   0.346  0.2765 -0.1832  0.0956
19213W        W34682  16.201   9.806  10.796  0.1396  0.0169 -0.1740
19214W        W34683  12.232  11.475  11.193 -0.2162  0.2455  0.2509
19215W        W34684  16.894  10.165   4.592 -0.0866 -0.0186  0.0534
19216W        W34685   3.057   9.354   5.945 -0.1506  0.2864  0.2920
19217W        W34686   6.975   0.870   2.968  0.1221 -0.2503 -0.1327
19218W        W34687  10.223   6.669  11.054  0.3014 -0.0622  0.0928
19219W        W34688  15.703   9.890  11.506  0.1232  0.0156  0.2360
19220W        W34689   1.477  17.312  12.735  0.2992  0.2415  0.0344
19221W        W34690   3.588  14.352   3.211 -0.1525 -0.0797  0.2673
19222W        W34691   9.420  13.901  11.375 -0.0764 -0.2310 -0.0712
19223W        W34692   7.958   6.548  12.859 -0.1151  0.2465  0.0295
19224W        W34693  18.427   8.558   3.812  0.0153 -0.1874  0.2950
19225W        W34694   6.600   4.276  11.039 -0.0733 -0.2133 -0.2853
19226W        W34695  12.627   2.069  14.930  0.2125 -0.3021  0.1253
19227W        W34696   7.484   0.679   2.316 -0.1566  0.2183  0.2382
19228W        W34697   7.869  14.836  12.406  0.1946 -0.3111  0.0902
19229W        W34698  14.544   2.156  14.680 -0.1334 -0.3232 -0.4149
19230W        W34699  10.049  14.405  11.156  0.0198  0.0890 -0.2136
19231W        W34700  15.465  10.703  12.234  0.1662  0.1049 -0.0343
19232W        W34701   5.660   1.939  11.095  0.1080  0.1529 -0.5196
19233W        W34702  12.671  18.162   3.935 -0.1049  0.1445  0.3298
19234W        W34703   7.188   3.748   2.663  0.2925 -0.0370  0.0468
19235W        W34704   7.590   2.508  14.951 -0.1631 -0.1815 -0.0852
19236W        W34705   7.864   2.382  16.019  0.0485 -0.2760  0.1669
19237W        W34706   9.777   7.935  12.476  0.0573  0.0538  0.1612
19238W        W34707  17.025  15.601   2.186  0.1124 -0.2013 -0.0166
19239W        W34708  12.206  10.057  11.799  0.3675 -0.2548 -0.1441
19240W        W34709  13.234  10.028   0.184 -0.0317 -0.2305 -0.0975
19241W        W34710   8.166  12.362   5.328 -0.0469 -0.1512  0.3105
19242W        W34711  14.630   0.605  12.267  0.0950  0.2756  0.2279
19243W        W34712   9.229  15.023   0.811  0.1276 -0.2128  0.1051
19244W        W34713   8.470   8.921  13.933  0.0786  0.1169  0.0819
19245W        W34714  14.185  14.475   4.342 -0.0726 -0.0967 -0.1835
19246W        W34715  11.811  11.629  13.805  0.4415 -0.0066  0.4235
19247W        W34716  16.989   8.196   0.792  0.0918 -0.2513 -0.0129
19248W        W34717  12.838   7.673  13.681 -0.0198  0.1783  0.2047
19249W        W34718  13.064   4.531   5.616 -0.1633 -0.0095 -0.0786
19250W        W34719  18.060  10.193   4.704  0.3435 -0.1962  0.0443
19251W        W34720   2.123  10.203   3.501 -0.1816  0.3204  0.0036
19252W        W34721   1.126   1.623   4.629  0.0063 -0.0359 -0.0235
19253W        W34722  10.973   4.454  15.710 -0.0585 -0.0419  0.0592
19254W        W34723   3.979  13.763  11.707 -0.0718 -0.1982  0.0295
19255W        W34724  11.900   6.188  15.218  0.3123  0.0808 -0.3629
19256W        W34725   1.587   0.199   4.513 -0.0591  0.1854 -0.0070
19257W        W34726  11.323  13.563   2.795  0.2391  0.1419 -0.1076
19258W        W34727   4.440   7.253   1.282  0.0514  0.2219 -0.1017
19259W        W34728  15.452  12.763  14.187  0.1225 -0.0544  0.1425
19260W        W34729   5.893  13.089   4.398  0.5122 -0.0876 -0.2014
19261W        W34730  16.803   8.647   0.552  0.3621 -0.1369  0.0365
19262W        W34731  11.556  11.016  14.491 -0.0882  0.3918 -0.2698
19263W        W34732  18.274  17.411  15.913 -0.0266 -0.2852 -0.0659
19264W        W34733   7.098   2.670   2.628  0.3623  0.2091  0.1981
19265W        W34734   1.616   7.361  14.146  0.0024  0.0588  0.2480
19266W        W34735  15.199   7.610   3.455  0.2079  0.0638 -0.1441
19267W        W34736  12.264  13.547   2.883 -0.2718 -0.1004 -0.0975
19268W        W34737   9.280   2.945   2.103  0.1606  0.1269  0.0135
19269W        W34738   2.661  16.268  15.450 -0.0675  0.1672  0.0635
19270W        W34739   0.905   2.538  14.035  0.2433  0.0581  0.3704
19271W        W34740  17.139   2.788   0.137 -0.0448  0.1331  0.0574
19272W        W34741  11.398  13.090   3.051  0.0800 -0.1348 -0.0419
19273W        W34742  15.846   4.050   0.754  0.0676 -0.2682  0.2272
19274W        W34743  10.523  15.801  13.703  0.2339  0.3001 -0.0654
19275W        W34744  17.550  16.888  14.934  0.0134 -0.1261  0.0753
19276W        W34745   0.213  14.289  11.058  0.3517 -0.1011  0.1054
19277W        W34746   0.070   3.537  15.568  0.0591 -0.0499 -0.2528
19278W        W34747  15.270   8.385  12.835 -0.2850  0.0632 -0.0196
19279W        W34748  12.899   2.176  14.191 -0.0695  0.1849 -0.3637
19280W        W34749  17.758  13.948  13.067  0.2070 -0.2806 -0.1304
19281W        W34750  18.449  14.109   0.173 -0.0449  0.4224  0.0363
19282W        W34751   3.267   8.920   5.073 -0.0146  0.1925 -0.0396
19283W        W34752   0.575   8.173   0.219  0.1175 -0.4563 -0.1355
19284W        W34753  15.561   2.348  15.251 -0.1781 -0.1984 -0.1387
19285W        W34754   3.683   7.668   5.675  0.2668 -0.0514  0.1683
19286W        W34755   1.753   7.722   2.654 -0.0051 -0.0681 -0.0795
19287W        W34756  15.973   4.524  13.485  0.4142  0.2142  0.0373
19288W        W34757  11.083   3.073   6.240 -0.0053 -0.0834 -0.1682
19289W        W34758   1.214  15.058   2.639 -0.0072  0.3757 -0.0626
19290W        W34759   9.540   2.952   3.515  0.4837 -0.2202 -0.1544
19291W        W34760   2.229  12.732   2.885  0.1049  0.3672 -0.0258
19292W        W34761   9.796  11.516   2.256 -0.1685 -0.0909  0.0815
19293W        W34762  17.142   3.912  12.477  0.0808  0.1874  0.0904
19294W        W34763   1.409   5.476  14.135  0.0472  0.0925  0.0654
19295W        W34764   9.949   1.467   5.358  0.2063 -0.0026 -0.1990
19296W        W34765  17.957   1.531  11.909 -0.3763 -0.0974  0.2379
19297W        W34766  11.583  16.403  15.027 -0.0311 -0.2444  0.1412
19298W        W34767   8.391   5.576   0.411 -0.3706 -0.1776 -0.0210
19299W        W34768   2.951   7.667   3.516 -0.2790 -0.0129  0.1551
19300W        W34769   3.864  11.842   3.971  0.0773 -0.0850 -0.0664
19301W        W34770   5.880   0.030   1.448 -0.0008 -0.2458  0.2266
19302W        W34771   7.488   4.070   2.235  0.0137  0.2496 -0.0851
19303W        W34772  18.245  14.647  14.171 -0.3611  0.1083  0.1956
19304W        W34773   5.299   7.956   4.645 -0.2915  0.0503  0.1313
19305W        W34774  10.849  11.167   4.576  0.0052 -0.0183 -0.0482
19306W        W34775  16.445   7.913   4.437 -0.1740 -0.0442 -0.0637
19307W        W34776   6.102  16.994  10.731 -0.2138 -0.2789  0.2273
19308W        W34777   2.438   5.746   4.457 -0.1559 -0.3434 -0.2624
19309W        W34778  15.626  14.671   4.381 -0.0950 -0.3070  0.1654
19310W        W34779   6.805   3.671   4.483  0.4379 -0.1195  0.1305
19311W        W34780  14.807   6.954  13.919  0.1542  0.1853 -0.2994
19312W        W34781   7.411   3.174   2.479  0.0933  0.3225 -0.3359
19313W        W34782   8.016   2.336   2.953 -0.4010 -0.1360 -0.1825
19314W        W34783  14.505  13.984  12.939 -0.1201 -0.3742 -0.1892
19315W        W34784   3.448   6.394  13.387  0.2593 -0.2114  0.0329
19316W        W34785  11.581   0.789  13.664  0.1555 -0.2628  0.0068
19317W        W34786   5.225   5.424  15.512  0.0371 -0.0193 -0.0968
19318W        W34787  16.227  16.577   2.182 -0.0873  0.0962 -0.0841
19319W        W34788  10.620   0.991  12.774  0.1176 -0.0238 -0.0800
19320W        W34789   4.275  15.083   2.740  0.0936  0.0120  0.0396
19321W        W34790   1.075   1.161   3.237 -0.2117  0.1029 -0.1752
19322W        W34791   0.663  15.053  12.155  0.0780  0.0241 -0.0442
19323W        W34792   8.386  13.827  13.240 -0.1005 -0.1510  0.3011
19324W        W34793   2.756   3.759   4.934  0.2394  0.0748 -0.5044
19325W        W34794   5.456   5.155   0.537 -0.0625  0.0048 -0.2665
19326W        W34795   8.635  13.408  12.777  0.4596  0.1262 -0.0133
19327W        W34796   4.768   5.424  14.205 -0.0598 -0.2788 -0.1677
19328W        W34797   9.026  12.207  12.841 -0.0116  0.1133 -0.1467
19329W        W34798  14.103  17.816  13.366 -0.2715  0.1759 -0.4829
19330W        W34799  15.982   8.954   2.119 -0.4077  0.2051 -0.0831
19331W        W34800   9.450  14.003  15.064  0.0494 -0.2626  0.0397
19332W        W34801  14.548   0.984  11.227 -0.1155 -0.3367  0.0179
19333W        W34802   1.695   2.867  12.658  0.3633 -0.0096  0.0633
19334W        W34803   4.895  11.292   1.822  0.0565 -0.1349 -0.3477
19335W        W34804   1.549  18.213   4.310  0.1850 -0.0145 -0.1664
19336W        W34805  17.890  15.518  12.015  0.0533 -0.1760  0.3193
19337W        W34806   8.881   2.966   1.115  0.2346 -0.1647 -0.0470
19338W        W34807   0.084  11.928  12.296 -0.4206 -0.0461 -0.2734
19339W        W34808   0.546   2.332   6.062  0.1670 -0.2171 -0.1047
19340W        W34809  17.652  10.756   0.570  0.0734  0.2450 -0.0839
19341W        W34810   3.467  17.268  13.793 -0.0064 -0.2568  0.0870
19342W        W34811  16.511   9.113   5.218 -0.0207 -0.1975  0.1260
19343W        W34812   4.219  13.141   2.232  0.1508  0.0403 -0.1916
19344W        W34813   9.303   7.520  14.306  0.0512  0.1031  0.0926
19345W        W34814   2.409  10.752  13.690  0.3575  0.1711  0.3552
19346W        W34815   6.397  15.755   1.972 -0.2127  0.1289  0.0861
19347W        W34816   7.984   8.812  14.391  0.0932  0.4087 -0.1609
19348W        W34817  11.068   7.486  11.407 -0.2757  0.0624 -0.3018
19349W        W34818  14.286   3.786  12.982  0.0179  0.2558  0.2086
19350W        W34819   3.461  14.285  12.485  0.1280 -0.0720 -0.2543
19351W        W34820   5.045  15.339   1.607  0.1798 -0.1106 -0.0058
19352W        W34821   9.130   7.457   3.619 -0.1683 -0.1339  0.0575
19353W        W34822   5.413  16.500  14.610 -0.3308  0.0195  0.0964
19354W        W34823   0.488   0.899   0.358 -0.1096  0.1715  0.0468
19355W        W34824  10.143   7.756   3.560 -0.2061  0.1103  0.2182
19356W        W34825   9.336  12.617  13.014  0.2054 -0.2647  0.0105
19357W        W34826  16.128  11.257   2.065  0.0627 -0.0977 -0.1021
19358W        W34827  14.048  12.438  11.072  0.0760  0.0344 -0.1140
19359W        W34828   0.861  14.300   1.466  0.1388  0.1122 -0.0712
19360W        W34829   1.251   0.552  12.153 -0.0654  0.0785  0.0919
19361W        W34830   1.675   2.073  12.033 -0.1436 -0.1829 -0.0265
19362W        W34831   1.724  14.376   2.826  0.0475  0.3687  0.1131
19363W        W34832  16.371   1.892  11.396  0.1945  0.0372 -0.2113
19364W        W34833   9.487   3.132   0.408 -0.3752  0.1914 -0.2241
19365W        W34834  15.639   6.092   1.670  0.2896 -0.1357 -0.1080
19366W        W34835  17.852   0.764  12.684 -0.0213  0.0367  0.2133
19367W        W34836  14.136   7.570  13.482 -0.1452 -0.2193 -0.2372
19368W        W34837  12.832   5.413   0.390  0.1448  0.1324 -0.2088
19369W        W34838   7.373  17.163   9.565 -0.2100 -0.1035  0.0596
19370W        W34839  15.343   5.660  14.454 -0.0556 -0.1725 -0.1732
19371W        W34840  12.574  17.324   0.768 -0.0623 -0.0234 -0.1375
19372W        W34841   2.536   1.744   3.389  0.1288 -0.0022 -0.0751
19373W        W34842   2.153  16.165   4.719 -0.0360  0.3579  0.1119
19374W        W34843   6.052   4.717   4.737 -0.0882  0.4473 -0.1184
19375W        W34844  10.551  15.172   5.155 -0.0326 -0.0507  0.0836
19376W        W34845   9.103  12.050  12.059  0.0343  0.0894 -0.1186
19377W        W34846  11.705  10.723   4.555 -0.3464  0.0059 -0.1540
19378W        W34847  10.169   6.652  11.947  0.0588  0.0463  0.0968
19379W        W34848   5.702   0.963  14.010 -0.2294  0.1247 -0.1596
19380W        W34849   2.867   6.973   4.546  0.3559  0.1623  0.0451
19381W        W34850  12.902   9.815  15.901  0.3254  0.2555  0.1738
19382W        W34851   3.217   8.584   3.443  0.0318 -0.0179  0.2603
19383W        W34852   2.403  15.084  13.498 -0.0026 -0.0083 -0.2158
19384W        W34853  11.522  12.587  15.132  0.0272  0.0925 -0.1871
19385W        W34854   5.003  13.425   5.276  0.2371 -0.2798 -0.3345
19386W        W34855   1.237   4.180   3.234 -0.0654 -0.1042 -0.0351
19387W        W34856  13.864  12.575  10.607 -0.1853 -0.0219  0.0172
19388W        W34857  18.102   8.189  10.395  0.0511 -0.0484 -0.1121
19389W        W34858  14.877  13.682  13.275  0.0696  0.1899 -0.2657
19390W        W34859   3.183  13.930  12.221  0.3370 -0.0441  0.4908
19391W        W34860   2.349   4.997   0.347  0.1937 -0.3985  0.4649
19392W        W34861   4.321  14.320   4.405  0.0751 -0.0015 -0.1941
19393W        W34862   9.209  12.356   3.779 -0.0533  0.2202 -0.0450
19394W        W34863   8.244  11.926  14.150 -0.0571 -0.0969 -0.1890
19395W        W34864   3.249  17.728   5.437  0.0594  0.0411 -0.1288
19396W        W34865   8.333   5.954  15.477  0.0817 -0.0154 -0.2297
19397W        W34866   8.147  11.535   0.342 -0.0790 -0.3217 -0.1751
19398W        W34867   2.851   6.032   4.631 -0.2402  0.5588  0.1199
19399W        W34868   2.928   9.208  13.268 -0.0045  0.0436 -0.2729
19400W        W34869   2.708  17.405   2.922 -0.2066  0.2631 -0.0478
19401W        W34870   1.754   2.815   2.797  0.2790 -0.1385 -0.1973
19402W        W34871  16.857   8.056  15.599  0.0311  0.1389  0.1014
19403W        W34872   2.485  18.032  15.737  0.0716  0.0065 -0.0141
19404W        W34873   5.643  14.471   1.336 -0.0034 -0.0868 -0.2546
19405W        W34874  10.514  17.468  13.162  0.1200 -0.0093 -0.1232
19406W        W34875   9.319   8.792  11.220 -0.1741  0.2084  0.0791
19407W        W34876   9.985   2.360  11.808  0.0570  0.0497 -0.0751
19408W        W34877   5.582   0.070   4.942 -0.2106 -0.0686 -0.1280
19409W        W34878   0.792  16.259   2.135  0.0366 -0.1669  0.0874
19410W        W34879  12.501   7.763  11.070 -0.1269  0.2539 -0.0873
19411W        W34880   6.609   3.488   3.856 -0.2427 -0.1310 -0.0150
19412W        W34881   5.399   9.378  11.630  0.1231  0.0308  0.2268
19413W        W34882  16.107  14.233  13.191 -0.0912 -0.0690 -0.0458
19414W        W34883   4.283  12.188  15.014  0.0730 -0.3523 -0.2804
19415W        W34884   7.299  14.431  10.767  0.1242  0.2385  0.0786
19416W        W34885   1.812   4.085   1.703 -0.0169  0.1410  0.0119
19417W        W34886   5.690  17.215   0.285  0.2854  0.2055 -0.0345
19418W        W34887   7.047  10.297   5.030  0.2467 -0.0229 -0.0013
19419W        W34888  15.427  14.300   4.077 -0.0935 -0.3225 -0.2247
19420W        W34889  16.082  14.774  12.506 -0.1013 -0.2677  0.2712
19421W        W34890  17.354  11.953  10.458  0.1623  0.0058 -0.3086
19422W        W34891  16.146  12.446   1.572  0.1684  0.2236 -0.1784
19423W        W34892   2.982   3.069  11.473 -0.2065  0.1910  0.1524
19424W        W34893  10.618   4.240  10.952 -0.0612 -0.2201 -0.4022
19425W        W34894   7.076  13.493  10.775  0.1332 -0.2692 -0.0836
19426W        W34895   1.875   9.829   1.818  0.2121  0.0374 -0.2344
19427W        W34896   7.443  17.517   3.351 -0.0431 -0.1663  0.0829
19428W        W34897  13.128   7.993  14.569  0.2126 -0.2180 -0.0167
19429W        W34898   8.796  11.633   3.651  0.0008  0.1004 -0.2563
19430W        W34899  17.848  17.155   1.550 -0.2900 -0.2910 -0.0036
19431W        W34900  16.720   3.388  13.246  0.0466 -0.0952  0.1393
19432W        W34901   8.430   2.445  12.099 -0.1112 -0.0244  0.2275
19433W        W34902  12.620  11.634   2.385  0.1122  0.3067 -0.2026
19434W        W34903   2.955   8.245  13.537 -0.0811  0.1808 -0.0160
19435W        W34904  12.217   5.772  15.686 -0.2376 -0.0452  0.0829
19436W        W34905   1.570  10.088  13.926 -0.1846 -0.0037  0.0130
19437W        W34906  17.076   2.763   2.178  0.1328 -0.0924 -0.1465
19438W        W34907  16.604  14.731   0.325  0.3656 -0.0830 -0.0204
19439W        W34908  10.615   5.493  12.213 -0.0534 -0.0406  0.1393
19440W        W34909   4.103   2.024  12.994  0.4006  0.0033  0.1190
19441W        W34910   2.372   5.112   5.860 -0.1599  0.2055  0.0195
19442W        W34911  14.509  18.066   3.773 -0.1644  0.0064  0.1805
19443W        W34912  13.159   7.103  10.067  0.0197  0.4633  0.1095
19444W        W34913   0.660   7.219  12.990 -0.0200  0.1909  0.0538
19445W        W34914  14.419  17.860  15.812  0.2360  0.0269  0.1203
19446W        W34915   7.280   0.541   1.517 -0.0613  0.0841 -0.0218
19447W        W34916  15.750   1.476   0.618 -0.0107 -0.1395 -0.0089
19448W        W34917  17.796   4.401  14.604  0.0738 -0.1074  0.1493
19449W        W34918   9.386  13.523   1.289 -0.1815  0.1446  0.0186
19450W        W34919   8.272   0.687  12.306 -0.3513 -0.0939 -0.1427
19451W        W34920   1.809  17.783  14.211  0.0001 -0.2794  0.1644
19452W        W34921   6.942   0.823   2.374  0.0661  0.5234 -0.3352
19453W        W34922   4.969   9.397   0.891  0.2187  0.1443 -0.0376
19454W        W34923  14.375  16.590   4.093 -0.2582  0.1836  0.1455
19455W        W34924   3.364  16.640   2.976  0.3150 -0.0982  0.2589
19456W        W34925  14.460  18.419  14.714 -0.0810  0.0210 -0.0756
19457W        W34926  14.099  12.249   3.814  0.0117 -0.1354  0.2303
19458W        W34927  13.935   6.342   2.709 -0.1051 -0.0809  0.0241
19459W        W34928  15.862  12.513  13.049 -0.3447 -0.1298  0.2339
19460W        W34929  16.887   4.855   3.838  0.1405 -0.0704  0.0403
19461W        W34930  15.093   8.725   4.124  0.2658  0.0743 -0.2340
19462W        W34931   7.176  16.355  10.611  0.0874 -0.0852  0.0219
19463W        W34932   2.636   3.700   1.576 -0.3312 -0.2606 -0.0756
19464W        W34933   1.955  13.430   4.167 -0.1159 -0.0521 -0.1746
19465W        W34934  17.688   0.770   2.270  0.0731 -0.0777  0.2703
19466W        W34935  10.136   8.003   0.266 -0.0072 -0.1282  0.0999
19467W        W34936   7.124   6.371   3.641 -0.2579 -0.1588 -0.0260
19468W        W34937  14.269  14.182   3.930 -0.0619 -0.3537  0.1894
19469W        W34938  17.599  12.728  13.245  0.2585  0.0921  0.3217
19470W        W34939  10.375  14.293   4.716  0.0352 -0.2192  0.0284
19471W        W34940  16.291   4.262   3.362 -0.0539 -0.1503 -0.0578
19472W        W34941   6.090   6.007   0.779 -0.1260  0.2091  0.1590
19473W        W34942  11.169   5.206  16.002  0.1399 -0.0219  0.0116
19474W        W34943   9.077   2.595  15.247  0.3189  0.0286 -0.0332
19475W        W34944   7.219  11.597  13.019  0.4315 -0.0640  0.0615
19476W        W34945  11.314  18.283   4.383  0.3038 -0.1407 -0.3586
19477W        W34946   4.569  12.072   1.433 -0.0081  0.2287  0.0852
19478W        W34947  14.269   6.493   0.398  0.0808  0.0375  0.0259
19479W        W34948   9.352   9.192   2.673 -0.1914 -0.3365 -0.2328
19480W        W34949  15.243  12.305  11.190  0.0945  0.4392  0.2119
19481W        W34950   7.004   6.415  12.701  0.1449 -0.0557  0.0266
19482W        W34951   8.135   9.839  15.650 -0.2258  0.2339  0.3179
19483W        W34952  13.579   7.273  12.740 -0.0133  0.2571  0.1277
19484W        W34953  18.421   4.300   3.647 -0.2706 -0.0401 -0.2735
19485W        W34954   6.872  10.175   2.484  0.2019  0.1423  0.1579
19486W        W34955  16.365  17.272  13.248  0.0541 -0.1264 -0.3364
19487W        W34956   2.453   8.791   5.462 -0.2052  0.1281 -0.5796
19488W        W34957   9.716  13.458  10.832  0.0843 -0.3618  0.0956
19489W        W34958   9.549   3.357   2.606  0.2940 -0.0535  0.1225
19490W        W34959   3.318  17.359  10.762  0.1560  0.2226 -0.2376
19491W        W34960  17.116  16.890  10.329 -0.0066 -0.1082  0.2311
19492W        W34961  13.586   8.486  10.996  0.1629 -0.1011 -0.0375
19493W        W34962   4.960  18.084  10.777 -0.0549  0.0604  0.9751
19494W        W34963  13.940   6.615  12.562 -0.0748  0.0141 -0.1457
19495W        W34964   3.471  13.877  14.278  0.1085 -0.1699 -0.0406
19496W        W34965   8.445   7.950   4.455  0.0339  0.0059  0.0236
19497W        W34966  18.396   8.015   2.559  0.0200 -0.0208 -0.2881
19498W        W34967  10.703   6.674   5.129  0.0856 -0.0592  0.0382
19499W        W34968  13.378   6.299   2.552  0.1680 -0.1556 -0.0586
19500W        W34969   8.224  12.041   0.621 -0.2984  0.2553  0.3464
19501W        W34970  10.076   8.882  12.326  0.2203 -0.4338 -0.0682
19502W        W34971  16.081  13.529   2.295  0.0044  0.0871  0.1601
19503W        W34972   8.594   7.350   3.737 -0.2472 -0.0721  0.0255
19504W        W34973   6.918   5.102  13.276 -0.1133  0.1591  0.0820
19505W        W34974   7.589   8.765  12.436  0.1575 -0.3300  0.1600
19506W        W34975   4.239   7.552   5.559 -0.1840 -0.0179  0.1265
19507W        W34976   3.511   3.469  13.710  0.2692  0.0496  0.2953
19508W        W34977   0.787   8.599  13.032 -0.0415 -0.0819  0.1979
19509W        W34978  15.362   4.381   4.883  0.2280 -0.0448  0.0670
19510W        W34979   0.063   3.289  15.096  0.1580  0.3818  0.1003
19511W        W34980   3.537   9.004  13.548  0.0901  0.2262  0.0791
19512W        W34981  11.160  10.157  11.369 -0.1901  0.4829 -0.0112
19513W        W34982  11.491   8.718  14.749  0.0646  0.1537 -0.0924
19514W        W34983  13.522   6.946  13.201  0.1722  0.0104  0.1373
19515W        W34984   1.076   9.065   2.267 -0.1204 -0.0574  0.0539
19516W        W34985  17.728  13.317   2.162  0.0388  0.0659 -0.0164
19517W        W34986   6.504  18.379  13.097 -0.2496 -0.1356  0.0488
19518W        W34987  10.035   9.233  13.944 -0.4116 -0.3818 -0.4037
19519W        W34988  14.996   3.261  11.929 -0.3818  0.2508 -0.1943
19520W        W34989  16.556  12.516   0.310 -0.0221  0.0653 -0.0911
19521W        W34990  12.781   9.057  12.250  0.0765  0.0943  0.2610
19522W        W34991   8.680   0.148  15.606 -0.1780  0.1236  0.3038
19523W        W34992   8.103   7.914   1.110 -0.0833  0.1102  0.0202
19524W        W34993  11.173   4.495   3.386  0.1018 -0.0112  0.1029
19525W        W34994   2.875   5.883   5.893  0.2210  0.1181  0.0319
19526W        W34995  17.048   2.350  12.435 -0.0524  0.2263 -0.0207
19527W        W34996  17.614   7.692  12.210  0.2021  0.0957 -0.0617
19528W        W34997  12.069  10.426   0.060  0.0471 -0.2137 -0.0639
19529W        W34998   4.151  10.485  15.297  0.1279  0.2045 -0.2931
19530W        W34999   1.300  14.636   2.878  0.3014 -0.0851 -0.0944
19531W        W35000   1.675   7.022   3.924  0.1367  0.2411  0.1991
19532W        W35001  10.212  12.068   1.186  0.0419  0.4476  0.0234
19533W        W35002   9.656   2.692   0.197  0.0337  0.0341  0.1616
19534W        W35003  17.219  16.139  14.555 -0.0750 -0.3639 -0.0009
19535W        W35004   4.414  10.658   2.983  0.0052  0.0975 -0.3813
19536W        W35005  17.803  17.820  12.132 -0.2055  0.1748  0.2836
19537W        W35006   3.465   3.277   4.665 -0.4641 -0.1110  0.1022
19538W        W35007  16.021   8.178   2.980  0.2931 -0.0117 -0.1960
19539W        W35008   5.594  14.736  12.932  0.3984 -0.0477 -0.0348
19540W        W35009  14.720   4.218  14.716 -0.1274 -0.0400 -0.1120
19541W        W35010   1.259   9.927   1.134 -0.1077  0.1805 -0.0534
19542W        W35011  17.810  11.906  13.167 -0.1109 -0.1046 -0.0472
19543W        W35012   4.758   1.277   4.275 -0.1920 -0.1585  0.0004
19544W        W35013   5.986  14.040   1.388  0.3109 -0.2666  0.0967
19545W        W35014   6.693   5.397   1.269 -0.1698 -0.4521 -0.2079
19546W        W35015   1.056   9.503   3.414  0.0519 -0.2694  0.5863
19547W        W35016  14.048  12.908  14.662 -0.1339 -0.0526  0.1775
19548W        W35017  10.264  13.497  11.697 -0.1810  0.0285  0.0422
19549W        W35018   4.241   0.936  10.280 -0.2718 -0.1797 -0.2734
19550W        W35019   3.717   0.734   1.396 -0.0164 -0.0345  0.1919
19551W        W35020  15.024   1.282  15.956  0.0417 -0.0789 -0.1278
19552W        W35021  15.436   9.555  14.480  0.1067 -0.1331  0.1562
19553W        W35022   3.135  18.050   3.675 -0.1853  0.0312 -0.2746
19554W        W35023   7.117  15.901   3.206  0.0145 -0.2134 -0.0780
19555W        W35024   0.798   7.154  11.146 -0.0105 -0.0307  0.1570
19556W        W35025  12.107   7.916   0.337  0.0231  0.1134  0.1659
19557W        W35026   5.644  17.002   5.462 -0.1952  0.2751  0.3163
19558W        W35027   5.750   4.249   5.505  0.3114 -0.0644  0.3570
19559W        W35028   2.241   0.125  12.090 -0.0115  0.1615 -0.0488
19560W        W35029   9.337  17.302  10.891  0.0987 -0.1665 -0.1511
19561W        W35030   9.166  18.032   0.805  0.1426  0.2102  0.0238
19562W        W35031   8.284  15.529  11.740 -0.1581 -0.1516  0.2611
19563W        W35032   4.403  11.124  10.405 -0.0563  0.0161  0.2705
19564W        W35033   2.291  13.337  14.695 -0.1293  0.2879  0.2550
19565W        W35034  15.034  14.383  13.950 -0.3037  0.1898 -0.0018
19566W        W35035  12.142   6.344   5.152  0.0533  0.0096 -0.0358
19567W        W35036   7.867  15.760  12.909  0.2661 -0.0003  0.0199
19568W        W35037   1.949  16.182  12.164 -0.0852  0.0471  0.0323
19569W        W35038  14.362  11.972  13.929  0.0046  0.1240  0.0333
19570W        W35039   2.854  11.684   3.041  0.3488  0.0106 -0.1170
19571W        W35040  16.965  14.920   4.748 -0.0998  0.1561  0.1321
19572W        W35041  12.023   1.983   1.408 -0.1987  0.1119  0.0330
19573W        W35042   2.180  14.628  14.568 -0.1089 -0.0713 -0.0428
19574W        W35043   6.091   9.327   5.429  0.3715 -0.2175  0.1068
19575W        W35044  16.602  11.358   0.761  0.0984 -0.0186  0.4557
19576W        W35045  15.687   6.913   0.358  0.0526 -0.0409  0.0970
19577W        W35046   5.117  11.434  15.105 -0.1157 -0.0842 -0.5639
19578W        W35047   6.259  15.692   0.581 -0.0689 -0.0768  0.2128
19579W        W35048  11.799  15.843   0.275  0.0792  0.0440  0.3470
19580W        W35049  12.843  13.643   0.948  0.1641  0.2115 -0.4179
19581W        W35050   3.066  18.266  12.937 -0.3166 -0.5087 -0.1558
19582W        W35051   6.093   4.474   0.304 -0.0482  0.0715  0.4040
19583W        W35052   7.970  16.809  14.326 -0.1863 -0.0401  0.1862
19584W        W35053  17.257  10.819   4.119  0.1938 -0.1608 -0.0010
19585W        W35054  11.572   5.264  11.427 -0.0076  0.1351 -0.2699
19586W        W35055   5.366  18.163  13.055 -0.0088 -0.0534  0.0766
19587W        W35056  18.362  11.347   0.481 -0.4729 -0.1421 -0.1033
19588W        W35057  12.226   2.298  11.430  0.2185 -0.0053  0.1127
19589W        W35058   4.708  11.673  13.040  0.0310 -0.0436  0.0803
19590W        W35059   2.361   1.231   2.152 -0.4072 -0.0229  0.1561
19591W        W35060  14.704   9.246  15.969 -0.3071 -0.2858  0.0304
19592W        W35061   4.589  12.855   5.548 -0.2542  0.2346 -0.0977
19593W        W35062   8.666   2.217   0.629  0.3441 -0.0987 -0.2000
19594W        W35063  13.145   0.227   3.360 -0.0692 -0.2401  0.1981
19595W        W35064  13.910   8.156  12.791  0.2469 -0.0701  0.1482
19596W        W35065  10.967  10.632  12.447 -0.0969  0.1034 -0.1504
19597W        W35066  16.205  14.477   4.320  0.2004 -0.0903 -0.0462
19598W        W35067  10.112   6.687   5.447 -0.0543 -0.0966 -0.2020
19599W        W35068  10.423   0.727  11.686  0.1693  0.1735  0.0852
19600W        W35069  10.927   8.726   0.207 -0.3258 -0.0036 -0.2039
19601W        W35070  12.391   1.900  13.348 -0.1612 -0.1790  0.4095
19602W        W35071   0.857   6.719  10.315  0.1421  0.0862  0.1240
19603W        W35072   3.188  14.685  13.768 -0.0779  0.1266 -0.0713
19604W        W35073   3.546  18.321  12.136  0.0745  0.0849 -0.2188
19605W        W35074   8.085   2.794  15.716  0.1849 -0.0522 -0.0534
19606W        W35075   9.412   1.530  11.787  0.0354  0.2741 -0.1377
19607W        W35076  11.756  14.262   5.163  0.2421  0.0393 -0.0728
19608W        W35077   5.787  11.218  13.196 -0.1934 -0.0831 -0.3220
19609W        W35078  12.080   6.118  11.202 -0.1444  0.1598  0.2530
19610W        W35079  12.544  12.531  12.203  0.1193  0.1622 -0.0086
19611W        W35080  18.066  10.596   4.259 -0.2275 -0.3815 -0.1431
19612W        W35081  16.230  16.134   1.947 -0.0446 -0.1238 -0.0319
19613W        W35082   9.773  11.539   4.089 -0.1178 -0.2171 -0.0091
19614W        W35083   0.701   1.189   0.723 -0.4326  0.1543  0.3795
19615W        W35084   7.838  15.468   3.512  0.2359 -0.4766  0.1487
19616W        W35085  12.981   0.700  11.539 -0.0083 -0.2375 -0.0759
19617W        W35086  10.435  16.832  12.649  0.0344 -0.2191  0.1290
19618W        W35087   8.349   8.493   4.596 -0.2050  0.0508  0.1228
19619W        W35088  17.438  12.784   1.546 -0.1371  0.2003  0.1048
19620W        W35089   5.017   1.243   1.370  0.1181  0.0906 -0.1883
19621W        W35090   7.713   6.983   1.780 -0.3315  0.2855 -0.0409
19622W        W35091  15.217   0.386  10.699  0.0495 -0.3798 -0.1021
19623W        W35092   4.564  12.790  15.789 -0.1044  0.2936  0.1357
19624W        W35093   0.794  11.371   3.469  0.0003  0.0633  0.2396
19625W        W35094   8.724   6.091  12.867 -0.0969  0.1941 -0.1084
19626W        W35095   5.087   5.583   4.542 -0.1596  0.1352  0.0950
19627W        W35096   9.865  16.374   2.793  0.0108  0.1208  0.0974
19628W        W35097   9.036  12.838  14.546  0.2131  0.0225 -0.1198
19629W        W35098  10.879   9.606  15.510 -0.3146  0.0688  0.1435
19630W        W35099  14.209   1.697  14.541 -0.0708  0.0349 -0.1999
19631W        W35100  14.160   4.736  14.031  0.0543 -0.3065 -0.4738
19632W        W35101   9.592   3.716  11.688  0.0946 -0.0625  0.1643
19633W        W35102   3.396  10.459   3.601  0.0663  0.2367  0.2582
19634W        W35103   4.322  10.496  12.220 -0.2145  0.0407 -0.1494
19635W        W35104  10.851   8.970  11.329  0.0887  0.0298 -0.1484
19636W        W35105   2.138   0.047   1.350  0.0170  0.0857 -0.0646
19637W        W35106   4.807  11.160   3.800  0.1185 -0.1305 -0.2083
19638W        W35107   7.856   5.499   5.921  0.3199 -0.0356 -0.0933
19639W        W35108   1.661  12.131  10.556  0.1891  0.0308  0.0360
19640W        W35109  14.316  12.447  13.089 -0.2640 -0.2473  0.1189
19641W        W35110   8.010   5.162   1.738 -0.4529  0.0684  0.0339
19642W        W35111   9.705  14.196   4.950  0.0024 -0.1139 -0.2738
19643W        W35112   5.141  10.673   3.014  0.0600 -0.1418  0.0612
19644W        W35113   6.056   2.749  15.110 -0.1435 -0.0098 -0.0438
19645W        W35114  12.416   7.044   4.634 -0.1904 -0.0184  0.0974
19646W        W35115   8.809   5.045  13.620  0.3425  0.0513  0.0726
19647W        W35116   1.955   1.797  12.334 -0.1498 -0.1394  0.1769
19648W        W35117  18.186   5.670  10.941 -0.2131  0.0181  0.0415
19649W        W35118   4.606   6.049   1.603 -0.2732 -0.1153  0.0476
19650W        W35119   4.916  14.088   4.017 -0.1120 -0.0375 -0.2538
19651W        W35120   2.734   1.871  14.003  0.1716 -0.0397 -0.1641
19652W        W35121   2.709   5.333  15.482  0.0976  0.3905 -0.2374
19653W        W35122   4.131   5.810  13.698  0.1673  0.2391  0.5756
19654W        W35123  15.235   5.075  13.693  0.1265  0.1862  0.0137
19655W        W35124  15.933   5.911  12.154 -0.2704 -0.0055 -0.1004
19656W        W35125  10.072   8.661   2.758 -0.2339 -0.1554 -0.0151
19657W        W35126  10.650   1.713   3.124 -0.0914  0.3631  0.0216
19658W        W35127   2.153  17.206   1.126  0.0477  0.3358 -0.0154
19659W        W35128  10.257   6.909   3.149  0.0084  0.2348  0.1944
19660W        W35129   3.080  15.473   1.097  0.1875 -0.4569 -0.0501
19661W        W35130   0.972  12.681  11.211  0.0193 -0.0861  0.1514
19662W        W35131   1.259   6.292  13.644  0.1151 -0.1912 -0.0504
19663W        W35132   7.625   4.714  12.362  0.0474  0.0301 -0.1707
19664W        W35133   7.405   2.292   5.048  0.0019 -0.5700 -0.1038
19665W        W35134   3.488  17.640  11.801 -0.0380  0.2276  0.2774
19666W        W35135  12.508   0.762   4.846 -0.1463 -0.1532  0.2203
19667W        W35136  11.493   7.202   1.489  0.1371  0.0350  0.2400
19668W        W35137  15.972   9.585  11.225 -0.1829  0.0387  0.3173
19669W        W35138  17.342   0.511   0.134 -0.1714  0.0109  0.1639
19670W        W35139   2.996   5.691   3.048  0.3343  0.1771 -0.0407
19671W        W35140  11.602   6.279  11.711 -0.1566 -0.0480  0.0110
19672W        W35141   6.009   3.595  12.737 -0.0157 -0.1258 -0.1078
19673W        W35142  15.443  17.119   4.147 -0.2658 -0.0931  0.2191
19674W        W35143   7.331  14.487   3.369 -0.0407  0.0297 -0.0024
19675W        W35144   1.404   3.327   4.946 -0.2334 -0.2405 -0.1832
19676W        W35145  12.922  12.616  12.516  0.0328  0.1253  0.0379
19677W        W35146   5.733  17.464   1.088 -0.2603 -0.0930 -0.2983
19678W        W35147  18.007   5.263  14.744 -0.1813 -0.2185 -0.2530
19679W        W35148   5.725  10.952   3.479  0.3617  0.2133 -0.2483
19680W        W35149   9.931   3.207  14.275 -0.1651  0.1703  0.1372
19681W        W35150  16.978   6.127   6.182  0.2648 -0.0609  0.0917
19682W        W35151   4.129   3.048   0.628  0.3978  0.1203  0.2063
19683W        W35152   1.397   6.301   4.554 -0.1002 -0.1224 -0.1058
19684W        W35153   5.073   8.679  13.777 -0.1301 -0.4576 -0.0333
19685W        W35154   9.157   8.426  14.676 -0.1630 -0.2443  0.0848
19686W        W35155   4.518  15.342  15.114  0.0140 -0.3010 -0.3271
19687W        W35156   8.832   0.856   3.826 -0.0990  0.1054  0.0355
19688W        W35157   8.338   9.242   0.812  0.0691 -0.2161  0.2415
19689W        W35158  16.203  15.823  12.547 -0.0396  0.1826 -0.0017
19690W        W35159   4.961   6.325  14.306  0.1400 -0.1028 -0.0820
19691W        W35160   6.983   8.147  15.000  0.1637 -0.1587 -0.2806
19692W        W35161  11.420  16.783   1.115  0.1206 -0.0173  0.0351
19693W        W35162   3.744  14.699  14.768  0.3010  0.1501  0.1977
19694W        W35163  12.649   3.861   1.041  0.1027  0.3180 -0.1246
19695W        W35164   7.741   9.488   3.490 -0.0218  0.2156  0.0664
19696W        W35165   2.183   7.405  14.594 -0.0180 -0.1252 -0.3079
19697W        W35166  11.696  16.789   3.518  0.1945 -0.0039  0.0045
19698W        W35167   9.797   5.179  12.245  0.0784  0.0548 -0.0571
19699W        W35168   6.323   6.747   0.048 -0.0363  0.1141  0.3677
19700W        W35169   5.524   2.961  11.520 -0.0451 -0.5063  0.2239
19701W        W35170  13.238   3.857  14.603 -0.1083  0.0371  0.1358
19702W        W35171   6.417   9.640  14.007 -0.0262 -0.0902 -0.1421
19703W        W35172   0.434  15.202  12.635  0.1042  0.0452  0.1001
19704W        W35173   9.895  17.025   3.485 -0.2215  0.1507 -0.1378
19705W        W35174  15.246   8.488  13.955 -0.0781 -0.3422  0.0176
19706W        W35175   3.187  17.835  13.072 -0.1700 -0.0015 -0.2418
19707W        W35176   8.898   4.764   3.450  0.0892  0.0622  0.4574
19708W        W35177  13.109   5.946   1.783 -0.1934  0.0908  0.2048
19709W        W35178   9.441   5.726   3.545  0.1175 -0.0285  0.2607
19710W        W35179  11.105  10.047  10.663  0.3877 -0.2762  0.3565
19711W        W35180  17.869  13.681  13.687 -0.3769 -0.0700  0.1550
19712W        W35181   4.444  18.060   4.359  0.0918 -0.1927 -0.1633
19713W        W35182   5.286  18.109  15.219  0.3388  0.2315  0.1165
19714W        W35183   3.416   5.997  14.176 -0.0897  0.1189 -0.1933
19715W        W35184   3.955   6.418   2.262  0.0409  0.1862  0.2210
19716W        W35185   0.477  16.009  11.238 -0.2752  0.1404  0.0066
19717W        W35186  15.088  10.094   1.618 -0.3599  0.2901 -0.0439
19718W        W35187   6.065   5.602  12.753 -0.3310 -0.1660  0.1635
19719W        W35188  15.494   0.401  11.944 -0.0464  0.0048  0.1340
19720W        W35189   2.125  10.877  13.009 -0.0514 -0.1921 -0.1468
19721W        W35190  15.839   7.105  10.304  0.0487 -0.0454  0.1140
19722W        W35191   0.132  15.964  14.947  0.1513  0.2022 -0.0908
19723W        W35192   5.405   2.852  15.912  0.0291  0.2374  0.2198
19724W        W35193  13.386  12.730  12.716  0.0162  0.4869  0.1847
19725W        W35194   0.106  14.680   3.565  0.1158  0.1790 -0.0060
19726W        W35195  11.386   6.611  15.800  0.2348  0.1653 -0.4861
19727W        W35196   5.009   9.242  11.934 -0.0886  0.1285  0.2188
19728W        W35197   2.338   2.777  15.467  0.2832 -0.3072  0.1922
19729W        W35198   7.903  14.782  10.489  0.1116 -0.0183 -0.0898
19730W        W35199  17.815  16.518   5.050  0.1554  0.0868  0.0837
19731W        W35200   2.229  16.663   1.059 -0.2571  0.2391  0.1879
19732W        W35201   1.523  15.788   2.578  0.1368  0.3436 -0.4934
19733W        W35202  16.054   7.011  15.995 -0.2295 -0.1418  0.2837
19734W        W35203   2.593  13.731  14.831 -0.1874  0.1906  0.1769
19735W        W35204   2.973   0.366   3.322  0.0219  0.1915  0.0664
19736W        W35205  17.779  14.143   3.957 -0.0914  0.1568  0.1319
19737W        W35206  14.273  13.378  11.595  0.1100 -0.1927 -0.0546
19738W        W35207  12.348   1.048  13.504 -0.3161  0.1169  0.0798
19739W        W35208  13.465   9.903  11.140 -0.1180  0.0682  0.0105
19740W        W35209  17.709   5.459  13.068 -0.0563  0.0520  0.2006
19741W        W35210  17.449   2.180  14.125  0.3017  0.0788 -0.4086
19742W        W35211   6.281  17.919  12.024 -0.2162 -0.0774 -0.0431
19743W        W35212  10.992   4.703   2.483  0.1635 -0.1099 -0.1163
19744W        W35213   8.959   4.383   4.272  0.1844  0.0567 -0.1191
19745W        W35214   3.810  15.330  11.852  0.0485  0.2532 -0.1450
19746W        W35215   0.991   6.767  13.663 -0.1963  0.0513  0.0681
19747W        W35216  12.097  10.620   3.369 -0.1295  0.0715  0.1163
19748W        W35217   1.067   0.259  12.899 -0.0938 -0.1736 -0.3151
19749W        W35218   4.016  12.381   4.023 -0.0385  0.5225  0.2638
19750W        W35219   1.165  10.387   2.749  0.2150  0.0403 -0.1657
19751W        W35220   6.151   5.537  10.976  0.1473 -0.2972  0.1822
19752W        W35221   2.705   3.495  12.885 -0.3817  0.0342  0.0681
19753W        W35222   2.381  15.322   4.173  0.1276 -0.0537  0.1373
19754W        W35223  12.212  14.030  15.803  0.4290  0.2121  0.0686
19755W        W35224   8.999   8.932  14.493 -0.0082  0.0355 -0.1635
19756W        W35225  13.553   2.486  11.453  0.0704 -0.3187 -0.1431
19757W        W35226  18.156  13.767   4.153 -0.1124  0.0751  0.2950
19758W        W35227   5.797   2.365   1.637  0.1109  0.1872 -0.0828
19759W        W35228  17.956   9.877   2.068  0.1215 -0.4545 -0.0220
19760W        W35229  15.967   0.050  14.136  0.1106  0.2240 -0.2733
19761W        W35230  16.591   7.759  12.844 -0.4378 -0.2480  0.1038
19762W        W35231   7.308  17.629   9.838  0.3026 -0.1113  0.0165
19763W        W35232  15.232   9.686  10.303 -0.0975 -0.1256 -0.0840
19764W        W35233   2.321   8.129   1.417  0.1676 -0.0027 -0.1998
19765W        W35234   6.812   1.737   4.520  0.0109  0.3108  0.1647
19766W        W35235   9.269   2.165  10.499  0.1413  0.0050  0.2430
19767W        W35236  13.948   2.684  13.540 -0.2173 -0.0575 -0.2004
19768W        W35237   5.394   9.649   2.747  0.0832 -0.1814 -0.1527
19769W        W35238  17.012   5.700   0.676  0.0040 -0.1081 -0.2374
19770W        W35239   9.779  16.033   3.098 -0.1800  0.0061 -0.0437
19771W        W35240  12.997  17.091  15.435 -0.3096 -0.1175  0.3068
19772W        W35241   2.580   2.485  15.731 -0.2523 -0.5844 -0.3695
19773W        W35242   7.150   8.986  13.809 -0.1002  0.0272  0.0227
19774W        W35243   1.540  13.274   0.941 -0.1886  0.0321 -0.0427
19775W        W35244   7.458   8.789  16.020 -0.3190 -0.0936 -0.0005
19776W        W35245   2.989  10.424   3.888 -0.0457  0.1978  0.1856
19777W        W35246   4.962  10.695   1.761 -0.1863  0.0302  0.1540
19778W        W35247  14.780   3.414  14.272 -0.1547 -0.1736  0.0901
19779W        W35248   1.450   2.781   4.098  0.1354  0.0185  0.0865
19780W        W35249   5.274  14.996  15.519 -0.1548 -0.0052  0.2136
19781W        W35250   3.926  17.350   4.041 -0.1880 -0.0057  0.1903
19782W        W35251   7.789  13.720  14.229  0.4030 -0.3295  0.2061
19783W        W35252  10.965   9.568   0.093 -0.0116  0.1113  0.0819
19784W        W35253   4.901   4.580   1.320 -0.0987 -0.3878  0.0015
19785W        W35254   4.865  18.043  13.016  0.2675 -0.1480  0.1489
19786W        W35255   9.268   3.567   2.923  0.1930  0.0211  0.2232
19787W        W35256   5.720   9.621  11.887  0.0418  0.1160  0.0487
19788W        W35257  14.713   4.810   2.754 -0.0907 -0.1166  0.3789
19789W        W35258  16.585  15.729   3.279 -0.1496 -0.2585  0.0099
19790W        W35259   4.863  16.186   4.506 -0.0009  0.0229 -0.0165
19791W        W35260  16.978  17.300   1.159  0.1972  0.0594 -0.1841
19792W        W35261  13.343   0.584   5.143  0.4739 -0.4402 -0.1221
19793W        W35262  13.702   8.248   0.051 -0.3521 -0.1454 -0.0025
19794W        W35263  12.792   0.993   1.636 -0.1336 -0.1851  0.0343
19795W        W35264   8.307  13.161  15.907  0.0266 -0.2434 -0.1016
19796W        W35265   9.176   8.133  12.880  0.1488 -0.3134  0.0980
19797W        W35266   8.619   3.183  11.384  0.1313  0.1469 -0.0530
19798W        W35267   9.076   8.779   3.477 -0.0653 -0.0354 -0.2197
19799W        W35268   2.519   9.307  13.622 -0.0924  0.1765  0.0193
19800W        W35269  14.492  14.410  13.193  0.1599 -0.0148 -0.0738
19801W        W35270   0.115   5.439   3.981 -0.2843 -0.3401  0.0557
19802W        W35271  11.332   3.436   5.855 -0.0376 -0.0473 -0.0043
19803W        W35272  14.524   7.165  12.279 -0.0789 -0.2639 -0.0339
19804W        W35273  10.084   8.439   4.148  0.4092  0.1538  0.2777
19805W        W35274   6.112  15.753   3.218 -0.1404  0.2581  0.3687
19806W        W35275   3.480   1.647  10.395 -0.0010  0.3505  0.1830
19807W        W35276  10.785  15.855  14.190 -0.0586 -0.3369 -0.0168
19808W        W35277  13.044   3.512   4.032 -0.3541  0.1587 -0.2330
19809W        W35278  16.797   1.696   1.954  0.0083 -0.2434 -0.3652
19810W        W35279  15.091   7.682  12.351 -0.1313 -0.0447  0.0186
19811W        W35280   8.613  15.644  11.032  0.0349 -0.2679 -0.5734
19812W        W35281  12.414  10.085  15.923  0.1164 -0.0225  0.1810
19813W        W35282  13.671   2.989   5.749  0.3786 -0.0497 -0.0391
19814W        W35283  14.161  11.959  11.164 -0.3298 -0.1705  0.0196
19815W        W35284   3.158   4.490   0.550 -0.3239 -0.2147 -0.0725
19816W        W35285  17.357   3.548  10.792  0.1256 -0.3085  0.0848
19817W        W35286  12.620   0.078  10.966 -0.0967 -0.0352  0.0015
19818W        W35287  15.314  11.419   1.175  0.1567 -0.0938  0.2985
19819W        W35288   1.881   1.244   2.076  0.0717 -0.1354 -0.0513
19820W        W35289  12.781   1.467   1.412  0.0654  0.2735  0.1293
19821W        W35290   2.116   2.482   2.878 -0.2048  0.1459 -0.2545
19822W        W35291   4.066   4.321  13.612  0.0335  0.0860 -0.0165
19823W        W35292  15.086   0.689  12.013 -0.1372 -0.2495  0.0451
19824W        W35293   5.336  15.734   0.920 -0.0772 -0.0385 -0.2159
19825W        W35294  15.928  17.586   2.590 -0.0096 -0.1292 -0.2462
19826W        W35295   0.968  10.697   6.005  0.1626  0.1388 -0.1678
19827W        W35296  15.870   8.379   0.202  0.1940 -0.2774 -0.0109
19828W        W35297   6.905   0.352  11.766  0.0281  0.1401 -0.5016
19829W        W35298   9.660   1.952   5.129  0.0796 -0.1430  0.3300
19830W        W35299   7.050  12.421  15.653  0.0372  0.0010 -0.0945
19831W        W35300   9.089  10.057   2.691 -0.0046 -0.1619 -0.0408
19832W        W35301   7.454   2.964  15.026 -0.1135 -0.0331  0.0743
19833W        W35302   8.535   6.353  15.209 -0.2319 -0.0749  0.1428
19834W        W35303  12.897  16.686  13.700  0.1064  0.2556  0.3033
19835W        W35304  17.877  10.984  15.361 -0.0447 -0.2091 -0.2323
19836W        W35305   0.115   0.360  15.208 -0.0562 -0.0200  0.0232
19837W        W35306  13.704   7.927  13.280  0.0927  0.0811  0.4990
19838W        W35307  12.895   5.568   3.577  0.4857 -0.1086 -0.2359
19839W        W35308   2.024  16.868   1.869 -0.1538  0.1121 -0.1625
19840W        W35309   6.018  12.264   2.480  0.1672  0.2492 -0.0239
19841W        W35310  10.855  15.855  15.202  0.2581  0.3680  0.0794
19842W        W35311   7.831  17.947   1.703  0.2335 -0.1956 -0.0667
19843W        W35312   1.457   0.305  12.524  0.0070 -0.1794 -0.1698
19844W        W35313   4.717  16.147  15.179 -0.1489 -0.1316  0.1273
19845W        W35314  12.125   5.789   5.104  0.2743  0.2397  0.2363
19846W        W35315   0.301  14.310   1.706  0.0801  0.0106 -0.0312
19847W        W35316  13.327   3.903  13.123  0.2968 -0.2270  0.1173
19848W        W35317   1.008   7.478   4.441 -0.0603  0.2856 -0.1246
19849W        W35318   5.199   2.178   4.392  0.0504 -0.0392 -0.3260
19850W        W35319  18.462  14.375  11.563  0.3267 -0.1651  0.0496
19851W        W35320   5.246   4.662   0.680  0.0426 -0.0867  0.2589
19852W        W35321  14.581   8.346  12.070 -0.0813 -0.0724 -0.0440
19853W        W35322   1.735  17.441   4.201  0.0872 -0.2644  0.6488
19854W        W35323   9.113  10.694   4.916 -0.0982  0.0052 -0.0692
19855W        W35324   2.275  10.992   2.869  0.1109  0.1671  0.3351
19856W        W35325  11.919   6.620   2.118 -0.1901 -0.1949  0.1975
19857W        W35326  15.389   1.202  14.064 -0.1930  0.2026  0.2409
19858W        W35327  17.989  13.274   3.524 -0.0036 -0.0863 -0.0211
19859W        W35328  10.599   6.984  13.141  0.1035 -0.0136 -0.2606
19860W        W35329  13.518   2.843  13.265  0.1360 -0.0007 -0.1607
19861W        W35330   4.267   5.394  15.109 -0.0886  0.3272  0.2083
19862W        W35331   8.753   1.024  14.012  0.2456 -0.1014  0.2064
19863W        W35332   5.387  16.104   2.834  0.0039 -0.2101  0.1289
19864W        W35333   1.586   8.647   0.297  0.1224  0.0613  0.0644
19865W        W35334   9.585   4.844   3.690  0.1915  0.1529 -0.1774
19866W        W35335   3.009  12.214  10.674  0.0866 -0.2483  0.0260
19867W        W35336  10.108   4.495  12.615  0.2250  0.1276  0.3384
19868W        W35337   2.403  11.042   4.311 -0.2881 -0.2200 -0.1299
19869W        W35338   4.250   6.772  12.686 -0.2784 -0.0972 -0.0242
19870W        W35339  12.961  12.202  14.311  0.0550  0.0849 -0.1996
19871W        W35340   1.421  15.925  12.348  0.1091  0.0907 -0.1658
19872W        W35341   2.369  14.394  14.112 -0.1592  0.1445  0.0162
19873W        W35342   0.297  12.287   0.769  0.0162  0.4083 -0.4046
19874W        W35343   0.281  12.320   5.188  0.0108  0.3247  0.1418
19875W        W35344   7.031   9.095   0.619  0.0574 -0.1831 -0.2198
19876W        W35345   0.638   4.460  11.611  0.1541  0.2669 -0.3147
19877W        W35346   9.360   3.233  12.598  0.2150  0.1409 -0.0127
19878W        W35347   5.456  16.143   4.377  0.1580  0.1698 -0.1608
19879W        W35348   8.481  14.603   0.788 -0.1174  0.1246 -0.1534
19880W        W35349  11.073   3.243   0.638  0.2527 -0.2159 -0.3276
19881W        W35350   1.343  16.962   2.007  0.3212  0.0926 -0.0956
19882W        W35351  12.388  10.396  12.683  0.3461 -0.0491  0.0947
19883W        W35352  13.619  14.243  11.596 -0.0436  0.2656  0.0398
19884W        W35353   8.762   1.518  12.950  0.3278  0.0420  0.3544
19885W        W35354  17.131   3.786   1.472 -0.1316  0.1517  0.0519
19886W        W35355   1.712   6.211   3.858  0.2149 -0.0394 -0.1570
19887W        W35356  11.600   3.393   3.422 -0.1318 -0.1882 -0.0804
19888W        W35357  14.942   8.053  14.022 -0.2774 -0.1185 -0.0680
19889W        W35358  12.930   3.789   3.680  0.0700 -0.0906 -0.1468
19890W        W35359  12.658  16.718  13.070  0.2143  0.2185  0.4140
19891W        W35360  12.612  14.858   0.214  0.1369 -0.0865  0.0284
19892W        W35361  12.530   9.304   1.720  0.0026  0.0837 -0.2205
19893W        W35362   6.705   9.894   5.109  0.1460 -0.0047 -0.1396
19894W        W35363  10.322  11.802  14.131  0.0903  0.2071 -0.0208
19895W        W35364   1.400   0.667  12.983 -0.0108 -0.0708  0.2757
19896W        W35365  16.089   7.245   1.034 -0.0812  0.1568  0.0808
19897W        W35366  16.552   2.368  14.422  0.0787  0.2956  0.2171
19898W        W35367   3.643  10.437   0.767 -0.0623  0.1080  0.0438
19899W        W35368   0.871  14.954  13.449 -0.1285  0.1011  0.1297
19900W        W35369   5.558   9.055   2.625  0.1553 -0.0771  0.1950
19901W        W35370   5.737   2.914  11.048  0.0742 -0.4617  0.1088
19902W        W35371  15.105  17.789  13.567 -0.4423  0.0749 -0.1734
19903W        W35372  12.168  10.312   1.549  0.5229 -0.3312  0.1281
19904W        W35373   3.056   3.263  15.743  0.1995  0.1272 -0.0014
19905W        W35374   9.559  10.129  10.737  0.0086 -0.2614 -0.2074
19906W        W35375  16.295   2.761  15.628  0.1449  0.0745  0.0628
19907W        W35376   6.800   0.416   1.415 -0.0792  0.0856 -0.0409
19908W        W35377   0.776   1.121  15.538  0.2020 -0.0961  0.2093
19909W        W35378  14.863   9.522   3.200 -0.1130 -0.1069  0.1428
19910W        W35379   8.203  11.070   3.892  0.3512 -0.2663  0.0788
19911W        W35380  14.947   2.590   1.149 -0.0717 -0.3091  0.2640
19912W        W35381   8.485  16.629  14.879  0.0878  0.0766 -0.3576
19913W        W35382   9.010  13.759   0.459 -0.2598  0.1594 -0.0550
19914W        W35383   3.030   1.367   5.903 -0.1302  0.0798  0.1999
19915W        W35384   1.368  15.052  13.326  0.0306 -0.1368 -0.0398
19916W        W35385  11.941   3.759   3.579 -0.2049  0.0454  0.3768
19917W        W35386  11.343  10.024  14.878 -0.2396 -0.2119 -0.2307
19918W        W35387  10.384  11.145   4.376  0.0093  0.0101  0.0408
19919W        W35388  13.494  14.006   5.183 -0.2262 -0.1830 -0.0162
19920W        W35389   6.734   8.702  12.993 -0.1221 -0.2579  0.0900
19921W        W35390  16.980  11.028  14.465 -0.1765  0.0190  0.2070
19922W        W35391   3.437   3.263  10.795  0.0006  0.0854  0.1530
19923W        W35392  16.118   3.719   5.667 -0.1306  0.1465 -0.2815
19924W        W35393  18.433  13.510   4.957 -0.3227  0.2437 -0.0935
19925W        W35394   2.515   4.294   5.237 -0.5153  0.2224 -0.2301
19926W        W35395   6.709   3.013  12.769  0.1149  0.2342 -0.0036
19927W        W35396   0.612   9.574  11.760 -0.7603  0.0342 -0.0942
19928W        W35397  15.606   4.631  13.897  0.0544 -0.2204  0.0274
19929W        W35398   3.253  14.800   1.005 -0.1587  0.1140 -0.1877
19930W        W35399  13.022   6.910   0.543  0.0850  0.0146  0.2164
19931W        W35400  16.038   6.714   1.763  0.1931 -0.0063 -0.2969
19932W        W35401   7.515   0.595  15.849  0.0010  0.0056 -0.0606
19933W        W35402  17.543  15.708   1.440 -0.1030  0.1778  0.1007
19934W        W35403  13.317   8.267  10.624  0.1334  0.0684 -0.0267
19935W        W35404   2.341  10.586   0.767  0.3125  0.0161 -0.0104
19936W        W35405   9.677  14.869   1.549 -0.0457  0.0355 -0.0732
19937W        W35406  12.455   6.637   2.081 -0.0048 -0.3277 -0.1086
19938W        W35407  10.595  17.143  12.187 -0.1513 -0.0017 -0.1413
19939W        W35408   3.344   4.476  11.412  0.1716 -0.2108 -0.0080
19940W        W35409  14.843   0.986  12.541 -0.0740 -0.1543  0.1255
19941W        W35410   8.881  12.525   9.860 -0.2044  0.1161  0.0511
19942W        W35411  13.793   5.526   2.315  0.5370  0.1427 -0.1041
19943W        W35412   4.792   7.656   1.447 -0.0834  0.0671 -0.1325
19944W        W35413  14.979   9.882   2.871  0.1814 -0.3797  0.0041
19945W        W35414  13.694  17.491  12.187 -0.2609 -0.1133  0.0145
19946W        W35415  13.659   9.478  10.795  0.0733  0.3288  0.3686
19947W        W35416   6.591  15.710  14.135 -0.0350 -0.0382 -0.0874
19948W        W35417   5.233  16.336  11.728  0.0600  0.1234 -0.2277
19949W        W35418   5.535   2.304  15.424  0.1212  0.1969 -0.0760
19950W        W35419  14.536   9.596   3.588 -0.1643 -0.0332 -0.0214
19951W        W35420   0.502   7.523  10.891 -0.1158 -0.1538 -0.0734
19952W        W35421   6.645  17.264  14.379 -0.0226  0.0407 -0.1394
19953W        W35422  12.055  11.950  13.492 -0.1829  0.1821  0.3035
19954W        W35423   1.753  10.104   1.397  0.0839  0.0887  0.3468
19955W        W35424   1.400   3.843  14.519 -0.2092 -0.2791  0.3164
19956W        W35425   4.601   8.710  13.616  0.2598  0.1297 -0.1546
19957W        W35426   3.994   6.751   3.607 -0.2430  0.0061  0.3483
19958W        W35427  15.402  11.812   2.943  0.3000  0.0830 -0.1247
19959W        W35428  14.609  17.691  13.364 -0.0450  0.0967  0.0024
19960W        W35429  16.422   1.431   4.906  0.1502 -0.2112  0.0201
19961W        W35430   5.553   5.361  14.989  0.2153 -0.2299  0.1056
19962W        W35431  13.248   5.791   0.019 -0.1674  0.0320  0.3310
19963W        W35432   4.568  12.400   3.473  0.0738  0.0890 -0.2186
19964W        W35433   2.954   2.804  15.758 -0.1112 -0.3111  0.0262
19965W        W35434   1.300  13.672   3.213 -0.2123  0.0083  0.0550
19966W        W35435  13.667  11.366   3.617 -0.1012 -0.1026  0.1221
19967W        W35436   1.892   2.243  15.215 -0.0078  0.4042  0.0754
19968W        W35437  15.239   6.800  14.041  0.1386 -0.0802  0.1376
19969W        W35438  16.670  14.496   1.999  0.5296 -0.0112  0.1052
19970W        W35439   3.334   1.966   2.996 -0.1624 -0.0038 -0.2651
19971W        W35440  13.121   1.182  11.675 -0.1344 -0.0176  0.2024
19972W        W35441  13.808   4.759   5.211  0.3490  0.0112  0.1288
19973W        W35442  13.514   9.686  14.227  0.0834 -0.0928 -0.1746
19974W        W35443   5.341  13.461   2.298 -0.0222  0.2566  0.1626
19975W        W35444  13.086  14.691  11.250  0.0640  0.0467  0.2696
19976W        W35445   7.291  14.065   4.500 -0.0868  0.1817 -0.1189
19977W        W35446  12.217  17.851  10.920  0.2495  0.2195  0.1702
19978W        W35447  12.981  10.760  15.709  0.0687  0.0411 -0.3162
19979W        W35448   8.066   4.872   3.803  0.1530  0.2714 -0.0866
19980W        W35449   1.124   1.073  12.307 -0.2466 -0.4368  0.2960
19981W        W35450   6.293   4.642  10.213 -0.3201 -0.4079  0.3016
19982W        W35451  12.491   7.566  11.944 -0.4367  0.0994  0.4161
19983W        W35452   6.699   9.996  12.752 -0.1441  0.2321  0.4856
19984W        W35453   3.112  14.678  11.561 -0.2415  0.2386 -0.0450
19985W        W35454   5.601  12.748   1.806  0.0697 -0.0300 -0.0924
19986W        W35455  12.946   9.415  13.892  0.0208  0.0889 -0.2474
19987W        W35456  12.835  17.682   4.064 -0.1113  0.0077 -0.0738
19988W        W35457  16.806  10.205   3.389 -0.1125  0.3789 -0.2186
19989W        W35458  14.570  17.450  12.360  0.1165  0.0682 -0.0845
19990W        W35459   5.758   0.655   1.363  0.2305  0.2925  0.0376
19991W        W35460   8.159   3.025  12.419 -0.3449 -0.3611  0.0474
19992W        W35461   1.755  13.991   1.714 -0.0894  0.1082  0.0242
19993W        W35462   7.412   2.311  12.713 -0.1182 -0.1229  0.0264
19994W        W35463  11.253   8.855  13.476 -0.1084  0.0071  0.4559
19995W        W35464  11.610   3.048  14.709 -0.2193  0.1030 -0.3347
19996W        W35465  17.063  15.747  11.014  0.2054  0.2795 -0.1366
19997W        W35466  12.641  10.947   1.903  0.3124 -0.1865 -0.1558
19998W        W35467   0.083   2.146  12.245 -0.3479  0.1338 -0.1076
19999W        W35468  11.815  15.313   4.587 -0.2713  0.0407 -0.0419
20000W        W35469  17.529  16.202  11.085 -0.0343 -0.1691 -0.1243
20001W        W35470  14.907  13.808  12.700  0.2059 -0.2657  0.0786
20002W        W35471   3.355   7.326   2.048 -0.1443 -0.2315 -0.1034
20003W        W35472  12.954  12.718   2.751  0.0386 -0.1091 -0.4066
20004W        W35473  14.242   4.053   5.507  0.2002  0.1696 -0.3558
20005W        W35474   8.191   1.618   5.548  0.0302 -0.0129 -0.0391
20006W        W35475   5.239  16.478   0.150  0.0211 -0.1782  0.0277
20007W        W35476  16.351   3.474   3.175 -0.1883  0.1791  0.0837
20008W        W35477   3.790   3.218  12.304 -0.0983 -0.1716 -0.3050
20009W        W35478   5.340   4.875   0.159  0.1925  0.2360  0.2319
20010W        W35479   6.170   9.114  14.111  0.0688  0.1077  0.0138
20011W        W35480   5.619  16.244  15.376  0.2528  0.1817 -0.4302
20012W        W35481   5.770   1.479  13.504 -0.0707  0.2562  0.1844
20013W        W35482  18.426   7.137  14.825  0.1580  0.3607 -0.1074
20014W        W35483  10.532   0.114  12.336 -0.0788 -0.1804 -0.0510
20015W        W35484   1.651  15.582   4.081  0.3450  0.1892 -0.2984
20016W        W35485  10.222   4.605  13.930 -0.2416  0.0489  0.0191
20017W        W35486   3.319  16.659  13.394  0.0707  0.3038 -0.1153
20018W        W35487   2.189  12.114   1.914  0.0311 -0.0799  0.0224
20019W        W35488   0.014  14.158  14.134  0.1670  0.1235  0.2466
20020W        W35489   5.587  10.568   3.805 -0.0509  0.1049  0.0202
20021W        W35490  14.875   5.093   1.020  0.2161  0.1750 -0.0952
20022W        W35491   5.043   7.962   5.156 -0.4673  0.0993  0.0828
20023W        W35492   5.886  10.793  13.962 -0.1980  0.2027  0.0929
20024W        W35493   1.568   1.466  13.748  0.2499 -0.0718  0.3706
20025W        W35494   2.302   9.436   4.203  0.0570 -0.3841  0.0112
20026W        W35495   4.838   8.612   0.003 -0.0946  0.1806 -0.3185
20027W        W35496   7.295  16.740   1.380 -0.2574 -0.4231 -0.4190
20028W        W35497   6.418   6.542  11.473  0.0128  0.0784  0.0080
20029W        W35498  13.855  18.040   1.656 -0.0889  0.1380  0.0680
20030W        W35499   1.139   5.911  15.575 -0.2719  0.0856  0.2648
20031W        W35500  14.877   9.614   2.406  0.0760  0.3260 -0.0447
20032W        W35501   1.141   2.903   1.459 -0.1915 -0.0593 -0.1573
20033W        W35502   3.425   8.681   2.178  0.1466 -0.1116  0.0537
20034W        W35503   0.103   5.990   5.226 -0.1777  0.0619  0.1403
20035W        W35504   1.935   4.840  14.987 -0.0405 -0.1755  0.3312
20036W        W35505   7.082   4.643   5.241 -0.1618 -0.2606  0.0329
20037W        W35506   4.128   3.777  11.384 -0.0159 -0.1454  0.0124
20038W        W35507  15.209   7.044   1.896 -0.0302  0.0854  0.1151
20039W        W35508   6.262   0.823  10.865 -0.1967  0.3131 -0.0927
20040W        W35509  11.651   1.877   4.895 -0.0368  0.1785 -0.0019
20041W        W35510  10.327  17.118   2.754  0.1742 -0.1777 -0.1429
20042W        W35511   7.586   6.394   0.021 -0.1928  0.2486 -0.1174
20043W        W35512  16.289  14.271   1.750 -0.1746  0.0109  0.0099
20044W        W35513  12.451  15.517   1.918 -0.0224  0.2793  0.1511
20045W        W35514   5.844   7.183   2.217  0.2438 -0.2862  0.0617
20046W        W35515   5.322   0.315   2.281 -0.0214 -0.1589  0.4500
20047W        W35516   8.893  16.961  13.193 -0.1456 -0.1499  0.1790
20048W        W35517  18.393  15.161  15.744  0.0784  0.0487 -0.3200
20049W        W35518   1.120  13.079   3.299  0.0248  0.0222 -0.2117
20050W        W35519  15.260   4.392  11.560  0.0821  0.2215 -0.4045
20051W        W35520   7.410  18.029   2.468 -0.1187 -0.4087  0.0897
20052W        W35521   8.400  16.975  12.908 -0.0937  0.5221 -0.0218
20053W        W35522   2.388  15.840   1.450  0.2513  0.0423  0.2362
20054W        W35523  12.837   6.312   2.338  0.0390 -0.1795  0.1702
20055W        W35524   4.193   5.413   4.637 -0.0736  0.3034  0.2280
20056W        W35525  17.092  16.111   2.123 -0.0441  0.0294 -0.1664
20057W        W35526  14.119  15.329   3.982 -0.0126  0.0066 -0.1721
20058W        W35527  11.900  13.861  12.822 -0.1157  0.2310  0.0151
20059W        W35528   9.031   2.026   3.143 -0.0067  0.0779  0.1625
20060W        W35529  17.331   0.245  13.226  0.1918  0.0577 -0.3338
20061W        W35530  14.933   8.586   4.782 -0.1832 -0.0863  0.1725
20062W        W35531   7.265  13.443   2.330  0.2193 -0.2297  0.1003
20063W        W35532   9.308   7.069   2.838  0.3106 -0.0769 -0.2540
20064W        W35533  18.209   3.070   1.244 -0.0450  0.3846 -0.3240
20065W        W35534   9.929  13.792   4.648  0.1818 -0.1088 -0.0534
20066W        W35535  15.630   9.285  13.180  0.2033 -0.0339 -0.0477
20067W        W35536   0.515   1.143   3.238 -0.0429  0.2707 -0.2367
20068W        W35537  13.013  11.224  12.940 -0.0711 -0.0037  0.0747
20069W        W35538   8.421   4.981   2.910 -0.4125  0.0336 -0.0290
20070W        W35539   1.877   6.273   4.405 -0.0188 -0.1616 -0.1543
20071W        W35540  15.903  16.644  12.269 -0.0260 -0.0865 -0.2264
20072W        W35541   0.611   7.601   5.643  0.1961 -0.0564 -0.1339
20073W        W35542   6.444  11.961  13.205 -0.1340  0.0800  0.2830
20074W        W35543   1.764  12.428   5.419 -0.1045  0.0703 -0.0621
20075W        W35544  11.045  16.163  12.862 -0.0448  0.0631  0.0000
20076W        W35545   4.703  16.500   0.124  0.0918 -0.4462 -0.0440
20077W        W35546  18.021   4.842  15.673 -0.0790 -0.1250  0.0932
20078W        W35547   7.685   4.686   5.160  0.3418  0.0140  0.2055
20079W        W35548  12.562  16.218  13.070 -0.1731 -0.3641  0.1697
20080W        W35549  11.099  16.901   2.775 -0.3174 -0.0880  0.0917
20081W        W35550   5.524  12.835  13.782 -0.1283 -0.1666 -0.2580
20082W        W35551  12.298  12.918   5.165 -0.0125  0.0592 -0.1883
20083W        W35552   3.325   4.512   1.510  0.3372 -0.2930 -0.2001
20084W        W35553  15.911   3.077   1.822  0.0484  0.0108 -0.3040
20085W        W35554   3.486  16.389  10.269 -0.2436 -0.0900 -0.0154
20086W        W35555   2.515   0.120   2.552 -0.1520 -0.0275 -0.2551
20087W        W35556   3.593   1.611  15.264  0.0389  0.1587  0.4769
20088W        W35557   6.896  14.184  13.204 -0.2808 -0.0177  0.3559
20089W        W35558   1.669   3.421  11.555  0.0632 -0.2581  0.0513
20090W        W35559  14.124   0.018   0.868  0.0155  0.1356 -0.0488
20091W        W35560   1.443  14.438  15.809  0.0999 -0.0475 -0.4326
20092W        W35561  10.097  13.347   4.772 -0.0757  0.1901 -0.1378
20093W        W35562   4.352  17.870  14.109  0.1032  0.2092 -0.0769
20094W        W35563  13.698  10.856   2.649  0.2202  0.1294  0.0191
20095W        W35564   9.521   0.477   1.547 -0.0707 -0.0087 -0.1290
20096W        W35565   4.088   3.694   6.062  0.0006  0.0941 -0.2086
20097W        W35566  12.876  14.092  10.742 -0.0499 -0.1814  0.2712
20098W        W35567  12.790  15.091  13.119  0.2952  0.2849 -0.1746
20099W        W35568   0.213  17.493  13.284 -0.0077 -0.1450  0.4251
20100W        W35569  17.652   1.705   1.382  0.0350 -0.0175 -0.0299
20101W        W35570   1.098   1.162  12.815 -0.0128 -0.1352  0.1941
20102W        W35571   0.928   7.251   3.357  0.1053 -0.1530  0.1606
20103W        W35572  15.656   1.763   2.113  0.1219  0.1952 -0.0292
20104W        W35573   4.509  13.273   0.020  0.1390  0.0716  0.0616
20105W        W35574   5.570  11.627  14.989 -0.1499 -0.0290 -0.0921
20106W        W35575  16.373   4.893   3.802 -0.3409 -0.0804  0.1624
20107W        W35576  14.893   6.972  12.559  0.0644 -0.2032 -0.1496
20108W        W35577  12.734  13.436   4.630 -0.3022 -0.2841 -0.1519
20109W        W35578  12.034  14.569   4.701  0.0944  0.1823  0.0222
20110W        W35579  10.606   1.958   5.599  0.0872  0.2868 -0.0172
20111W        W35580   0.241  10.774  11.580 -0.0978  0.2495  0.0405
20112W        W35581   3.833   2.875   1.710  0.2464  0.0581  0.2526
20113W        W35582   0.041   8.595   4.338  0.0804  0.0361  0.1100
20114W        W35583   2.124  12.773  11.833  0.3446 -0.2314  0.3244
20115W        W35584   0.345  14.199   4.590 -0.0879  0.1241  0.3240
20116W        W35585   4.015   2.348   3.918  0.1306 -0.3803  0.2308
20117W        W35586   9.117   6.975  15.162 -0.0012 -0.0637 -0.0553
20118W        W35587   6.284  13.671   1.408  0.0921  0.0159 -0.2825
20119W        W35588   2.259  13.002  15.076 -0.1019 -0.0084 -0.0046
20120W        W35589  11.837  10.636  11.003  0.1058  0.1666 -0.4276
20121W        W35590   0.050   0.588   0.480 -0.2588 -0.0433 -0.2269
20122W        W35591   8.112   4.502   5.154 -0.1366 -0.2862  0.1137
20123W        W35592  14.182  14.264   0.150 -0.1381 -0.1348  0.0592
20124W        W35593   4.356  14.440  14.578  0.2290  0.1425  0.3793
20125W        W35594   7.219   4.370   3.738 -0.4563 -0.0555  0.0644
20126W        W35595  13.336  12.825   1.301  0.0466 -0.1487  0.0006
20127W        W35596   1.148   4.636  11.398  0.2754  0.1520 -0.1972
20128W        W35597  11.481   6.484   2.901  0.0046 -0.1890 -0.0283
20129W        W35598  15.655   4.149  11.755  0.1499 -0.3071  0.1453
20130W        W35599   4.058   2.277  15.997  0.4330 -0.2725 -0.2275
20131W        W35600  14.101   6.788  11.134 -0.0403  0.3640 -0.0040
20132W        W35601  10.621   2.761  12.360 -0.0598  0.3171 -0.2065
20133W        W35602   7.998  16.610  15.284  0.0545 -0.4648 -0.2017
20134W        W35603  15.230  15.116   0.647  0.1238  0.3216 -0.0038
20135W        W35604  10.653   0.865   3.658 -0.1139 -0.1016  0.2383
20136W        W35605   2.349   2.871  14.639  0.0111 -0.0400  0.0114
20137W        W35606   7.844   8.511  15.140 -0.1817 -0.1596  0.1704
20138W        W35607   4.816  17.319  12.291 -0.0196 -0.1113  0.3245
20139W        W35608   6.779  12.672   6.067  0.0872  0.2247  0.0301
20140W        W35609   2.551  11.391   3.843  0.0680  0.1466  0.2182
20141W        W35610   2.615   4.265   3.226  0.2294  0.0794  0.0034
20142W        W35611   9.955   9.127   1.530 -0.2745  0.2315  0.0325
20143W        W35612   7.072   5.623   3.635  0.2679 -0.0331  0.2321
20144W        W35613   4.666   3.684   4.829  0.0470 -0.1683 -0.2942
20145W        W35614  12.117  17.708  14.067 -0.0687 -0.3201 -0.4228
20146W        W35615  14.653   9.095   3.702 -0.1343 -0.2545  0.0866
20147W        W35616  18.202   8.965  14.482  0.3362  0.0223  0.0978
20148W        W35617   5.649   0.273  14.565 -0.1220 -0.1149 -0.2676
20149W        W35618   1.751   8.846  12.881 -0.1463 -0.1296 -0.0526
20150W        W35619   6.150   0.649  10.372  0.0834  0.3086  0.2877
20151W        W35620   4.006   8.373  14.922  0.2450 -0.2116  0.1457
20152W        W35621  13.473   7.313  10.417  0.0287  0.0731  0.0627
20153W        W35622  11.139   4.079  15.969  0.3041  0.0425  0.1107
20154W        W35623  12.280  13.102  12.838  0.0435  0.1091 -0.1532
20155W        W35624   1.375  13.700  10.983  0.0926  0.0561 -0.1425
20156W        W35625  13.182  15.765   4.341 -0.0398  0.1029  0.3375
20157W        W35626  18.136  13.366   0.720 -0.1277 -0.2486 -0.1101
20158W        W35627   8.702  15.511  12.919 -0.1188 -0.1870 -0.0726
20159W        W35628   5.410   6.503  15.046 -0.0732  0.3844  0.3518
20160W        W35629  13.289   3.055  10.617  0.3406  0.0299  0.1618
20161W        W35630  17.528   0.713   2.772 -0.1407  0.2014  0.1594
20162W        W35631  14.124  14.802  13.673  0.2750  0.1974 -0.3381
20163W        W35632   4.460  16.351  13.614  0.2674 -0.0659  0.1426
20164W        W35633  14.969  12.561  13.112  0.2970 -0.2050 -0.1551
20165W        W35634  18.257   8.055   3.556  0.2705 -0.0539  0.1413
20166W        W35635  15.241   5.273  15.465 -0.1451 -0.0139  0.0469
20167W        W35636  16.595   5.406   0.674 -0.0480 -0.0119  0.1723
20168W        W35637   3.438  15.170   4.636 -0.0018  0.1422 -0.0082
20169W        W35638   3.791   2.723  13.397  0.1232  0.2400 -0.0847
20170W        W35639   2.326   6.161  15.058 -0.0060 -0.1197  0.0612
20171W        W35640  10.180   3.174  10.332 -0.1682 -0.0195  0.0210
20172W        W35641   2.925   6.878   0.126 -0.0218 -0.0117  0.1562
20173W        W35642  12.308   9.566  12.784 -0.1461 -0.3252 -0.0602
20174W        W35643  14.205   4.872   1.849 -0.1827 -0.1764 -0.0135
20175W        W35644   6.605   5.597  12.509  0.1756  0.0084  0.3383
20176W        W35645  11.520  16.668   1.985  0.1552  0.0433 -0.2214
20177W        W35646  15.726  16.614   5.065  0.1689 -0.0782 -0.0694
20178W        W35647   0.439  16.643  13.442 -0.0692  0.2059  0.0869
20179W        W35648   7.819   5.147   5.073 -0.1936  0.2617 -0.3523
20180W        W35649  17.587   7.452   2.980 -0.1754 -0.0805 -0.2674
20181W        W35650   2.258   0.930   3.080 -0.0876  0.4066  0.1903
20182W        W35651   7.414   5.360   3.291  0.0119 -0.2134  0.0829
20183W        W35652   7.221  15.460  14.518  0.5430  0.1141 -0.0836
20184W        W35653   3.578  17.799  12.355 -0.1768  0.0279  0.1789
20185W        W35654   3.573   6.263   5.709  0.0582 -0.0011  0.1403
20186W        W35655  16.343  15.547  13.808  0.4140 -0.2140 -0.0075
20187W        W35656  11.154  13.719   1.955 -0.1273  0.1685 -0.0520
20188W        W35657  15.295  12.860   4.733  0.6158 -0.3487  0.0011
20189W        W35658   3.430  12.508  11.233  0.0907  0.0785 -0.3241
20190W        W35659  17.039   1.256  15.300 -0.3445  0.3421 -0.0969
20191W        W35660  10.678   5.956  11.473 -0.1334 -0.1308  0.0116
20192W        W35661   1.567   3.029  13.134 -0.1629  0.5286  0.0991
20193W        W35662   7.824   3.645   3.716  0.0001 -0.1235 -0.1169
20194W        W35663   1.059   3.772   3.447  0.0176 -0.1588 -0.3860
20195W        W35664   7.054   0.637  10.874 -0.3010  0.1869  0.1342
20196W        W35665   6.136  16.698  15.975  0.0138  0.1390  0.0209
20197W        W35666  18.023  11.856   5.639 -0.0687 -0.1555 -0.1420
20198W        W35667   7.276   2.490   1.739 -0.2439  0.0552 -0.3484
20199W        W35668   7.133   4.860  11.888 -0.1658 -0.0102  0.3814
20200W        W35669  16.520  16.521   1.238  0.5086  0.1085  0.0620
20201W        W35670   9.057   7.626   0.773  0.0803 -0.0954 -0.0205
20202W        W35671   3.461  13.575  15.181  0.0163  0.1905  0.2514
20203W        W35672   4.705   7.713  12.171 -0.0589  0.2329  0.0319
20204W        W35673  10.521  11.233   4.912  0.1236 -0.0174  0.5702
20205W        W35674   1.868   0.613  15.915 -0.1182  0.2352 -0.0051
20206W        W35675  13.471   3.596   3.815  0.3557  0.1871  0.1159
20207W        W35676   5.238   4.365   5.182  0.1773 -0.1146  0.1611
20208W        W35677   7.708   8.876  15.595  0.1688  0.2525  0.0178
20209W        W35678  10.131   7.021  15.900  0.3680 -0.1589 -0.1051
20210W        W35679   2.321   8.482   0.629 -0.2547 -0.1806 -0.0534
20211W        W35680   4.498  17.685  12.134 -0.0800  0.1543 -0.3928
20212W        W35681  15.475   3.009   2.781  0.3413  0.1928  0.0548
20213W        W35682  15.975  13.091  13.809  0.5514 -0.2624 -0.1024
20214W        W35683   4.487   7.043  14.251  0.0360 -0.3547 -0.0300
20215W        W35684  11.710   6.938  12.441  0.1613 -0.0514  0.2782
20216W        W35685  16.246   6.005   3.355  0.0649  0.2733 -0.1478
20217W        W35686  12.421   1.238   4.763 -0.0157  0.0694 -0.0201
20218W        W35687  17.732  17.483   5.209  0.1962 -0.1125  0.0395
20219W        W35688   6.747  11.367  10.193 -0.0216 -0.0836 -0.3154
20220W        W35689   9.753  11.929  13.672  0.0015 -0.0527 -0.2479
20221W        W35690   0.671  11.629   4.553 -0.4199  0.1010  0.0393
20222W        W35691   5.356  14.079   0.591  0.0430  0.0518  0.0682
20223W        W35692   6.121  16.356  10.646  0.1532  0.1159 -0.1748
20224W        W35693  14.583   1.637   3.137  0.1404  0.1260 -0.0625
20225W        W35694  17.841   7.917   1.688  0.1508 -0.1287 -0.0795
20226W        W35695   8.179  14.374  14.720 -0.0107  0.2731 -0.0136
20227W        W35696  16.499   4.656   4.698  0.1359  0.2668 -0.4150
20228W        W35697  18.238  10.082  14.715  0.0266  0.1948 -0.0678
20229W        W35698   1.953   1.198  12.214 -0.0093  0.2521 -0.0178
20230W        W35699   5.820   8.920   1.148 -0.1833  0.3704  0.0867
20231W        W35700  18.348   1.281  15.082  0.1645  0.0231 -0.1173
20232W        W35701  15.887  15.412   1.235  0.3176  0.0807 -0.1797
20233W        W35702   0.207  17.199  10.430  0.0412 -0.2057 -0.5598
20234W        W35703  10.204  16.784  12.120  0.1930  0.1554 -0.1177
20235W        W35704  10.733   3.481   4.693  0.1196  0.2942 -0.0152
20236W        W35705   1.366   3.609   1.716 -0.0262 -0.0072 -0.2212
20237W        W35706   5.002  14.273   0.127  0.0780  0.2966 -0.0032
20238W        W35707   8.659   1.089   1.999 -0.1085  0.1052  0.0168
20239W        W35708  13.137  13.963  11.623 -0.2065  0.0536  0.0882
20240W        W35709  14.279   2.945   5.127  0.0250 -0.2820 -0.3888
20241W        W35710   8.611  10.940  13.222  0.0617 -0.0673 -0.0735
20242W        W35711   8.500   4.874   1.625 -0.3392 -0.0726 -0.4163
20243W        W35712   1.224   2.674  14.630 -0.0251  0.2818 -0.1208
20244W        W35713  12.580   7.754  12.488 -0.0239 -0.1322 -0.0513
20245W        W35714   2.181   4.826  12.204  0.0815  0.0853  0.0802
20246W        W35715  14.246  18.380  15.629  0.0622  0.1913  0.0979
20247W        W35716   9.954  11.829  11.726  0.1740  0.2366 -0.3870
20248W        W35717  13.262  13.489   4.473 -0.0571 -0.2129 -0.0879
20249W        W35718   3.219   4.422  15.933  0.0742  0.1787 -0.1600
20250W        W35719  17.131  12.493   0.763 -0.0091  0.0606  0.2166
20251W        W35720  18.456   8.153   0.362  0.1184 -0.0835 -0.2900
20252W        W35721  15.642  18.432  15.171  0.2134 -0.0558 -0.2404
20253W        W35722   5.795  17.251   9.668  0.2898 -0.3236 -0.2878
20254W        W35723  17.548  15.970   1.031 -0.1332 -0.0885  0.0085
20255W        W35724   8.287  13.051  12.597  0.0976 -0.1322  0.0501
20256W        W35725   4.500   2.054   5.407 -0.3723 -0.2293 -0.0758
20257W        W35726   1.023  13.334  13.218  0.3950  0.0812  0.1423
20258W        W35727  10.058  13.109   3.839 -0.2392  0.0980 -0.2475
20259W        W35728   1.917   0.656  11.386  0.1964  0.1138  0.1087
20260W        W35729   7.860  17.582  10.944  0.2490  0.0338 -0.1333
20261W        W35730   0.461   9.413   3.634 -0.0935  0.1902  0.0139
20262W        W35731   0.485  16.692  14.838  0.0410 -0.0594  0.2985
20263W        W35732   3.830   0.216  15.661  0.1434  0.0412 -0.1390
20264W        W35733   1.039   7.581  13.139  0.0803 -0.3144  0.0585
20265W        W35734  10.577  14.933  14.713 -0.3682  0.0388  0.1871
20266W        W35735   4.283  11.227  14.893 -0.0696 -0.0593 -0.0266
20267W        W35736  10.593  10.147  15.654 -0.0556  0.1433  0.1157
20268W        W35737  12.046   1.691  15.458  0.2715 -0.0720  0.1021
20269W        W35738   6.100  14.614  12.251  0.3030 -0.2850  0.0129
20270W        W35739   2.525   1.692  11.287  0.2140 -0.5607  0.1359
20271W        W35740   8.539   9.269  12.089  0.4723 -0.1798  0.0250
20272W        W35741   5.970   6.262  11.652  0.1112  0.0913  0.0536
20273W        W35742  17.280  15.360   4.358  0.0773  0.1538 -0.0769
20274W        W35743  18.192   5.577  13.140 -0.3187 -0.2360 -0.1106
20275W        W35744  16.922  18.013   3.229  0.0224  0.0953 -0.1338
20276W        W35745  17.216   2.505   0.539  0.3394  0.1664 -0.2578
20277W        W35746  16.429   3.972   0.300  0.2798 -0.2042  0.3360
20278W        W35747   7.258   9.109   4.529 -0.0217  0.3521 -0.0788
20279W        W35748   8.721   9.849   5.006  0.1364 -0.0317  0.1621
20280W        W35749   6.079   5.073  15.071  0.0507 -0.2682  0.0643
20281W        W35750  15.824  14.180   4.545 -0.3429  0.2701 -0.0886
20282W        W35751  14.360   6.467   1.022  0.2136 -0.0405  0.1720
20283W        W35752  11.487  16.312   2.801  0.1407 -0.4935 -0.0806
20284W        W35753  10.007  15.540  11.534  0.2814 -0.2081 -0.1175
20285W        W35754   3.752  16.968   4.328  0.0034  0.2070 -0.3335
20286W        W35755  12.579   4.821  13.074  0.4353  0.1295 -0.3491
20287W        W35756  10.486  16.322   0.357 -0.2216  0.2453  0.0416
20288W        W35757  16.862  12.532  14.490  0.0304 -0.0710  0.0663
20289W        W35758  18.284  13.344  14.433  0.0595  0.3933 -0.0961
20290W        W35759   2.802  17.973  13.417 -0.4549 -0.0352  0.5367
20291W        W35760  14.391   7.925  12.836  0.1695 -0.0881  0.1992
20292W        W35761  10.650   5.008  10.421 -0.1139 -0.1538  0.4835
20293W        W35762  15.825   2.363   3.763  0.0223 -0.0289 -0.2668
20294W        W35763  16.481   1.047   1.200  0.0854 -0.2554  0.1300
20295W        W35764  12.400  12.575  12.686  0.1305 -0.1073  0.0395
20296W        W35765  10.599   6.219   2.661  0.2199  0.0031 -0.2645
20297W        W35766   7.123   8.540   0.424  0.1461 -0.1016  0.2064
20298W        W35767   6.838   7.988  10.590 -0.0214 -0.1676 -0.1566
20299W        W35768  15.377  13.864   0.107  0.2975  0.1748 -0.2821
20300W        W35769  14.601   5.836  12.268 -0.2424 -0.3189 -0.1650
20301W        W35770   2.752  17.760  14.783  0.1819  0.1596  0.0781
20302W        W35771   3.709   2.817   0.428 -0.1514  0.1255  0.0783
20303W        W35772  11.095   1.190  11.595 -0.4129 -0.0770  0.1549
20304W        W35773   2.351   4.196   1.636  0.2472  0.0591 -0.0597
20305W        W35774   2.091   8.496  11.445 -0.1025 -0.0949 -0.0490
20306W        W35775  12.954   2.537   0.594  0.1674  0.1246 -0.3359
20307W        W35776   2.991   5.786  13.106 -0.0036 -0.1244 -0.4345
20308W        W35777   8.799  10.432   2.646  0.3578 -0.0635  0.1278
20309W        W35778   5.161   4.373  13.764 -0.3712  0.1680 -0.2366
20310W        W35779  15.911   8.561  15.199  0.1013  0.2022 -0.1439
20311W        W35780  16.094  12.553  14.559 -0.3744  0.1922 -0.0593
20312W        W35781  17.632   1.799   3.589 -0.0474 -0.0475 -0.3475
20313W        W35782   6.378  15.024  12.019  0.1468  0.5132  0.2635
20314W        W35783   9.494   5.188  15.860  0.0729 -0.2772 -0.0525
20315W        W35784  16.922   1.644  14.896 -0.1446 -0.0177  0.0502
20316W        W35785   4.410   7.666   0.979  0.0339 -0.0399  0.1511
20317W        W35786   1.022   3.251  11.567 -0.2074 -0.0955 -0.0490
20318W        W35787  14.579   9.310  11.026  0.0888 -0.3651 -0.1703
20319W        W35788  15.911   4.723  15.539 -0.1154 -0.0472  0.3421
20320W        W35789   1.261  16.201   0.144 -0.1961 -0.2020  0.1641
20321W        W35790  16.796   9.312  12.372 -0.1449  0.3164  0.1336
20322W        W35791   7.488  13.829  15.178  0.0329 -0.4967  0.2334
20323W        W35792  13.433   6.808  12.638 -0.0361  0.0251 -0.1776
20324W        W35793  14.506   0.028  13.909  0.0344  0.4633  0.0924
20325W        W35794   1.719  17.158   1.727 -0.0136 -0.0164  0.0942
20326W        W35795  14.341   3.925   4.988 -0.2071 -0.1628  0.1390
20327W        W35796   7.541   7.304   0.503 -0.2074  0.2948  0.3438
20328W        W35797  11.354   0.451  13.280 -0.3491 -0.2277 -0.1256
20329W        W35798   8.063   1.599   0.639  0.0180 -0.1471  0.1735
20330W        W35799  14.008   5.506   1.369 -0.2738 -0.1913 -0.0361
20331W        W35800   2.551  17.552  12.335  0.2616 -0.1659 -0.2822
20332W        W35801  13.564   8.365  14.012 -0.1381 -0.1585  0.2018
20333W        W35802   4.228  16.323   1.082  0.0744  0.0792  0.0161
20334W        W35803  18.202  12.312  13.669  0.0791 -0.2604  0.0163
20335W        W35804  17.403  14.468   3.985 -0.2686 -0.0830 -0.0715
20336W        W35805  15.277  10.599  11.241  0.1423 -0.0740  0.1252
20337W        W35806   1.816  10.899  15.269 -0.0574  0.0182  0.1919
20338W        W35807   2.624   3.549  15.749 -0.1592  0.1216  0.1262
20339W        W35808  11.372   0.345  15.803  0.0986  0.2856 -0.1260
20340W        W35809   9.959   1.846   1.470  0.3332 -0.1333 -0.0516
20341W        W35810   6.712  17.172  12.273 -0.1060  0.1256 -0.0025
20342W        W35811  14.079   9.983  12.476  0.1553  0.1294  0.0798
20343W        W35812   1.855   9.871  12.181 -0.6085 -0.1430  0.1107
20344W        W35813  12.068  11.147   2.702 -0.4309  0.0478 -0.4599
20345W        W35814   7.762  13.294  15.025  0.1066  0.4443 -0.2342
20346W        W35815  10.462   2.842   5.712  0.1388 -0.2812 -0.1236
20347W        W35816  15.632  12.922  15.642 -0.0496  0.2144 -0.0910
20348W        W35817  14.583  16.392   1.286  0.0877  0.2139  0.0252
20349W        W35818   8.544  12.106   3.091  0.1693  0.2345 -0.4565
20350W        W35819   2.796   7.693   0.349  0.1675 -0.0015 -0.1682
20351W        W35820  13.874  15.419  12.274 -0.0372  0.0403  0.0351
20352W        W35821  17.241   2.883   2.753  0.0328  0.1741  0.4472
20353W        W35822   9.908   2.071  12.343  0.3269 -0.2685  0.2797
20354W        W35823   1.181  11.891   0.984 -0.1376  0.1004  0.0156
20355W        W35824   5.799   1.496   1.048 -0.0959  0.2200 -0.1870
20356W        W35825   9.609   4.248  11.767  0.2887 -0.1790 -0.0514
20357W        W35826   0.601  17.283  14.795  0.0829 -0.0290  0.0066
20358W        W35827   5.983   1.658   0.027 -0.0901  0.0435 -0.1395
20359W        W35828   3.628  15.767  12.042 -0.0183  0.0134  0.0465
20360W        W35829   0.560  15.951   2.440  0.0848 -0.0688  0.0390
20361W        W35830   8.520   2.881   3.130 -0.0463 -0.2433  0.1923
20362W        W35831  13.102  16.819  11.849 -0.1003  0.1531  0.2464
20363W        W35832  14.405  17.278  14.764  0.1035 -0.0291 -0.2636
20364W        W35833  15.742   9.976  10.985  0.1261 -0.0819  0.0718
20365W        W35834  15.381  15.646   3.431 -0.1506 -0.3780  0.0310
20366W        W35835  14.236   0.498   6.129 -0.0489  0.0168  0.1668
20367W        W35836  10.615   1.771   3.602 -0.1423 -0.1538 -0.0490
20368W        W35837   1.788  15.066   5.344 -0.1509  0.3223  0.0475
20369W        W35838   9.500   1.136  13.683  0.2244 -0.1476 -0.2851
20370W        W35839  15.992   0.682   1.334 -0.0391 -0.2579  0.0330
20371W        W35840  17.119   6.664   1.538  0.0900  0.2888  0.2171
20372W        W35841   2.769  14.213   5.610 -0.0201  0.0694 -0.0946
20373W        W35842   6.682  12.297   1.418 -0.0644 -0.1105 -0.0698
20374W        W35843   0.479  10.786   2.610  0.1035 -0.0255 -0.2526
20375W        W35844   7.731   2.894  12.706 -0.0338 -0.1741 -0.0659
20376W        W35845   7.045  17.559   0.565 -0.3677  0.4445 -0.2445
20377W        W35846  16.091  10.770  14.887 -0.2540  0.2289  0.2900
20378W        W35847  12.633  11.207  11.991 -0.1113  0.1720 -0.1077
20379W        W35848  10.217  12.065   0.665  0.1481 -0.0294  0.1565
20380W        W35849   6.576   1.928   1.702 -0.0660  0.0266  0.3345
20381W        W35850  12.529   3.674   3.071 -0.1373 -0.1238 -0.0072
20382W        W35851  13.071   9.422   2.488  0.1975 -0.0900 -0.1176
20383W        W35852   4.839   4.733  15.311  0.0959 -0.2453  0.1098
20384W        W35853   4.920  17.119   1.837 -0.0238 -0.4443 -0.1658
20385W        W35854   5.990  16.656   0.647  0.0904 -0.2881 -0.0433
20386W        W35855   2.238   1.803   5.171 -0.0080 -0.2421 -0.0696
20387W        W35856   7.603   5.236   4.616 -0.1944  0.0225  0.0229
20388W        W35857   8.193   7.801  12.487  0.0273  0.1504  0.1519
20389W        W35858  12.988  11.817   3.797 -0.0228  0.1624 -0.1695
20390W        W35859   0.716   5.682   4.924  0.3364  0.0733 -0.0030
20391W        W35860  18.191  15.014  10.656  0.0146  0.1398  0.0762
20392W        W35861   5.321  13.715  14.063  0.1267  0.1248  0.0489
20393W        W35862  16.327   5.284  12.865 -0.2124  0.1716  0.3121
20394W        W35863   5.304   6.854   3.813  0.0100  0.2230 -0.1995
20395W        W35864   7.045  16.875   4.503 -0.0201 -0.2750 -0.1775
20396W        W35865  13.881  16.011  13.184 -0.1620  0.2786  0.2314
20397W        W35866  14.972  18.052   3.990  0.0438 -0.0043  0.1308
20398W        W35867   3.645   6.714  11.211 -0.1580 -0.0603 -0.3569
20399W        W35868   7.627   2.065   0.906  0.0469 -0.0825 -0.1751
20400W        W35869  12.612  17.874  12.837 -0.2134 -0.1675  0.2136
20401W        W35870   0.342   8.956  11.543  0.0198 -0.0021  0.0855
20402W        W35871  11.767   7.536   0.165  0.1195 -0.2004  0.0741
20403W        W35872   9.474   1.644   1.377 -0.2802  0.3223  0.0937
20404W        W35873   7.494  18.290  13.402 -0.1448  0.0052 -0.0565
20405W        W35874   1.767  14.582   5.537 -0.1740 -0.0679 -0.1144
20406W        W35875   5.759  11.209  14.282 -0.0850 -0.1073 -0.0724
20407W        W35876  15.388  12.116  14.458  0.0107 -0.1507 -0.1814
20408W        W35877  17.700   9.627  11.156 -0.0103 -0.2506 -0.0676
20409W        W35878  13.117  17.614  13.677  0.1618  0.0078  0.1204
20410W        W35879   6.047  13.845  14.138  0.1519  0.1351  0.2451
20411W        W35880   9.542  15.728   1.308 -0.1551 -0.0260  0.2365
20412W        W35881   9.239   4.933   2.505  0.1525  0.1288  0.0295
20413W        W35882  16.551  17.093  11.034 -0.0108  0.3506 -0.0724
20414W        W35883  18.090  16.138   0.279  0.0844  0.1070 -0.4694
20415W        W35884  12.850  13.368  10.348  0.2844 -0.1722  0.0415
20416W        W35885   8.615   1.122   0.892 -0.1047  0.0405 -0.2842
20417W        W35886  17.543   7.265  13.255 -0.0034  0.2058 -0.0186
20418W        W35887  13.059   9.293  15.996 -0.1483  0.0844 -0.2320
20419W        W35888   7.353  12.419   0.556 -0.3615 -0.0273 -0.1730
20420W        W35889   9.128  14.178  14.645  0.1775 -0.0125  0.0707
20421W        W35890   5.752  12.712   2.461  0.0554  0.6301  0.1020
20422W        W35891   6.285   6.829   3.000  0.1137  0.2043 -0.1043
20423W        W35892  10.786  14.168  11.509 -0.2408  0.0156  0.1742
20424W        W35893   6.749   8.485   4.814 -0.0504 -0.1242 -0.0878
20425W        W35894   8.793   1.858   1.464 -0.0555  0.0492 -0.2858
20426W        W35895   8.476   8.450  11.839  0.0457 -0.0559  0.0152
20427W        W35896  13.483   9.455   0.776 -0.2259 -0.0225 -0.1465
20428W        W35897   5.286   3.284  15.759 -0.1010  0.2663  0.1917
20429W        W35898   6.475   5.777   2.830 -0.2354 -0.3526 -0.2883
20430W        W35899   2.556   3.071  14.187 -0.3724 -0.0881 -0.1815
20431W        W35900  10.429   1.983  13.754 -0.0766  0.1570  0.1637
20432W        W35901   6.628  10.513  10.817 -0.0893 -0.0275 -0.1004
20433W        W35902  12.124   2.507   2.708 -0.1695  0.1881  0.0307
20434W        W35903   1.583  15.656   0.364 -0.0318 -0.1345  0.0409
20435W        W35904  15.368  14.339  11.170  0.2996  0.1969 -0.2267
20436W        W35905   2.616  17.281  15.238 -0.4770 -0.3196  0.1767
20437W        W35906   4.549  16.262  14.237  0.1836 -0.2806 -0.0184
20438W        W35907  12.639   6.004  14.268 -0.2757 -0.0575 -0.1874
20439W        W35908   8.366   2.388   1.937 -0.2462  0.0537 -0.1051
20440W        W35909  11.557   0.296  13.758 -0.0136 -0.1976  0.2470
20441W        W35910  18.146  17.767  12.474 -0.0268 -0.0569 -0.2152
20442W        W35911  11.137   6.822   2.796  0.2070  0.0459  0.0078
20443W        W35912  15.058   3.174  10.567  0.2363  0.0212  0.0546
20444W        W35913  17.129   9.892   5.578 -0.0208 -0.0949 -0.2891
20445W        W35914  12.123  16.157  12.822  0.1148 -0.0485 -0.2627
20446W        W35915  11.106  18.341  13.922 -0.0312  0.0288 -0.5203
20447W        W35916  11.513   2.286  13.481  0.3067  0.0382  0.0567
20448W        W35917   1.118   6.893   0.095  0.2774  0.0828 -0.1345
20449W        W35918  12.964  18.078  14.584 -0.2921 -0.0118 -0.1954
20450W        W35919  11.935   1.720  11.641  0.2135  0.1508 -0.2334
20451W        W35920   5.774  16.853  14.553  0.2884  0.1345  0.0392
20452W        W35921   3.793   3.838   0.902  0.1180  0.3648 -0.0797
20453W        W35922   3.045  15.578   0.601 -0.0400  0.1320 -0.3829
20454W        W35923  14.651   9.033   4.440 -0.0937  0.1476  0.2528
20455W        W35924  18.300  11.156  12.733 -0.2481 -0.1927 -0.1029
20456W        W35925  10.164  12.128  13.261 -0.1326  0.2073 -0.1554
20457W        W35926  11.595  16.036   5.230 -0.0418 -0.0171 -0.1353
20458W        W35927   5.525  10.057  12.746 -0.1731  0.0848 -0.1315
20459W        W35928   9.789   9.381  13.271 -0.0797  0.3084  0.1279
20460W        W35929   0.747   6.131   1.991  0.2679 -0.3195 -0.0021
20461W        W35930   7.649   0.651   4.407  0.1693 -0.1957  0.1558
20462W        W35931   4.920   9.061  15.799  0.0023  0.0853  0.0730
20463W        W35932   2.965  12.957   4.676  0.0503 -0.0294  0.0525
20464W        W35933  16.529  18.309   0.750 -0.1040  0.2444  0.2147
20465W        W35934   8.460   6.922   0.101  0.0967 -0.0350 -0.1802
20466W        W35935   0.456  10.298  11.038  0.2931 -0.1825  0.0742
20467W        W35936  17.803   1.231  13.667  0.1235 -0.0923 -0.1885
20468W        W35937   5.018  13.050   1.428 -0.0628 -0.1099 -0.0250
20469W        W35938  12.999   7.515   3.954  0.1264  0.1532  0.0197
20470W        W35939   1.058   9.743   9.837  0.1596  0.2299  0.0738
20471W        W35940   7.810   7.729   5.068 -0.0422 -0.0228  0.1569
20472W        W35941   2.903   7.519   5.107  0.1267 -0.0081  0.0455
20473W        W35942  16.981   4.525   1.117 -0.0868  0.1147 -0.1034
20474W        W35943  16.134  10.839   2.436 -0.1282 -0.0275 -0.0571
20475W        W35944   8.012   1.568  14.872 -0.0932 -0.2010 -0.2505
20476W        W35945   1.648   8.385  11.154 -0.2755 -0.0002 -0.2297
20477W        W35946   5.182  14.197  14.292  0.0133 -0.2192  0.2413
20478W        W35947   2.509  14.023   6.141 -0.0365 -0.2226  0.0075
20479W        W35948   2.736  15.584   5.808  0.1236 -0.1838  0.4571
20480W        W35949  18.457  10.954  15.151  0.2403  0.0129 -0.0171
20481W        W35950   9.969   9.433   3.706  0.1908 -0.1958  0.1232
20482W        W35951   1.546   7.035  11.868  0.0272 -0.0507 -0.1018
20483W        W35952  12.272   6.933   3.111 -0.1598  0.2141  0.0370
20484W        W35953   0.221   2.175   3.295  0.0541 -0.0790  0.2164
20485W        W35954   3.050   7.744   1.753  0.3834  0.1721  0.0599
20486W        W35955  17.397   8.177   2.510 -0.1726  0.1380  0.1914
20487W        W35956  16.975   4.043  12.001 -0.0850  0.0131 -0.1920
20488W        W35957   5.587  17.736   0.382 -0.2649  0.1299  0.0821
20489W        W35958  11.534   5.127   5.381 -0.1478  0.1205  0.1186
20490W        W35959   8.850  15.821   3.359 -0.0600  0.0900  0.0081
20491W        W35960   5.044   5.730  11.432  0.1115 -0.0178  0.0965
20492W        W35961  16.785   5.598  12.170 -0.0382 -0.2755 -0.2461
20493W        W35962   1.129   6.653  14.661 -0.3447 -0.1352 -0.2574
20494W        W35963   8.854   4.243   0.703 -0.0584 -0.1679 -0.0346
20495W        W35964   8.538  13.473   1.055 -0.2189  0.1571  0.0527
20496W        W35965   6.252  17.497  10.532  0.1319 -0.2889  0.2936
20497W        W35966  13.539  18.321   2.414 -0.1902 -0.1955 -0.1599
20498W        W35967   6.835   4.754   0.477  0.0960 -0.0707 -0.1619
20499W        W35968   1.870  13.102  11.592  0.2639 -0.1276 -0.0336
20500W        W35969   9.316  15.734   4.799 -0.1972  0.0766 -0.0968
20501W        W35970  15.483  11.825   4.756  0.0808  0.0370  0.2009
20502W        W35971  11.327   2.957  15.248  0.0213 -0.1034 -0.3804
20503W        W35972   1.300  12.364  15.617  0.1143 -0.1693 -0.2231
20504W        W35973  17.953   6.276  12.605  0.0172 -0.3596 -0.3014
20505W        W35974   1.160  10.907  12.226 -0.0877  0.0967 -0.3347
20506W        W35975   8.383   7.129  10.833 -0.0003 -0.0590  0.0611
20507W        W35976  13.180  12.814   3.573  0.1245 -0.0321 -0.0426
20508W        W35977   4.144   5.894   5.130 -0.0241 -0.2797  0.1815
20509W        W35978  11.297   7.513  13.016  0.0592 -0.2679  0.1300
20510W        W35979   8.896   9.325   1.815  0.0875  0.0114 -0.5285
20511W        W35980   7.423  13.339   2.767 -0.0847 -0.3948 -0.0787
20512W        W35981   7.764  18.227  15.762  0.1913 -0.0848 -0.1665
20513W        W35982  16.037   4.016  14.992  0.2196 -0.0025 -0.0512
20514W        W35983   5.277  12.231   3.657  0.0806 -0.1429 -0.1917
20515W        W35984   0.293  11.357   1.155 -0.0329 -0.1611  0.2441
20516W        W35985  11.519   2.465   5.633 -0.0827  0.0576  0.2021
20517W        W35986   2.739  18.224   3.442 -0.0052  0.0091  0.1112
20518W        W35987  16.270  10.007   0.418  0.4280 -0.0523 -0.2814
20519W        W35988   1.466   5.296   5.475  0.2142 -0.1067 -0.0664
20520W        W35989  12.748  17.101   2.534  0.0261  0.0514  0.1685
20521W        W35990  18.073   4.054   1.912 -0.1815  0.1829  0.4155
20522W        W35991   6.062  14.164   2.957  0.0369 -0.0242 -0.1005
20523W        W35992  14.800   2.064  12.262  0.1419 -0.0239 -0.1648
20524W        W35993   3.135  17.388   3.532 -0.0566 -0.0045 -0.0682
20525W        W35994   8.438   3.245   5.891  0.1492  0.0739  0.0310
20526W        W35995   2.586  12.172   0.054  0.1817 -0.1468  0.1130
20527W        W35996   9.149  10.664   3.999  0.0680 -0.1203  0.2015
20528W        W35997  16.716   0.894   0.789  0.0989  0.1358  0.1133
20529W        W35998  15.750  16.991   3.726  0.1515 -0.2956 -0.1201
20530W        W35999  17.674   4.927   0.438 -0.2938  0.0566 -0.2787
20531W        W36000  10.144  14.047  14.530 -0.0211 -0.0140  0.1971
20532W        W36001  18.096  15.697  11.368  0.2411 -0.1253  0.2707
20533W        W36002  11.533   0.802  14.744 -0.0796  0.1432  0.1607
20534W        W36003  18.170  17.202   4.966  0.1806  0.0448  0.1308
20535W        W36004   0.848  13.004  13.553 -0.1291  0.0785  0.2608
20536W        W36005   7.348  14.028   1.784 -0.2367  0.2211  0.4061
20537W        W36006   5.798  11.773   1.511  0.0010 -0.1718  0.3341
20538W        W36007  11.523   9.674  11.351 -0.0052 -0.3229  0.1865
20539W        W36008   0.093   1.491  15.536 -0.2478 -0.1508  0.2249
20540W        W36009   9.697   5.849   0.937  0.1344  0.1918  0.0234
20541W        W36010  16.836   3.990   0.662 -0.0683  0.0802  0.0990
20542W        W36011   0.029  13.827   2.412 -0.0077 -0.0935 -0.0128
20543W        W36012   0.168   4.922   1.605  0.1637 -0.3733  0.0097
20544W        W36013   1.425  18.168  11.677  0.4429  0.0391 -0.1041
20545W        W36014   6.453   1.829  12.463  0.0943 -0.2286  0.0638
20546W        W36015   9.499   3.709  11.181 -0.2080 -0.1446  0.2441
20547W        W36016   9.063   7.927   0.380 -0.0327  0.0215 -0.0991
20548W        W36017   6.198   2.789  13.413  0.1395  0.1535  0.2156
20549W        W36018   9.183   4.925  14.017  0.2533 -0.4187 -0.1608
20550W        W36019   4.411  10.935   5.822  0.0829  0.2500  0.0003
20551W        W36020   1.068  18.205   5.419  0.0150  0.0397  0.1373
20552W        W36021  12.671  16.696  14.180  0.1220 -0.1890  0.2616
20553W        W36022   3.174   5.739  12.643  0.0617 -0.0335 -0.0021
20554W        W36023   1.823  17.683  12.908  0.0157  0.0144  0.1953
20555W        W36024   4.940   9.753   2.735  0.3090  0.2418 -0.0015
20556W        W36025  16.195  12.679  11.763  0.2202 -0.1432  0.0126
20557W        W36026   5.080   1.630  10.422  0.1319  0.2106  0.2531
20558W        W36027   7.460  11.722  11.505  0.1822 -0.1821  0.0518
20559W        W36028  16.478  12.016  14.605 -0.5603 -0.0747  0.1920
20560W        W36029  16.146  14.310   0.381 -0.1321  0.3729  0.0071
20561W        W36030   3.730   2.256  12.559  0.0120  0.2710 -0.1500
20562W        W36031  18.408  17.324  14.280  0.0918  0.3264  0.3516
20563W        W36032  13.052   9.072  12.673 -0.1693  0.0657 -0.1102
20564W        W36033  18.215   8.922  13.480 -0.0888  0.1455  0.2735
20565W        W36034  13.334   6.415  15.989 -0.2326 -0.0709  0.1890
20566W        W36035  15.227  10.119  15.735 -0.1739 -0.0772  0.1917
20567W        W36036   4.716  17.256   5.395  0.0605 -0.2300  0.0118
20568W        W36037   9.554   7.559  16.006  0.2999  0.1106 -0.0226
20569W        W36038   8.906  16.910  11.143  0.2097  0.2140 -0.0709
20570W        W36039  14.330  12.004   3.001  0.0582  0.1235 -0.2219
20571W        W36040   5.367   5.779   0.916 -0.2061  0.5327  0.0931
20572W        W36041  15.133  13.402   2.502  0.0224  0.4824  0.0414
20573W        W36042   0.839   6.945  14.153  0.0438 -0.0436 -0.1938
20574W        W36043  16.733   8.586   4.259 -0.0344 -0.0075  0.0693
20575W        W36044   8.736   4.009  15.099  0.2670  0.1029  0.0459
20576W        W36045  12.791  10.549   3.159 -0.0036  0.0190 -0.1958
20577W        W36046  13.354   5.825  12.548 -0.0554 -0.0993 -0.1888
20578W        W36047  10.125  10.705  14.898 -0.0187  0.0136  0.1116
20579W        W36048  14.149   2.168  11.872  0.3698  0.2184  0.2291
20580W        W36049   3.564  16.915  14.179 -0.0153  0.4819 -0.3014
20581W        W36050  10.170  11.392   1.821  0.1694 -0.3125  0.0280
20582W        W36051  16.653   0.666  15.854 -0.1344  0.0063  0.1162
20583W        W36052  16.305  14.635  14.793 -0.1653 -0.0706  0.1066
20584W        W36053  13.034   0.712   6.175 -0.1953  0.0579  0.1030
20585W        W36054  17.708  15.993  13.003 -0.0125 -0.0576 -0.2454
20586W        W36055   8.021  16.912  15.725  0.3193  0.0823  0.1286
20587W        W36056   2.243  11.594   1.907  0.2110  0.1168  0.2215
20588W        W36057   1.253  10.089  13.407  0.1458  0.2502  0.0978
20589W        W36058  16.392   0.285  15.397 -0.0530  0.1635  0.2404
20590W        W36059   7.569   3.598  11.766 -0.1326 -0.1888 -0.1811
20591W        W36060  12.659  14.360  11.058  0.1613  0.1069 -0.1297
20592W        W36061   7.110   4.172  13.575 -0.1500  0.2564 -0.2059
20593W        W36062  15.223   7.821  12.770 -0.0514 -0.2314 -0.1658
20594W        W36063  17.381   5.418  13.525  0.1140 -0.0868  0.1785
20595W        W36064  14.990  13.037   3.811 -0.0169 -0.0206  0.1539
20596W        W36065  10.743  10.076   2.020  0.3366  0.2724 -0.0551
20597W        W36066  14.179  15.254  11.189 -0.2868 -0.2623  0.1205
20598W        W36067  15.195   1.708  15.595  0.0498  0.2950 -0.0675
20599W        W36068   9.223   9.826  11.837 -0.2578 -0.1939  0.3113
20600W        W36069   6.811   1.386  11.283 -0.1668  0.1867  0.3254
20601W        W36070  12.736   4.838   0.697 -0.0123 -0.3885 -0.1808
20602W        W36071  12.114  17.734   3.179  0.1342 -0.0497 -0.0802
20603W        W36072   2.302  13.625   4.508  0.2721 -0.1014  0.0454
20604W        W36073  11.625   2.868   4.746  0.0497  0.1711 -0.0703
20605W        W36074  18.010  14.982  14.973  0.0327 -0.2359 -0.1094
20606W        W36075   2.062  14.387   4.777  0.1697 -0.2375 -0.0191
20607W        W36076   6.655  10.915   3.652  0.1481 -0.0111  0.0856
20608W        W36077  17.444  11.282   0.975 -0.1010 -0.2909 -0.0946
20609W        W36078   2.809  10.126   2.744  0.3625 -0.0384 -0.0709
20610W        W36079   4.336   4.985  15.373 -0.2295  0.2146  0.0808
20611W        W36080  17.974  10.390   3.503 -0.0428 -0.1919 -0.1656
20612W        W36081   7.408  17.465   2.748 -0.1751 -0.2321  0.1758
20613W        W36082   1.725  10.698  12.751 -0.0613  0.0534 -0.1795
20614W        W36083  14.873  15.511   3.439  0.3404 -0.1159  0.4483
20615W        W36084   2.149   0.869   3.621 -0.1980  0.0483 -0.2362
20616W        W36085   8.176  10.091  11.217  0.1433 -0.2152 -0.0873
20617W        W36086  17.975   0.624  15.785  0.1218 -0.0916 -0.4288
20618W        W36087   3.659   0.762   2.905 -0.0645 -0.1401 -0.0507
20619W        W36088   6.175   1.539   4.605  0.0057 -0.0877  0.2762
20620W        W36089  17.401   5.754   5.041 -0.1218  0.0575  0.2113
20621W        W36090  12.869  11.269   1.056 -0.1334  0.1755 -0.0792
20622W        W36091   1.149  10.199  12.837  0.0784  0.0182  0.2177
20623W        W36092  15.139   9.721   4.179  0.0410  0.0055 -0.0860
20624W        W36093   1.180  16.492  12.675  0.0602  0.1163 -0.1473
20625W        W36094  14.949  15.198   5.027 -0.1835  0.0854  0.0749
20626W        W36095   4.958  10.851   5.023  0.3412  0.1676 -0.1274
20627W        W36096  15.173  13.577   1.251  0.0229  0.0137  0.2212
20628W        W36097  16.102  14.456  11.778 -0.1325 -0.3138 -0.0087
20629W        W36098   6.255   4.668   3.734 -0.1104  0.1775  0.0714
20630W        W36099   6.485   6.985  13.604  0.1203  0.1077 -0.1249
20631W        W36100   4.362  11.775  13.521  0.0454  0.0895 -0.0942
20632W        W36101  11.972   5.281  12.229 -0.3367  0.0524  0.0697
20633W        W36102  13.929  14.548  15.147 -0.3032 -0.1446 -0.0483
20634W        W36103  10.373   6.353   1.769  0.0324 -0.0927  0.0478
20635W        W36104  17.303  10.498  11.057  0.1799 -0.0523 -0.2190
20636W        W36105  12.464   8.610   3.727  0.2328 -0.3040  0.1146
20637W        W36106  13.722  18.423   2.878  0.0516  0.0242  0.2623
20638W        W36107   4.504   2.959   2.283 -0.0849 -0.1959  0.0437
20639W        W36108   4.786   4.526  11.045 -0.1923 -0.1705 -0.0682
20640W        W36109   8.925  17.586  14.863 -0.1511  0.0818 -0.1392
20641W        W36110  18.246   4.124   4.186 -0.2329  0.1244 -0.2707
20642W        W36111   2.315   7.421  11.256 -0.0132 -0.1107 -0.0139
20643W        W36112   5.068   0.180  15.168  0.4812 -0.4893 -0.0174
20644W        W36113   3.186   0.896  10.979  0.0809  0.0179 -0.0703
20645W        W36114  11.429  15.818  11.883  0.3972  0.4200 -0.3788
20646W        W36115   1.943  18.264  14.955  0.2423 -0.0281 -0.1490
20647W        W36116   6.144   4.182  11.268  0.5154 -0.0100  0.1446
20648W        W36117  16.074  11.837  11.821 -0.0183  0.1168 -0.2528
20649W        W36118  16.576  15.422  10.052  0.1505 -0.0535 -0.1565
20650W        W36119   3.339   5.869   0.332 -0.0612 -0.0015  0.0002
20651W        W36120   8.355   0.919  15.895 -0.1962  0.1767 -0.0025
20652W        W36121   6.490  12.223   0.405 -0.2118  0.3159  0.1694
20653W        W36122  12.580  13.642  11.883  0.3831 -0.3492  0.1052
20654W        W36123   9.141   5.504  12.913 -0.2178  0.1413 -0.1893
20655W        W36124  17.057   3.605  12.929 -0.0374 -0.0389  0.1371
20656W        W36125  18.320  14.585   0.136  0.2754  0.0898  0.0727
20657W        W36126  12.174   5.706   2.352  0.0525 -0.0808  0.3135
20658W        W36127   0.904  16.848   3.080  0.3380 -0.0749  0.4644
20659W        W36128   4.944   6.933   0.731  0.3861 -0.0353  0.0429
20660W        W36129  13.281   6.468   0.474  0.2697 -0.0193 -0.2831
20661W        W36130  14.339   5.233   2.270 -0.1027 -0.0964  0.1186
20662W        W36131  15.337  15.198  12.715  0.1823  0.0796  0.2293
20663W        W36132  15.868   7.255  11.540  0.1102 -0.0479 -0.1699
20664W        W36133   3.878  16.248   5.532  0.2057  0.0353  0.1150
20665W        W36134  17.413   9.089   2.588  0.2071  0.1569  0.2558
20666W        W36135   5.893   5.598   0.970  0.1102 -0.0476  0.0552
20667W        W36136   8.276  16.835   1.160  0.0155  0.1672  0.5563
20668W        W36137   1.416  16.888  13.328 -0.0999 -0.0609  0.2467
20669W        W36138   7.524   5.845  15.416  0.1151  0.2048 -0.0700
20670W        W36139  12.712   3.448  15.789  0.1687 -0.0949  0.1859
20671W        W36140  12.894  11.768   1.907  0.0517 -0.2264  0.2784
20672W        W36141  10.397   8.864   1.372  0.0195  0.0437 -0.1949
20673W        W36142   6.656   1.838  10.394  0.3607 -0.1078 -0.0554
20674W        W36143   9.597   7.284   5.788 -0.0012 -0.0147  0.0398
20675W        W36144  14.666  14.657  13.690 -0.4082  0.2144 -0.0428
20676W        W36145   7.842  11.931   0.290  0.1140  0.3102 -0.0764
20677W        W36146  14.517  10.456   1.714  0.0189 -0.0647 -0.0589
20678W        W36147  14.459  14.916   0.138 -0.1789 -0.0973 -0.3749
20679W        W36148   5.072   3.000   4.579 -0.1048 -0.1442 -0.0058
20680W        W36149   9.350   7.577  13.398 -0.0578  0.0796 -0.0560
20681W        W36150  13.657   2.126   4.590 -0.0110  0.0526 -0.2371
20682W        W36151   8.187  14.355   4.782 -0.0146 -0.1705 -0.1272
20683W        W36152  14.019   0.379   3.955  0.0754 -0.1498  0.1667
20684W        W36153  13.506   8.699  15.963 -0.0832 -0.3396  0.3094
20685W        W36154   6.584   2.363  14.987  0.1563  0.5669 -0.3106
20686W        W36155  12.577  17.147   2.996 -0.0853  0.0144 -0.2941
20687W        W36156   9.294  11.295  12.576  0.1034  0.3670 -0.2329
20688W        W36157   9.910   7.435  14.342  0.0695  0.2948  0.0708
20689W        W36158   5.297  15.428  13.520  0.1637  0.1865  0.3327
20690W        W36159   6.920  16.808  12.901 -0.0928 -0.2549  0.0412
20691W        W36160   9.690  14.573  13.807 -0.0492 -0.1177 -0.0270
20692W        W36161   0.491   3.793   4.339 -0.3335 -0.2357  0.1885
20693W        W36162   0.742  16.513  15.347  0.1797  0.0943  0.3179
20694W        W36163   7.260  13.669  11.928  0.0139 -0.1842  0.2298
20695W        W36164   5.110   1.475  13.202  0.0315  0.1251 -0.1490
20696W        W36165   5.080   0.716   3.913 -0.1200 -0.3736 -0.2612
20697W        W36166  12.625  16.479   1.752 -0.1637 -0.1513  0.2046
20698W        W36167   9.083  11.952   4.516 -0.0045 -0.2060  0.0349
20699W        W36168  15.976   8.814   1.679 -0.0089 -0.0050  0.0574
20700W        W36169   4.615  15.736  12.461  0.2456 -0.1272  0.1638
20701W        W36170   9.076   4.265  15.780  0.0448  0.1299 -0.2152
20702W        W36171  10.867  14.371  10.719 -0.1039  0.4415 -0.1091
20703W        W36172   7.442  17.597  12.419 -0.3381  0.3151 -0.3556
20704W        W36173  16.342   6.409  11.346  0.2116 -0.1497  0.1972
20705W        W36174   4.001   9.380   5.525 -0.1517  0.1545  0.0737
20706W        W36175  16.007   7.071   3.884 -0.3200 -0.0006 -0.1565
20707W        W36176   5.097  17.305  15.652  0.2041  0.0878 -0.0447
20708W        W36177  11.996   2.056   2.404 -0.0245 -0.2652  0.1574
20709W        W36178   4.502  13.945  13.787  0.2459  0.1504  0.0991
20710W        W36179   8.641  12.218  13.986  0.1001 -0.0779 -0.0283
20711W        W36180   5.821   5.709  13.197  0.1095 -0.2972  0.3019
20712W        W36181  14.522  16.294  11.592 -0.1435 -0.0903 -0.3337
20713W        W36182   7.980   9.023   3.387  0.2271  0.3652  0.3011
20714W        W36183  17.048  14.107  14.363  0.1261 -0.0127  0.0973
20715W        W36184  13.551   5.289  12.685 -0.5912 -0.1643  0.2282
20716W        W36185   7.995   0.336   5.681 -0.1845 -0.0821  0.1444
20717W        W36186   7.758  11.858  13.846 -0.1275 -0.0657 -0.0478
20718W        W36187   2.716   5.751   3.916  0.4238 -0.0607 -0.3147
20719W        W36188  13.300  12.166  12.908  0.3009 -0.1218  0.0549
20720W        W36189  13.565   4.000   4.828  0.1076 -0.0449  0.0853
20721W        W36190   5.756   9.928   4.798  0.0803 -0.2817 -0.0345
20722W        W36191  15.583   0.136   5.100  0.2683 -0.0197  0.0329
20723W        W36192  15.545   3.475   3.018 -0.2241 -0.0800  0.2591
20724W        W36193  15.960   9.779  14.802  0.0906 -0.0324 -0.3609
20725W        W36194  15.219   4.168   2.952 -0.2023  0.0823  0.2069
20726W        W36195   0.781  14.316   2.965 -0.0296  0.1819 -0.3654
20727W        W36196   0.561   8.078  11.681  0.1278  0.0270  0.1977
20728W        W36197   8.821   7.237   1.099 -0.0363 -0.1762 -0.0008
20729W        W36198   0.058   8.979   3.437 -0.1644 -0.0192 -0.2011
20730W        W36199  17.420   5.181   1.340 -0.0293  0.0990 -0.0096
20731W        W36200  17.041   8.748  11.024 -0.0080 -0.1805  0.3472
20732W        W36201   7.414  12.588   4.442 -0.3073  0.2089 -0.3046
20733W        W36202   0.982  14.550  10.874 -0.2225  0.0996 -0.0978
20734W        W36203   7.490  11.155  12.982 -0.2391  0.0304  0.3142
20735W        W36204  14.102   2.038   0.403  0.0743  0.1289 -0.4868
20736W        W36205   2.173   7.957   0.090  0.2542 -0.2386 -0.1040
20737W        W36206   0.355   6.550  12.314  0.0684 -0.1412  0.0392
20738W        W36207   2.856   7.762  12.367  0.0887  0.1589  0.0078
20739W        W36208  13.569   2.281   5.403  0.2132 -0.1939  0.0389
20740W        W36209   0.733   9.876  11.338  0.0437  0.2543  0.0369
20741W        W36210   7.054  12.930  15.899 -0.1167  0.1604  0.2712
20742W        W36211   0.031   2.148  15.030 -0.0171 -0.1504 -0.2226
20743W        W36212   7.765   5.667   0.245 -0.0206 -0.3190  0.1767
20744W        W36213  10.893  16.015   3.966  0.1129  0.0478  0.1815
20745W        W36214  10.302  14.095  15.166  0.1953 -0.0608 -0.0250
20746W        W36215   1.379  10.745  14.536  0.2969 -0.2171 -0.4353
20747W        W36216   1.966   1.682   1.260 -0.0892 -0.0459 -0.5032
20748W        W36217   1.066   9.569  11.978 -0.5566 -0.1990  0.0410
20749W        W36218   5.661  14.477   3.233 -0.0960  0.0014  0.2911
20750W        W36219  16.597   3.641  14.991  0.1349  0.2459  0.0327
20751W        W36220   2.062   0.275  13.282  0.2586 -0.0195 -0.1553
20752W        W36221  12.719   4.910  12.602  0.0346 -0.0921 -0.0040
20753W        W36222   0.750   2.047   0.237  0.2786 -0.1298 -0.3079
20754W        W36223  15.266  15.927  10.800  0.0052 -0.1386 -0.2085
20755W        W36224   3.643   8.969   5.453  0.0364  0.0583  0.3955
20756W        W36225   3.247  18.223  13.482  0.1103  0.2697  0.1465
20757W        W36226  16.162  10.759  14.053 -0.2480  0.0958 -0.0273
20758W        W36227  18.299  10.817  13.125  0.2937 -0.0835 -0.1118
20759W        W36228  16.377  14.651   3.008  0.1155 -0.0013  0.0750
20760W        W36229   6.448   4.048   1.049 -0.1376  0.2743 -0.1155
20761W        W36230   7.483   8.131  14.929  0.0086 -0.0425 -0.2902
20762W        W36231  16.839  13.635   3.124  0.1207  0.1641 -0.0325
20763W        W36232   8.368  10.875   4.911  0.2451 -0.2850  0.0759
20764W        W36233   5.946  18.123  13.341 -0.1524  0.0957  0.0939
20765W        W36234   8.400   6.821   0.885  0.1661  0.1557 -0.0352
20766W        W36235   0.962   2.645   4.105  0.1747 -0.1370  0.0898
20767W        W36236  15.392   5.711   4.734  0.1465 -0.0286 -0.0175
20768W        W36237   2.839   2.547  10.749  0.1034  0.0070 -0.1686
20769W        W36238   6.788  15.870  15.102  0.0924  0.1013 -0.0263
20770W        W36239  15.215  13.137   4.286  0.3834 -0.2574  0.3600
20771W        W36240   0.388  11.359   0.457  0.3049  0.1430 -0.3802
20772W        W36241  16.300   7.982   5.783  0.1531 -0.0319 -0.2738
20773W        W36242   0.547   3.899   2.208 -0.1835  0.0117 -0.4171
20774W        W36243   2.495  14.858  11.615 -0.0622  0.1450 -0.1710
20775W        W36244  16.463   6.173  15.095  0.0528 -0.0199  0.0393
20776W        W36245   5.017   4.531  14.850  0.0325  0.1357  0.2477
20777W        W36246   9.548  15.448   4.514  0.1348 -0.1028  0.3012
20778W        W36247  10.889  18.192  12.605  0.0410  0.0668  0.0638
20779W        W36248   7.564  14.326   2.170 -0.0511  0.0807 -0.0312
20780W        W36249   9.227   1.240  15.294 -0.3148  0.0839 -0.0156
20781W        W36250  12.297   8.919   1.431  0.1347  0.0593  0.1027
20782W        W36251  13.910   4.992  11.609 -0.0606  0.0901  0.0880
20783W        W36252   6.401  12.983  14.210 -0.0341  0.3556 -0.3627
20784W        W36253   4.772  14.827  13.359  0.2005 -0.1941 -0.1003
20785W        W36254  17.508   6.621   5.561 -0.0971  0.1058  0.1026
20786W        W36255  14.913   2.626   3.097  0.3041  0.3084 -0.1071
20787W        W36256  12.548   5.892   2.677 -0.0560  0.0878  0.1637
20788W        W36257   3.516   3.721  12.219  0.0019 -0.0628 -0.1586
20789W        W36258   3.504   7.931   4.833 -0.2166 -0.0805 -0.0675
20790W        W36259  16.100   1.106  11.809 -0.1249 -0.2469 -0.0402
20791W        W36260   6.483  12.699   1.255  0.1349 -0.3326 -0.0180
20792W        W36261  12.848   5.544  15.198  0.2370  0.2382 -0.0346
20793W        W36262  14.250   7.694  14.650 -0.0313  0.1560  0.4347
20794W        W36263   0.070  11.968   2.231  0.0329 -0.2523 -0.0254
20795W        W36264   7.712   0.272   1.347  0.1740 -0.2373 -0.1588
20796W        W36265   8.982   7.405   3.103 -0.1942 -0.3605 -0.0853
20797W        W36266  12.261   1.418   0.199 -0.1831  0.2630 -0.0557
20798W        W36267  12.450  13.919  10.880 -0.0078  0.0615  0.3790
20799W        W36268   4.513   5.547   1.299  0.1898  0.2432  0.1852
20800W        W36269  15.515   5.251   3.787 -0.4243 -0.2245  0.2111
20801W        W36270   4.996  14.596   2.040  0.1113  0.0444 -0.3126
20802W        W36271   9.544  10.476  11.114 -0.0983 -0.1659 -0.2108
20803W        W36272  11.077   6.606  12.297  0.4273 -0.1800  0.1401
20804W        W36273   0.143   9.544  11.523 -0.0575  0.2478 -0.4885
20805W        W36274   3.648   7.024  15.614  0.2744  0.0836 -0.2348
20806W        W36275  17.116   2.686   5.535  0.0115  0.0345  0.0057
20807W        W36276  12.973  10.363  13.289  0.1006 -0.1399  0.2542
20808W        W36277  11.304   6.483   3.434 -0.2148 -0.0503 -0.0752
20809W        W36278   6.317   3.844  14.548 -0.0488  0.0647 -0.2581
20810W        W36279   3.399  16.290   0.562  0.0283  0.0668 -0.2101
20811W        W36280  12.571  10.611  13.597  0.0648  0.2062  0.2314
20812W        W36281   1.632   2.908  14.476  0.3263  0.4391  0.0971
20813W        W36282   9.205   7.913   4.482 -0.0822  0.1385  0.0999
20814W        W36283   4.209  16.474   4.060 -0.0427 -0.1592 -0.2167
20815W        W36284  13.802  11.973   0.743  0.0768 -0.1334 -0.2974
20816W        W36285   8.891   8.657   6.090  0.1206  0.2365 -0.0044
20817W        W36286   0.339  13.828  15.013 -0.1320  0.1605 -0.0020
20818W        W36287   2.623  17.852   4.385  0.1030  0.0191 -0.1750
20819W        W36288  12.072   5.430  11.583  0.1225  0.3311  0.1230
20820W        W36289  11.120  16.300  15.166 -0.2052  0.1426 -0.0576
20821W        W36290  18.400  11.846   0.540 -0.2334  0.0494 -0.2651
20822W        W36291   7.135  13.980  11.108  0.0226 -0.1273  0.3486
20823W        W36292  17.092  17.141  13.070  0.0736  0.2406  0.2562
20824W        W36293  17.623   1.404   6.501  0.0391  0.1171  0.0223
20825W        W36294   0.411   4.139   2.630  0.0872 -0.0396  0.0963
20826W        W36295   0.740   8.767  11.288 -0.0606  0.1634  0.0163
20827W        W36296   6.491  16.964   9.740 -0.0340  0.1092 -0.1338
20828W        W36297  18.165  12.007   4.239  0.2951  0.0483 -0.0724
20829W        W36298  11.696  13.935   4.386  0.2296 -0.0317 -0.3243
20830W        W36299   2.366  15.962  12.554  0.0440  0.1831 -0.1660
20831W        W36300   7.008  18.341   1.709  0.1028  0.5382 -0.1404
20832W        W36301  14.045   5.054  13.279  0.4910  0.0462  0.0769
20833W        W36302   8.826  13.520  14.098 -0.0709 -0.1533  0.1041
20834W        W36303  16.930   4.103   3.367 -0.0397 -0.1209 -0.0859
20835W        W36304   3.998   7.841   3.376 -0.2998  0.3742  0.0842
20836W        W36305   9.594  18.368  11.234 -0.0261  0.1309  0.0691
20837W        W36306   6.335  12.451   2.142  0.1648 -0.0246 -0.1947
20838W        W36307   6.693   8.852   2.560 -0.1317  0.0780  0.2540
20839W        W36308  18.166  12.525   2.954  0.0464  0.0655  0.0881
20840W        W36309  10.442  14.512   3.886 -0.1930 -0.2378  0.1672
20841W        W36310  14.378   5.188   1.144  0.1290 -0.0578  0.0141
20842W        W36311  11.382  17.741  13.274  0.3828  0.0415 -0.0851
20843W        W36312   5.523  11.870   3.277  0.1085 -0.1051  0.0640
20844W        W36313   4.966   8.694   1.444 -0.1469  0.0151 -0.0297
20845W        W36314  12.465   8.514  14.917 -0.2645  0.0239 -0.0960
20846W        W36315   7.701   5.979   2.870 -0.1205 -0.0484 -0.0293
20847W        W36316  15.973  11.656   4.731 -0.3923 -0.1866  0.2157
20848W        W36317   5.012  14.943  10.462  0.0018 -0.0121  0.2410
20849W        W36318  15.968  16.530   1.026 -0.0195  0.0856  0.0876
20850W        W36319   3.802  10.441   5.439 -0.3387 -0.1519 -0.1365
20851W        W36320   4.620  12.679   4.906  0.0719 -0.1626 -0.1948
20852W        W36321   4.248  16.294   2.739  0.2641 -0.1474  0.2032
20853W        W36322   1.119  11.740  11.177  0.1199  0.1690  0.0186
20854W        W36323  14.710  11.048  15.665 -0.0038  0.1458  0.0314
20855W        W36324   8.127   8.592   5.064 -0.2622 -0.1750  0.2277
20856W        W36325   5.182   2.581   2.972  0.2575 -0.2265  0.0061
20857W        W36326  14.203   4.634  15.939 -0.2783 -0.1784 -0.3433
20858W        W36327   4.094   2.467  10.552 -0.1804  0.2115  0.0276
20859W        W36328   8.352  14.638  10.496 -0.0174 -0.0250 -0.1519
20860W        W36329   0.202   7.750   2.180  0.0641  0.0868  0.1627
20861W        W36330   9.402   7.836  13.824 -0.1617 -0.1159 -0.2054
20862W        W36331   6.467  13.350  15.281 -0.0427  0.3078  0.0082
20863W        W36332   0.305  11.512   3.942  0.3139  0.2072  0.1497
20864W        W36333   6.069  15.147  15.282  0.0276 -0.2676 -0.0548
20865W        W36334  14.551   3.696  13.950 -0.0951  0.1079  0.0184
20866W        W36335  15.322  12.424  12.017  0.2381 -0.1195 -0.1679
20867W        W36336   2.898  16.973  13.359  0.0274 -0.0020 -0.2222
20868W        W36337   4.180   0.168   3.776 -0.4352 -0.2252 -0.0227
20869W        W36338   5.477   7.200   5.236  0.1201  0.0981  0.2449
20870W        W36339  17.921   5.971  13.743 -0.1859 -0.0177  0.1763
20871W        W36340   8.236  17.092   4.173 -0.0927 -0.2670  0.2605
20872W        W36341   2.512   5.600   6.127  0.3842 -0.1108  0.4831
20873W        W36342   3.770   2.298   0.477 -0.2191  0.2407  0.0405
20874W        W36343  15.775   9.405  12.194 -0.1580 -0.0162  0.1486
20875W        W36344   8.718   7.084  13.032 -0.1509 -0.1069 -0.0522
20876W        W36345   4.399  16.542  15.309  0.4565 -0.1556  0.0332
20877W        W36346  15.543   3.045  12.784  0.0048 -0.0512  0.0662
20878W        W36347  12.729   9.840   3.653 -0.4960 -0.2539  0.3833
20879W        W36348   7.984   5.715  12.245 -0.1623 -0.1289 -0.0125
20880W        W36349  17.900   0.245  12.610 -0.0534 -0.1023 -0.0590
20881W        W36350  13.586  12.553   4.631 -0.0938  0.2824 -0.1159
20882W        W36351   4.890  11.867   5.959  0.0749  0.2513  0.2069
20883W        W36352  11.153   8.915  12.468  0.1535 -0.0703  0.1196
20884W        W36353   8.121   8.380   0.415  0.2504  0.1186 -0.1903
20885W        W36354  13.734   9.474  11.295 -0.3593 -0.0186 -0.3456
20886W        W36355   7.125   9.124  11.642  0.1243 -0.1142  0.3682
20887W        W36356  16.371  14.873   3.895 -0.3801  0.0067 -0.2210
20888W        W36357  17.394  11.083  13.691  0.0919  0.1277 -0.2093
20889W        W36358   0.392   4.034  15.472 -0.2346 -0.0593  0.3369
20890W        W36359   6.844  11.057   5.567 -0.1110  0.0725 -0.0657
20891W        W36360  17.497  13.355  12.492 -0.1937  0.2652 -0.1781
20892W        W36361  12.968  13.430   0.073  0.0917 -0.0884 -0.0908
20893W        W36362   2.635  17.241   4.255 -0.1896  0.1261  0.1145
20894W        W36363   0.162  15.364   5.007 -0.1428  0.0815 -0.2198
20895W        W36364  16.571   4.115  14.858  0.0156 -0.0473 -0.2566
20896W        W36365  10.299  17.830   0.089  0.1613  0.1995  0.1305
20897W        W36366  14.047   9.590  11.761 -0.0930 -0.1540 -0.2694
20898W        W36367   5.305   6.636  14.617 -0.1199 -0.0248 -0.2493
20899W        W36368  12.805   2.766   3.259 -0.3136 -0.0800  0.3641
20900W        W36369  17.117  14.881   1.224  0.2976 -0.4740 -0.0702
20901W        W36370   2.810   8.823  11.212  0.3013  0.0401 -0.0919
20902W        W36371  14.741   7.854  11.480  0.0287 -0.1372  0.0009
20903W        W36372   4.178   3.649  15.425 -0.1447 -0.2137  0.0515
20904W        W36373   9.224  12.934  13.476  0.0164  0.2528 -0.1650
20905W        W36374   7.735   6.189   4.476 -0.2578 -0.1475  0.1080
20906W        W36375   4.168   4.070   0.537  0.0422 -0.0691 -0.1050
20907W        W36376   9.689  10.523   4.763 -0.3739  0.2052  0.2016
20908W        W36377   4.980   4.818   5.286  0.0679  0.0459 -0.1822
20909W        W36378   1.335   6.405   3.180 -0.1561  0.1049  0.1045
20910W        W36379   7.444   6.844  15.255 -0.1274  0.2768  0.0627
20911W        W36380  12.283  18.198   0.462  0.1136 -0.0552 -0.1252
20912W        W36381   7.816  13.358   2.424  0.1846  0.0854 -0.0191
20913W        W36382  11.737   5.005   6.150 -0.0367  0.2234  0.3377
20914W        W36383   4.596   0.856   0.725  0.1229  0.1426  0.1569
20915W        W36384   4.180   0.490  15.397  0.1777  0.2254 -0.0868
20916W        W36385   4.920   8.230   3.369  0.1926 -0.1284 -0.1486
20917W        W36386   5.500   4.500  14.761  0.0654 -0.1026 -0.4639
20918W        W36387   0.392  14.571   2.650 -0.0653 -0.0202 -0.1858
20919W        W36388  13.059  16.664   4.460  0.0114  0.0787  0.1019
20920W        W36389  16.004   0.123  11.884  0.1938  0.1150 -0.0668
20921W        W36390   0.531  12.698   4.445 -0.2008  0.2876 -0.3648
20922W        W36391  17.893   5.271   5.557 -0.0289  0.1119 -0.0264
20923W        W36392  16.840   8.885  11.463  0.0450 -0.0613  0.2125
20924W        W36393   9.395   3.252   1.673  0.3139  0.1204 -0.1135
20925W        W36394  10.180   7.986   5.373  0.0722 -0.1558  0.0437
20926W        W36395  13.552  10.333   3.538  0.0686 -0.2264 -0.1630
20927W        W36396   1.375  16.670   1.422  0.1736  0.1184 -0.0022
20928W        W36397  17.202   3.001   0.637  0.2445 -0.3431 -0.1021
20929W        W36398   3.788   1.373   3.031 -0.0049 -0.2892 -0.1927
20930W        W36399  13.376  12.049  11.535  0.2344 -0.0739 -0.3611
20931W        W36400  11.278   6.868  11.395  0.0706 -0.3318  0.0424
20932W        W36401   7.423   7.270  12.103 -0.1289 -0.0954  0.1433
20933W        W36402   0.200   5.968   3.632 -0.3737  0.0498 -0.3375
20934W        W36403   3.618   1.920   5.350  0.1992 -0.0124 -0.0989
20935W        W36404   7.435   9.725   0.228 -0.2547  0.1680  0.0051
20936W        W36405   5.527   3.701   2.145 -0.3061 -0.1996 -0.2288
20937W        W36406  14.140   9.049  14.542  0.1334 -0.0211 -0.0300
20938W        W36407   9.391  12.786   2.164  0.0012 -0.1072  0.0561
20939W        W36408   2.984   0.531  13.893 -0.1632  0.3546 -0.2962
20940W        W36409  11.110   5.306   3.920  0.0264 -0.0398 -0.0430
20941W        W36410  12.484  16.135  12.274  0.2529  0.1450 -0.0027
20942W        W36411   5.509   2.356  13.140 -0.0940  0.0178  0.1132
20943W        W36412   8.983   4.009   2.056 -0.3573  0.1260  0.0896
20944W        W36413  14.711  15.180  13.991  0.5778  0.1023 -0.0265
20945W        W36414  16.834   3.204  13.698  0.1458 -0.0246 -0.1088
20946W        W36415   8.856   7.113  11.522 -0.0196  0.0568  0.0739
20947W        W36416  13.831  14.585   4.792 -0.1673  0.0994  0.1239
20948W        W36417  17.597  10.660   2.292 -0.1778 -0.2615  0.0531
20949W        W36418   4.125  16.531  12.229 -0.0859 -0.0815  0.0544
20950W        W36419  13.868  18.056   4.669  0.0667 -0.2886 -0.0946
20951W        W36420   3.795   6.642  11.723 -0.0710  0.1423 -0.0051
20952W        W36421   8.462  16.853   5.098 -0.0414  0.0238 -0.2284
20953W        W36422  17.163  16.759  12.730 -0.2090  0.2047 -0.2023
20954W        W36423  13.299   9.947   2.746 -0.2871  0.3182  0.0859
20955W        W36424   1.755  17.009   5.113  0.1243 -0.0742 -0.0050
20956W        W36425   1.832  16.874   3.232  0.2463 -0.2301 -0.3647
20957W        W36426   4.091   4.215  14.473  0.1551 -0.1140 -0.0171
20958W        W36427  10.573  16.574  13.801 -0.3968 -0.1866  0.0396
20959W        W36428   9.306   8.017  10.906 -0.0479  0.2904 -0.0218
20960W        W36429  18.331  15.430   2.939 -0.3580  0.1027  0.2331
20961W        W36430   3.176  17.852  11.450  0.1543 -0.0835  0.0520
20962W        W36431   4.706  10.083  15.730 -0.2259 -0.2158 -0.0040
20963W        W36432  14.207  12.115  12.020  0.1221 -0.0055  0.0246
20964W        W36433  17.455   4.696   5.941  0.2911  0.1394 -0.0816
20965W        W36434   2.153   6.843   1.634 -0.1242 -0.0583  0.3095
20966W        W36435   7.718  15.584  10.657  0.1301  0.2461 -0.1289
20967W        W36436  12.895  15.615  12.435  0.2439  0.0505 -0.4031
20968W        W36437   7.786   1.967  12.530  0.1795 -0.1191  0.3383
20969W        W36438  16.120  11.882  13.894 -0.0349  0.1708  0.0874
20970W        W36439  10.418  14.774  12.284 -0.1342 -0.0869 -0.2473
20971W        W36440  16.391  10.309  11.928  0.1330  0.0632  0.3650
20972W        W36441  16.369   2.227  14.866 -0.0363  0.3295 -0.1241
20973W        W36442   6.553  12.283  12.743 -0.0460  0.0409  0.1390
20974W        W36443   6.883  18.397  11.395  0.0047 -0.0187  0.0856
20975W        W36444  15.899   8.332   1.881  0.0315 -0.0357 -0.1438
20976W        W36445   1.962   0.606   5.019 -0.1156 -0.0677 -0.2688
20977W        W36446  16.843  11.865   3.343  0.0684  0.1900  0.4375
20978W        W36447  10.775   6.131   0.426  0.0052 -0.0443  0.6266
20979W        W36448   6.711   1.786   2.569 -0.1135  0.0387  0.0035
20980W        W36449  17.898   0.354  11.278 -0.3072  0.1503  0.0476
20981W        W36450  18.349  17.935  14.796 -0.0345  0.2798  0.0673
20982W        W36451   8.797  16.779   0.582  0.2298  0.0154  0.0683
20983W        W36452  15.739  11.777  14.340 -0.0609  0.0668  0.0626
20984W        W36453   6.392   6.099   4.866 -0.0373  0.5279  0.1619
20985W        W36454  17.890   8.930   5.028  0.0487 -0.0101 -0.0321
20986W        W36455   5.961  14.908   4.069 -0.1194 -0.2752 -0.2071
20987W        W36456   7.627   7.896  14.435  0.1544 -0.0468 -0.1976
20988W        W36457   9.640  13.679  13.110 -0.0192  0.0474 -0.2660
20989W        W36458  14.188   1.277   2.747 -0.1298 -0.0568  0.0303
20990W        W36459   9.366   6.812   4.728  0.0202  0.0155 -0.0445
20991W        W36460   5.168  13.088   4.071  0.0311  0.0903  0.0038
20992W        W36461  12.296   7.053   1.964 -0.0682 -0.0722  0.0329
20993W        W36462  18.291   6.624  14.826  0.0373  0.1423 -0.2447
20994W        W36463   2.960   0.168  12.638 -0.0338 -0.1327 -0.1383
20995W        W36464   3.338  15.764   1.824 -0.1680  0.0175 -0.0639
20996W        W36465   0.492   9.688  14.514 -0.0093  0.0444 -0.2132
20997W        W36466  10.862  14.559  14.452 -0.4253  0.0609  0.2351
20998W        W36467   7.858  14.711   2.471 -0.1813 -0.1674 -0.2169
20999W        W36468   0.024  14.923  14.771 -0.3781 -0.1532  0.1974
21000W        W36469  15.581  15.596   1.734  0.1054 -0.0668  0.4324
21001W        W36470   2.782   1.493   2.120  0.2814  0.2010  0.4147
21002W        W36471   0.685  10.796   2.031  0.0526 -0.1852  0.0387
21003W        W36472  17.968   7.425  14.104  0.2491 -0.4429 -0.0482
21004W        W36473   6.196   3.697   4.063  0.0274 -0.0565  0.1115
21005W        W36474   1.762  11.583  14.332 -0.2011  0.1366 -0.4320
21006W        W36475  16.953  13.145  15.781  0.2133 -0.3064  0.4340
21007W        W36476  17.423  18.222   3.335 -0.2085  0.0054  0.1794
21008W        W36477  10.923   7.973  14.165 -0.3795  0.1153 -0.1041
21009W        W36478   5.508   7.691  15.968 -0.2011  0.1532 -0.3281
21010W        W36479  10.844   9.106  12.110  0.3853  0.2497  0.0923
21011W        W36480   3.091   4.416  12.673  0.6117 -0.1499  0.0533
21012W        W36481  13.073   3.986  11.756 -0.1855  0.0603 -0.1508
21013W        W36482   0.354   6.743  12.863 -0.3979  0.0449 -0.4811
21014W        W36483   0.492  12.554   2.558 -0.1073  0.1796  0.1528
21015W        W36484   2.605  16.919  12.342  0.0534  0.0879  0.2459
21016W        W36485  17.639  14.134   2.025 -0.0389  0.4007 -0.0493
21017W        W36486  11.610   8.726   1.599 -0.3778 -0.1300  0.1680
21018W        W36487   7.823  11.195   1.963  0.2646 -0.3696  0.1116
21019W        W36488  18.026  18.304  11.288 -0.0136  0.0772  0.4204
21020W        W36489   1.070  12.318   0.109  0.0546 -0.0839 -0.0582
21021W        W36490   7.477   5.536   0.624  0.0197 -0.0095 -0.0384
21022W        W36491  12.043  11.001   3.733 -0.1449  0.0164 -0.2700
21023W        W36492  11.589   3.162   2.642  0.0985  0.0415  0.0217
21024W        W36493   0.325  16.653  11.321 -0.4125 -0.0695  0.0294
21025W        W36494  10.915  11.115  12.170 -0.1625  0.0061 -0.0470
21026W        W36495   6.607   0.850   4.870  0.0554 -0.1165 -0.0705
21027W        W36496  17.180   2.990   5.065  0.0441 -0.2630  0.1272
21028W        W36497   3.211  10.404   0.106 -0.2945  0.0499  0.4156
21029W        W36498   5.898  13.573   4.525  0.0410  0.2739  0.2374
21030W        W36499   5.738  12.717  11.237  0.0145  0.3073 -0.2622
21031W        W36500   6.383  11.998   1.755  0.0611  0.1215  0.0084
21032W        W36501   3.439   7.685  11.639  0.1786  0.1539 -0.1618
21033W        W36502   5.631  15.458   3.295  0.2054 -0.0513  0.0331
21034W        W36503   4.690   6.446   0.095 -0.1085 -0.2756 -0.2583
21035W        W36504  14.585  11.947   1.365  0.2512 -0.0154  0.0942
21036W        W36505   0.440   2.812  11.047  0.0066 -0.2580 -0.0746
21037W        W36506   2.767   8.951   2.795 -0.0444  0.1731 -0.1032
21038W        W36507   2.983   9.536   1.913 -0.0337  0.2496  0.2319
21039W        W36508   5.653  13.601   2.698  0.1023  0.0844 -0.0563
21040W        W36509   5.092   7.037  12.786 -0.0041 -0.3446 -0.0897
21041W        W36510   1.780  11.211   0.294  0.1635 -0.0561 -0.0631
21042W        W36511   0.315  15.899   3.890 -0.2744  0.3847  0.2683
21043W        W36512  12.812  11.182   5.343 -0.0652 -0.1822 -0.0913
21044W        W36513  15.617  14.593   1.990  0.0028  0.1884 -0.2779
21045W        W36514  11.897  10.275   4.660  0.2768  0.1564 -0.2140
21046W        W36515   8.277   4.692  11.344  0.2065  0.1026 -0.3225
21047W        W36516  10.250  18.066   0.553 -0.3538 -0.1407 -0.0015
21048W        W36517  10.926  13.134  11.611 -0.4687 -0.1952 -0.2903
21049W        W36518  11.052  14.020   0.607 -0.2037 -0.0177  0.0743
21050W        W36519   2.134  14.699   5.231 -0.0794 -0.1900  0.1779
21051W        W36520   1.535  15.771  11.394 -0.6434 -0.1858 -0.2089
21052W        W36521  14.244   9.705  12.894  0.0639  0.0330 -0.2025
21053W        W36522   1.947   0.109   0.761  0.1815  0.2031 -0.1206
21054W        W36523   6.273  12.816   3.450 -0.1417  0.0899  0.3251
21055W        W36524   8.524  13.824  15.173 -0.2223 -0.1848  0.1122
21056W        W36525  11.221  13.229  10.775 -0.0190  0.2679 -0.1087
21057W        W36526   0.708  17.467   0.170 -0.1982  0.0261  0.0482
21058W        W36527   1.971   8.486   3.781  0.2934  0.0093 -0.0040
21059W        W36528   5.258  10.362  12.250 -0.2422 -0.0330 -0.2086
21060W        W36529   1.710   6.696   6.079 -0.1568 -0.0156  0.0606
21061W        W36530   1.451  14.212  12.229  0.1631  0.1809 -0.1430
21062W        W36531   5.654  15.757   0.519  0.1802 -0.3207 -0.0546
21063W        W36532  15.370  13.509   4.522 -0.0309 -0.1141  0.1491
21064W        W36533  12.870   9.466  12.976  0.0924 -0.4678 -0.0202
21065W        W36534   2.415   8.948  11.531 -0.0302  0.0345  0.0204
21066W        W36535   0.815  15.273   1.561 -0.0533  0.1064 -0.4715
21067W        W36536  14.062  15.680   3.651  0.0755 -0.1329 -0.1115
21068W        W36537   8.954   4.601  12.793  0.0570  0.1375 -0.0253
21069W        W36538   8.080   0.582  13.864 -0.1168  0.2711 -0.2267
21070W        W36539   1.912   2.127   4.775  0.1279 -0.0086  0.1229
21071W        W36540  18.086   7.656  10.497 -0.1601  0.0794  0.0454
21072W        W36541  14.227   2.346   2.008  0.1394  0.0594  0.0624
21073W        W36542   1.949   6.543  15.190 -0.0903  0.2629 -0.0444
21074W        W36543   4.085  16.691   1.893  0.3343  0.1122 -0.1053
21075W        W36544  11.094  15.164   5.020  0.0124  0.0956 -0.2817
21076W        W36545   1.353  15.057   5.055  0.0265 -0.0059  0.4436
21077W        W36546   5.379  12.862  10.758 -0.2000  0.0383  0.2935
21078W        W36547   3.175   0.781   1.514  0.3311  0.3443 -0.2113
21079W        W36548  12.727  16.056   0.200  0.2432 -0.3957 -0.2637
21080W        W36549   4.795   0.245   0.032  0.1316  0.0574  0.3215
21081W        W36550  14.612  18.412   5.273 -0.0969 -0.0727 -0.1961
21082W        W36551   3.144   1.656   5.152  0.1074  0.0904  0.0208
21083W        W36552   6.462   1.317   0.335  0.0214  0.0325 -0.2030
21084W        W36553  11.904   0.656   1.442 -0.1786 -0.0233  0.2097
21085W        W36554   0.081   1.073  13.052  0.1799  0.1340  0.1609
21086W        W36555  17.819  10.913   1.072 -0.1128 -0.2306  0.0626
21087W        W36556   5.789  15.729   1.973  0.2103  0.2275 -0.1953
21088W        W36557  14.930   0.224  14.506 -0.1924 -0.2032 -0.1995
21089W        W36558  15.236   6.122   3.246 -0.0240  0.1423  0.2507
21090W        W36559   5.865  10.692   0.899  0.1524 -0.0875  0.0965
21091W        W36560  13.223  15.068  13.496  0.1221 -0.2122 -0.0293
21092W        W36561   9.556   6.367   4.772  0.0542 -0.0538 -0.2281
21093W        W36562   4.081   0.268   1.815  0.0442  0.1431  0.0524
21094W        W36563  11.957   2.941  15.474  0.1077  0.0695 -0.1927
21095W        W36564   0.838   6.815   2.548 -0.0380  0.1117 -0.1041
21096W        W36565  18.167  10.780  15.702 -0.0745  0.0810 -0.2188
21097W        W36566   2.039  14.637  15.940 -0.3460 -0.0610 -0.1301
21098W        W36567   8.903   1.947   3.683 -0.0704 -0.0731  0.0604
21099W        W36568   0.223   4.697   3.401 -0.0154 -0.0232 -0.2075
21100W        W36569   7.855   0.816   1.334 -0.1722  0.1559 -0.4350
21101W        W36570  14.973   6.362   2.300  0.1741  0.3302 -0.3154
21102W        W36571  15.724   7.045   1.942  0.3402  0.1498  0.0221
21103W        W36572   0.914  16.862   3.617  0.3637 -0.0140 -0.0980
21104W        W36573   2.990   6.772  13.438 -0.3021  0.1520  0.3635
21105W        W36574   2.774   9.699  14.415 -0.0494 -0.1306  0.2219
21106W        W36575   2.175  12.187   5.270  0.1028 -0.1296 -0.0486
21107W        W36576   2.721   9.045  10.623  0.0357  0.0058  0.2299
21108W        W36577  10.830   5.658   0.049 -0.2634  0.1459  0.3684
21109W        W36578   2.935  14.288  14.097  0.2515  0.0915  0.0271
21110W        W36579   9.456   3.175  11.670  0.1948  0.4125  0.0291
21111W        W36580   4.858  14.584  14.612  0.0368 -0.1154  0.1907
21112W        W36581  16.644  17.699  15.827  0.0277 -0.2541  0.4931
21113W        W36582  15.082  13.962  11.335  0.1843 -0.0362 -0.0248
21114W        W36583   8.021   3.605  13.077 -0.1389  0.0444  0.1475
21115W        W36584   6.374   8.042   0.390 -0.0875  0.2030 -0.1002
21116W        W36585  12.243   3.667   1.276 -0.0886 -0.1729 -0.1585
21117W        W36586  16.304   7.855  12.437 -0.2252 -0.2211 -0.0949
21118W        W36587   6.341  15.515  13.307 -0.3447 -0.3029 -0.3491
21119W        W36588  10.266  12.933   0.981 -0.1801 -0.0635  0.0736
21120W        W36589   9.375  13.972   1.811  0.1873 -0.1782 -0.3352
21121W        W36590   3.616   3.439   1.773 -0.3881  0.1615 -0.2945
21122W        W36591  10.662   2.602   1.295 -0.0744 -0.5606 -0.0091
21123W        W36592   7.430  12.802  12.548 -0.1369  0.1201  0.0534
21124W        W36593  17.570  10.464  12.744 -0.1484  0.0874 -0.0081
21125W        W36594   4.518   5.646  10.324  0.0066  0.1064  0.0903
21126W        W36595  11.569   0.302   1.409  0.7615  0.2690  0.0852
21127W        W36596   8.051   0.220   0.894 -0.0076  0.0092 -0.0164
21128W        W36597  13.469  13.865   4.121 -0.0158 -0.0088 -0.2994
21129W        W36598  16.442  14.302   3.926 -0.0407  0.0716 -0.0803
21130W        W36599  17.877   7.096   3.864 -0.6025 -0.2375  0.2140
21131W        W36600   1.067  14.407  14.709 -0.3162 -0.0283  0.1765
21132W        W36601   5.636  11.271   1.441  0.0701  0.0905  0.1902
21133W        W36602  14.884   5.622  15.558 -0.3310 -0.6345 -0.1750
21134W        W36603  17.317   3.933   0.563 -0.0335  0.0350 -0.3196
21135W        W36604   2.430   4.503   2.070  0.1233  0.1890  0.2562
21136W        W36605   1.782   4.366  14.998  0.2252 -0.0347 -0.0316
21137W        W36606   8.125  10.336  12.668  0.0428  0.2405 -0.3190
21138W        W36607  11.904   6.996   0.504 -0.1719 -0.2888 -0.0798
21139W        W36608  17.189   1.005   0.197  0.2109  0.1421  0.0720
21140W        W36609   2.908  14.056   4.795 -0.2718  0.1697 -0.3079
21141W        W36610  15.276   8.750   5.157  0.0651  0.1801  0.1167
21142W        W36611   5.654   1.316   2.593 -0.0641  0.0738 -0.0670
21143W        W36612   0.917   3.585  15.511  0.0185 -0.2642  0.1006
21144W        W36613  15.663   6.697   5.477 -0.0085 -0.0262 -0.0451
21145W        W36614  10.263   1.703  14.870  0.0127 -0.4195  0.1468
21146W        W36615   4.248   3.773  12.961  0.1888 -0.1418  0.0143
21147W        W36616  15.054   8.218  13.553 -0.3136  0.1443 -0.2793
21148W        W36617  17.681   0.457   0.492  0.3799  0.0152  0.0423
21149W        W36618   0.074  12.075  14.525 -0.3051 -0.0058 -0.2299
21150W        W36619   4.055   9.599  14.933 -0.3350  0.1408  0.1656
21151W        W36620   1.008  17.483  15.749  0.3589 -0.2305 -0.2939
21152W        W36621   7.446  18.277  14.338  0.1701  0.0126  0.0510
21153W        W36622  13.895   3.040   1.481  0.1634  0.2459 -0.1469
21154W        W36623  16.164   2.324   2.505 -0.1016 -0.0496  0.1459
21155W        W36624  17.334  12.989  15.171  0.0112  0.0528 -0.1884
21156W        W36625  11.258  14.972   0.956 -0.1817  0.2390  0.1218
21157W        W36626   8.878   1.429   1.211  0.2251 -0.2674  0.0972
21158W        W36627   1.307  17.619  14.277 -0.1308 -0.1172  0.0095
21159W        W36628  14.919  10.982   4.706  0.3957 -0.2718  0.1024
21160W        W36629  10.001  12.704  14.439  0.0856 -0.1008 -0.0131
21161W        W36630  15.256   0.880   0.344  0.2101  0.0262  0.1730
21162W        W36631   9.245   7.303  13.828 -0.1130 -0.1127 -0.1530
21163W        W36632   0.719  15.433   3.225  0.1054 -0.1976  0.1203
21164W        W36633   8.788   2.750  14.450 -0.1865 -0.0887 -0.1037
21165W        W36634   8.670   1.193   0.283  0.0335  0.1770  0.1174
21166W        W36635   6.027  18.214   5.243 -0.1353 -0.0340 -0.0023
21167W        W36636  16.951  14.299   3.783  0.0271  0.0586 -0.1905
21168W        W36637   4.621  17.178  11.843  0.3144 -0.0330 -0.1191
21169W        W36638   5.721   5.413  14.456  0.1557 -0.1162  0.1955
21170W        W36639   5.305  15.527  15.671  0.2006  0.0753 -0.1619
21171W        W36640  10.559  15.848   1.055 -0.2382 -0.1437 -0.0034
21172W        W36641   5.805  17.379  15.527 -0.3001  0.1916  0.1966
21173W        W36642   5.019   9.223   2.442 -0.2982  0.2586  0.1419
21174W        W36643   0.562   2.766   2.147  0.1834 -0.1426  0.1318
21175W        W36644   8.918   3.830   5.064  0.1750  0.1504 -0.0577
21176W        W36645   1.359  17.508  15.392  0.1206  0.3379  0.1990
21177W        W36646   1.071  15.552  12.601  0.0034 -0.1597 -0.0863
21178W        W36647   9.231   9.513   4.443 -0.1261 -0.3339  0.0369
21179W        W36648  17.750   1.772   2.431  0.0447  0.1608 -0.1121
21180W        W36649  12.503   6.492   4.724 -0.1149 -0.0711 -0.2299
21181W        W36650  13.626   1.678  13.789  0.2823 -0.2303  0.1527
21182W        W36651  10.289   2.613   0.998  0.3123 -0.0019  0.1132
21183W        W36652   7.621  17.413  13.282  0.0871  0.1123  0.0311
21184W        W36653   7.716   0.539  12.107  0.1254 -0.0217 -0.1641
21185W        W36654   3.220  17.629   6.001  0.0195 -0.0538 -0.1105
21186W        W36655  16.463  16.734   0.324 -0.0344 -0.2161  0.2308
21187W        W36656  10.054   9.971  13.416  0.2401 -0.3293  0.2708
21188W        W36657  15.425  14.897  13.080  0.0642  0.0407  0.2158
21189W        W36658  11.192   8.813   1.877 -0.1425 -0.3696 -0.4812
21190W        W36659   8.019   7.359   4.847 -0.1592  0.4128  0.1029
21191W        W36660  16.681   0.626  11.936 -0.1361 -0.0546  0.1671
21192W        W36661  17.913  16.680   5.651 -0.1130 -0.2008 -0.1879
21193W        W36662   8.295  10.199   0.129 -0.1402  0.1180  0.0410
21194W        W36663   4.801  13.658  14.114  0.0807 -0.3671 -0.1366
21195W        W36664   2.626   8.043  12.703  0.2109  0.1252  0.0068
21196W        W36665  12.496   7.895   3.311 -0.1932 -0.1741 -0.2697
21197W        W36666   8.375   2.803   4.870 -0.0991  0.1361  0.1494
21198W        W36667   5.058  12.565   4.683  0.2642 -0.1939  0.0986
21199W        W36668   0.313  11.901  14.920  0.0913  0.0201  0.1035
21200W        W36669   5.758   7.776  14.272  0.0477  0.0495 -0.3104
21201W        W36670   2.401   5.108  12.964  0.1195  0.0557  0.0726
21202W        W36671   2.493   2.571   3.781  0.0212  0.2057  0.2602
21203W        W36672  12.392   3.544  14.920 -0.0262 -0.1112  0.2927
21204W        W36673   3.695  12.913  11.368  0.0141 -0.0324 -0.1990
21205W        W36674  17.119  11.646  15.188 -0.2016  0.0098 -0.3878
21206W        W36675  18.060   6.530   1.060  0.1510 -0.0456 -0.0172
21207W        W36676   7.038   0.589  13.573 -0.0086  0.1500 -0.1096
21208W        W36677   7.045  10.502   0.263 -0.1139 -0.4990 -0.0970
21209W        W36678  13.637  10.351   2.749  0.0440 -0.0144 -0.2281
21210W        W36679  11.542  16.648   3.980  0.1685  0.0890 -0.0419
21211W        W36680  15.203  17.660   4.721  0.0787 -0.3348 -0.2483
21212W        W36681   9.503  12.673   2.863  0.1068  0.4325  0.2113
21213W        W36682   3.351   7.941  15.306  0.4026  0.0551 -0.1763
21214W        W36683   6.405  14.693   5.140  0.1346  0.3586  0.1667
21215W        W36684   6.314   7.604  15.349  0.0027  0.0702 -0.3382
21216W        W36685   3.579  12.391   4.811  0.0045  0.0531  0.0739
21217W        W36686   5.345   4.508  11.506  0.1031 -0.0578 -0.2603
21218W        W36687   1.084   5.688   3.553  0.0274 -0.0197 -0.0589
21219W        W36688  15.839   2.020   0.769 -0.0076  0.0069  0.3138
21220W        W36689  12.975  18.032   5.481 -0.2122 -0.0980  0.0901
21221W        W36690  18.388  12.679   1.896 -0.3288  0.0193 -0.0117
21222W        W36691   8.704  14.829   2.751  0.1609  0.4389 -0.0706
21223W        W36692  11.853   9.859   5.585 -0.2267  0.4307  0.0649
21224W        W36693  14.617  13.402   1.329 -0.0234  0.1359  0.2230
21225W        W36694  12.495   0.524   4.394 -0.2776 -0.0065 -0.0524
21226W        W36695  17.170   0.182   5.371 -0.0537 -0.3485  0.0492
21227W        W36696   1.864   6.566   0.627  0.0992 -0.0513 -0.0586
21228W        W36697  18.259   3.447   2.824 -0.2139  0.1250  0.0691
21229W        W36698  12.589  10.603   4.882  0.2381  0.1722  0.1711
21230W        W36699   9.543  13.478  15.679  0.0634  0.2630 -0.0264
21231W        W36700   1.434   8.240  15.223 -0.1638  0.1974 -0.3362
21232W        W36701   5.465   3.425   1.237  0.2221  0.0939 -0.0517
21233W        W36702  17.520   1.770   0.912 -0.0290 -0.2009  0.0580
21234W        W36703   7.650   8.313  12.132 -0.2947 -0.0181  0.0930
21235W        W36704   7.441  15.195  13.891 -0.1311 -0.1214  0.0821
21236W        W36705   2.557   4.228   1.152  0.1261  0.1369 -0.1427
21237W        W36706  13.231  14.956   3.524  0.1253  0.0149 -0.0894
21238W        W36707  18.191   5.941   3.727  0.0447 -0.2679 -0.5480
21239W        W36708   6.376  10.998   0.790 -0.0687  0.0104  0.3465
21240W        W36709  17.581  12.211   5.599 -0.1230 -0.1283  0.3238
21241W        W36710  14.807  14.176  10.869 -0.0660  0.3553 -0.2192
21242W        W36711  11.562   9.157  11.588 -0.0351  0.2102  0.0154
21243W        W36712  11.798  15.871   3.896  0.2871 -0.0286  0.1694
21244W        W36713   2.335   8.928   3.728  0.0339  0.2252  0.0542
21245W        W36714  10.350  16.163   4.954 -0.0599 -0.0190 -0.3490
21246W        W36715   4.203  15.836  12.728  0.0056  0.2765 -0.0337
21247W        W36716  11.280  12.352   1.821  0.2037  0.2569 -0.0458
21248W        W36717   0.401  11.484  13.774  0.1899 -0.1881  0.1890
21249W        W36718  15.279   6.689   0.116  0.1609 -0.0180 -0.0812
21250W        W36719  11.121   2.446   0.559  0.0812 -0.1011 -0.0967
21251W        W36720   5.417  17.649  13.508 -0.3204  0.1414 -0.1220
21252W        W36721   8.023   7.970  10.782  0.0938  0.3748  0.4108
21253W        W36722  14.735   3.018   0.465  0.1094 -0.1391 -0.0525
21254W        W36723   2.844   5.206   4.967  0.3490  0.0566  0.2353
21255W        W36724  11.793   9.872   6.096 -0.2592 -0.0991 -0.2431
21256W        W36725   3.597   8.338   0.144 -0.0315 -0.2793  0.2857
21257W        W36726  14.919  14.805  11.821 -0.1659  0.1788 -0.0209
21258W        W36727   5.329   0.458  14.083 -0.3621  0.2410  0.1796
21259W        W36728  14.224  18.426   6.155  0.3359  0.1805 -0.0908
21260W        W36729   5.632   1.083  14.975 -0.1918 -0.0252  0.2009
21261W        W36730   9.274  10.808  10.795 -0.1125  0.3151 -0.0489
21262W        W36731   3.469   1.082  10.578  0.2691  0.0159 -0.1538
21263W        W36732  12.981  17.479   3.028  0.2303  0.3271  0.1357
21264W        W36733   8.498   7.832  13.732 -0.3296  0.0799 -0.0101
21265W        W36734  15.124  12.712  10.266 -0.0743  0.0713 -0.1250
21266W        W36735  10.352   9.957   1.220  0.0807 -0.0500  0.2967
21267W        W36736   7.068  12.448  13.947  0.1111  0.0185  0.0110
21268W        W36737  15.770   4.202   4.312 -0.2521  0.0518  0.3350
21269W        W36738   5.077   9.760  11.950  0.0030 -0.0243  0.2453
21270W        W36739   8.820   8.028   1.216  0.0351  0.1013  0.0982
21271W        W36740   2.032   7.668  15.737 -0.1572 -0.1238 -0.0221
21272W        W36741   2.080  16.019   5.180  0.0527 -0.1458  0.1224
21273W        W36742   2.179   2.225   2.351 -0.0601 -0.0985 -0.3837
21274W        W36743   8.337  12.002  13.611 -0.1432 -0.2549 -0.0577
21275W        W36744  16.173   9.884   2.940 -0.1344 -0.1477  0.0987
21276W        W36745   4.530   9.510   4.699 -0.0460 -0.0763 -0.3133
21277W        W36746   7.611   4.646   0.634 -0.0672  0.0056  0.1348
21278W        W36747   7.163   7.860  10.973 -0.2251 -0.2395 -0.2291
21279W        W36748  10.716  11.682   0.371  0.1888  0.0379 -0.0915
21280W        W36749   5.738   6.224   3.146  0.0464 -0.0178 -0.1082
21281W        W36750  12.111  14.690  13.886  0.1128 -0.1840 -0.2504
21282W        W36751  11.903  17.386  12.057 -0.0310  0.0486  0.1044
21283W        W36752   0.843   6.752   2.065  0.2977 -0.0482  0.5593
21284W        W36753  14.129  13.357   1.097  0.1490 -0.1602  0.0267
21285W        W36754   7.516  15.608  13.643 -0.3713 -0.1089 -0.0040
21286W        W36755   3.879   8.801  15.180 -0.0155  0.3224  0.1466
21287W        W36756   9.758  18.446   1.566  0.3214  0.2201  0.0100
21288W        W36757  14.456   4.561   4.148  0.0972 -0.2417  0.2978
21289W        W36758  14.080   8.339   4.736  0.0186  0.1331  0.0569
21290W        W36759   3.358   9.893   1.944  0.0540  0.0780  0.0620
21291W        W36760  16.122   2.280   1.226 -0.0923 -0.1259  0.0184
21292W        W36761   3.339   8.632  15.290 -0.0879  0.0657  0.2564
21293W        W36762  13.678   7.178   0.219 -0.0647  0.0785  0.1041
21294W        W36763  17.293  17.327  14.911 -0.2865  0.1533  0.1161
21295W        W36764  10.982   0.245   4.497 -0.1051  0.3067 -0.1160
21296W        W36765   0.666   0.852  14.767  0.3154  0.0995 -0.1483
21297W        W36766  16.733   4.860  15.438 -0.0698 -0.0299  0.1892
21298W        W36767   4.149  15.108   4.927  0.1933  0.0832  0.0113
21299W        W36768  12.376  17.625   3.941  0.0977  0.0913  0.1295
21300W        W36769  13.025   7.696  10.782  0.0897 -0.3496  0.0049
21301W        W36770   0.856   8.540   0.086 -0.0222 -0.1028 -0.4749
21302W        W36771  13.357  12.110  12.372 -0.1226 -0.0897 -0.0610
21303W        W36772  14.232   2.706  14.715 -0.1566  0.2892  0.1852
21304W        W36773   1.317   3.976  14.014  0.3328 -0.0840  0.1220
21305W        W36774  18.235  15.110   3.305 -0.0105  0.1582  0.1370
21306W        W36775   9.341  10.404  11.653  0.1150 -0.0286  0.3568
21307W        W36776   0.249   0.615  13.025 -0.2882  0.1017  0.0956
21308W        W36777   9.787   0.439   1.959 -0.1988 -0.1992  0.0448
21309W        W36778   7.844  11.315  14.171  0.1164  0.1906 -0.1657
21310W        W36779   1.717  14.931   2.781 -0.0776  0.0332 -0.2711
21311W        W36780   3.713   5.467   3.346 -0.0918 -0.1196 -0.1074
21312W        W36781   1.176   5.739   5.638  0.0634 -0.1904  0.3434
21313W        W36782  12.750  10.249  14.182 -0.1483  0.0431 -0.3273
21314W        W36783  11.113   7.583   4.175  0.1269 -0.0779  0.0897
21315W        W36784  15.644   3.335  13.150 -0.0984 -0.1596 -0.0693
21316W        W36785  10.803  16.506  16.011 -0.1921 -0.0497 -0.1419
21317W        W36786   5.191   0.340   0.690 -0.1921  0.4284  0.0300
21318W        W36787  10.332  12.162   3.912 -0.0394  0.2964  0.1368
21319W        W36788  11.670   8.828   4.387 -0.0423 -0.3039  0.1669
21320W        W36789   8.707   9.065   3.795 -0.3729 -0.0499  0.4300
21321W        W36790  15.828  13.378  11.318  0.0337  0.0459  0.1799
21322W        W36791  14.009   3.547   1.278 -0.1639  0.0892  0.2785
21323W        W36792  10.316   9.362  15.344  0.0589  0.0517 -0.0363
21324W        W36793  15.701   2.159   2.443 -0.1601 -0.2125 -0.2804
21325W        W36794   2.945   0.577   3.845 -0.1680  0.0055 -0.0064
21326W        W36795  12.982   3.734  12.255  0.0087 -0.2067  0.0309
21327W        W36796   4.995  13.581  13.605 -0.1779 -0.0660  0.1353
21328W        W36797  14.629   3.156  14.636  0.2583  0.0080 -0.1495
21329W        W36798   4.812  18.321  15.390  0.0713  0.0323 -0.2700
21330W        W36799   9.234   4.733  15.016 -0.0381  0.0455  0.0609
21331W        W36800  12.900   3.305   0.233 -0.1592  0.1798  0.1225
21332W        W36801  14.413  17.948   5.087  0.0247 -0.0930 -0.1790
21333W        W36802   4.018  13.021   3.284  0.4129  0.1260  0.1271
21334W        W36803  12.587   6.667  14.996 -0.3327 -0.2787  0.0274
21335W        W36804   7.321   3.683   3.975 -0.0992 -0.1863 -0.2063
21336W        W36805  11.503   7.380  11.802  0.1707  0.1740  0.0838
21337W        W36806   0.447   8.420   2.740 -0.0561  0.1522 -0.0071
21338W        W36807  11.019   6.201  14.937  0.1005 -0.1695  0.4014
21339W        W36808   8.537   6.118  11.220 -0.1410 -0.0248 -0.2739
21340W        W36809   5.512   3.795   0.556 -0.0767 -0.0445  0.1533
21341W        W36810   8.487   9.101  15.031 -0.1122 -0.0421 -0.1425
21342W        W36811   7.112  10.086   3.769 -0.0369  0.0909  0.2515
21343W        W36812  10.082  17.513   2.935  0.0030 -0.2357  0.1944
21344W        W36813  11.143  16.462   1.691  0.1588  0.3753 -0.2550
21345W        W36814  16.580   9.581  14.073  0.0745 -0.0650  0.0357
21346W        W36815   3.300   0.234   2.542 -0.1314 -0.1582 -0.1854
21347W        W36816   7.248  10.089   5.742 -0.1042 -0.3600  0.1210
21348W        W36817   2.910   8.607   5.227 -0.1318  0.0141  0.2803
21349W        W36818   9.657   3.922   2.779  0.1984  0.1625 -0.0567
21350W        W36819   9.214  15.280  14.569 -0.1186  0.0398  0.0355
21351W        W36820  10.193   1.807  13.301 -0.0504 -0.1111  0.1649
21352W        W36821  18.110   0.206  15.035 -0.0536  0.1444  0.2926
21353W        W36822   1.957   9.988   0.163  0.0286 -0.0565  0.0315
21354W        W36823   3.080   5.050   5.345  0.0139  0.1061  0.3412
21355W        W36824  12.874   0.759   3.475 -0.2181 -0.2340  0.0799
21356W        W36825   8.341  14.552   1.748 -0.0443  0.0459  0.0062
21357W        W36826  16.651   3.190   2.854  0.1722 -0.0522  0.1193
21358W        W36827  10.477   5.008   0.370 -0.1046  0.1372 -0.0085
21359W        W36828   8.578  10.508   3.197  0.1281  0.2490  0.2473
21360W        W36829  10.205   4.200  15.992  0.0915 -0.0474 -0.0461
21361W        W36830  10.961   0.450   3.645  0.2589  0.1137 -0.2048
21362W        W36831  14.808  18.063  13.803 -0.0272 -0.3977  0.0420
21363W        W36832  17.328   8.423   2.917  0.0285 -0.1331 -0.1764
21364W        W36833   0.271  15.629   2.206 -0.0997 -0.3108 -0.1081
21365W        W36834   9.706   5.306  13.098 -0.0280  0.0548  0.5382
21366W        W36835  16.129  15.477   0.405 -0.1049 -0.1783  0.0088
21367W        W36836   2.753   1.374  14.160  0.1561  0.0860  0.0885
21368W        W36837   0.798   1.764   1.972  0.2646 -0.0079  0.3502
21369W        W36838   4.094  10.042  14.934  0.0071  0.2167 -0.0582
21370W        W36839   0.254   7.964   3.238 -0.2828  0.0401  0.1602
21371W        W36840  17.027   9.373  15.279 -0.2042 -0.0132  0.1823
21372W        W36841   8.169  15.414  12.790 -0.3353 -0.0147 -0.1518
21373W        W36842  10.437   4.854  14.541  0.2003 -0.0097 -0.1473
21374W        W36843   8.759   9.761  11.842 -0.4021 -0.1000  0.1505
21375W        W36844   0.262   4.526  13.388  0.1770 -0.0674  0.1790
21376W        W36845  17.030  11.182  13.060  0.1615  0.0727 -0.2389
21377W        W36846  10.530   8.573  11.216 -0.0509  0.1041  0.0091
21378W        W36847   6.429   5.730   3.746 -0.1336  0.0609  0.2057
21379W        W36848   8.423   2.046   5.635 -0.1044 -0.0708 -0.0372
21380W        W36849   7.363   1.018   2.608 -0.1312 -0.0366  0.3912
21381W        W36850  18.325   8.321  13.631  0.1387  0.2032 -0.0826
21382W        W36851   8.052   0.847   3.576  0.1349  0.1254 -0.1559
21383W        W36852   4.865  17.653   3.679  0.1532 -0.1406 -0.3576
21384W        W36853  13.418   9.239  13.798  0.2528 -0.1145 -0.4206
21385W        W36854  17.734   2.212  11.494 -0.0295 -0.0275  0.0565
21386W        W36855   1.646   2.121  15.989 -0.2557  0.2461 -0.1884
21387W        W36856   4.435   4.313  14.797 -0.2032 -0.2343  0.0729
21388W        W36857  17.865   4.142  11.702  0.0146  0.1135  0.0811
21389W        W36858  15.191   4.215   2.389 -0.0872  0.0164 -0.1098
21390W        W36859   3.700  15.022  12.890 -0.0409  0.0095 -0.1076
21391W        W36860  17.770  11.256   2.382 -0.1356  0.0317  0.0360
21392W        W36861   8.084  14.430  12.639 -0.2529  0.1750  0.3402
21393W        W36862   5.983   6.811  14.042  0.0670  0.0603  0.1754
21394W        W36863   1.013  12.040   4.402 -0.1097  0.1279 -0.3827
21395W        W36864   5.400   8.370  15.021 -0.1429  0.3286 -0.4271
21396W        W36865   7.890   9.081   5.275  0.0678  0.4527  0.1666
21397W        W36866   7.474  14.079   3.073  0.3525 -0.0060  0.0812
21398W        W36867   3.820   7.795  14.143 -0.0257  0.1427  0.2519
21399W        W36868   2.701  12.682   4.000 -0.0575  0.3343 -0.0857
21400W        W36869  18.131   5.777   1.646 -0.0688  0.0031  0.0301
21401W        W36870   0.037   1.824  13.976 -0.1756 -0.1777 -0.2021
21402W        W36871  12.155   1.948   5.351 -0.1857  0.1547  0.0852
21403W        W36872   8.787  13.385  11.704 -0.0745 -0.1911 -0.3262
21404W        W36873   9.910   4.561   5.938 -0.2106 -0.3090 -0.0701
21405W        W36874  11.186  11.653   0.611  0.1885 -0.4164  0.3493
21406W        W36875   6.114   6.221   3.494 -0.0993  0.1368  0.0345
21407W        W36876   7.957   6.124   0.271 -0.2208  0.0244 -0.5363
21408W        W36877  17.483   3.188  12.875  0.0612 -0.1176  0.0559
21409W        W36878   9.832  13.059  11.099  0.1233  0.0301  0.1176
21410W        W36879   3.997   7.984   4.386 -0.0263 -0.3338  0.0252
21411W        W36880   9.437  14.938  12.833 -0.3326  0.0479  0.0901
21412W        W36881   9.176  13.392  12.592 -0.0265  0.2707 -0.1524
21413W        W36882   6.020  15.220  12.400 -0.5936 -0.2634  0.3039
21414W        W36883   7.448  14.922   4.218 -0.1080 -0.0336 -0.0053
21415W        W36884   4.312   3.276  15.106  0.0911  0.3051  0.2310
21416W        W36885   6.451   1.676   4.201  0.1535 -0.4480  0.1825
21417W        W36886  14.875   1.753   2.733 -0.0024  0.0490  0.1090
21418W        W36887  18.062  17.803  15.227  0.0191 -0.0339  0.3242
21419W        W36888   2.651  14.366   1.678 -0.0341  0.2734  0.2557
21420W        W36889   6.695   8.316  11.551  0.3997 -0.0625 -0.3533
21421W        W36890   4.607  15.251   1.876  0.0254 -0.0151 -0.0169
21422W        W36891  11.285   7.122  10.440  0.1650  0.1342 -0.3023
21423W        W36892   1.839  13.548   3.169 -0.5309  0.1325  0.1610
21424W        W36893  16.283   0.296   4.598 -0.0807 -0.1192 -0.2845
21425W        W36894  11.283  16.588   0.656  0.4217 -0.1930  0.1559
21426W        W36895   1.394  14.507  11.719 -0.0082 -0.1456 -0.1470
21427W        W36896  14.134  14.608   5.354  0.0702  0.2561  0.1022
21428W        W36897   6.959  13.294  11.779  0.1434 -0.1546 -0.1989
21429W        W36898   5.105   8.235  15.597 -0.0084  0.1556  0.1526
21430W        W36899  16.549   5.132   4.775 -0.1713 -0.3597 -0.1549
21431W        W36900   9.667   8.175  12.959 -0.3480 -0.0807 -0.1984
21432W        W36901   0.403  14.090  11.488 -0.0712 -0.1959  0.1423
21433W        W36902  15.623  10.489   4.573 -0.3751 -0.0918  0.2649
21434W        W36903  13.447   2.804  11.052 -0.0751 -0.1462  0.3150
21435W        W36904   0.564   4.834   1.335 -0.4166  0.0737 -0.0995
21436W        W36905  10.053   7.546  12.220  0.2048 -0.1044 -0.2247
21437W        W36906   8.664  12.192   0.829  0.4123 -0.0916 -0.1685
21438W        W36907   7.229  17.446  14.474 -0.1447  0.0924 -0.1187
21439W        W36908  17.661   9.248  12.642 -0.2278 -0.0612 -0.0829
21440W        W36909  10.419  10.211   0.642  0.1224 -0.0611 -0.0315
21441W        W36910   0.940  14.229  11.582  0.1366  0.0087 -0.1927
21442W        W36911  13.520   0.321   5.499  0.0153  0.1246 -0.0495
21443W        W36912   6.898  15.648  15.538 -0.2674  0.1521  0.1586
21444W        W36913   3.226  12.854  15.364 -0.1806  0.1837  0.2030
21445W        W36914   2.951   3.384   3.260 -0.0617  0.0675 -0.3311
21446W        W36915  12.430   9.685  11.573 -0.0016  0.3299  0.1517
21447W        W36916   3.522  14.116   1.276 -0.0419  0.2285  0.2619
21448W        W36917  17.478   8.722  14.892 -0.0704  0.0957 -0.0606
21449W        W36918  16.814   0.829   2.087 -0.3700  0.2401 -0.2702
21450W        W36919  17.448  12.394  11.024  0.3076  0.0286 -0.0647
21451W        W36920  10.660  11.556   1.923 -0.1822 -0.1269  0.2896
21452W        W36921   3.175   9.044   1.891  0.0497  0.0515  0.0696
21453W        W36922   3.360  12.926  15.945  0.0499  0.0244 -0.4069
21454W        W36923   6.286  15.600   5.175  0.1504  0.1575 -0.2223
21455W        W36924   7.210  17.548  15.478  0.2895  0.2032 -0.1252
21456W        W36925  10.318  16.107   1.959  0.3202  0.1488  0.1272
21457W        W36926   9.252   0.651   0.215  0.2616 -0.0219  0.3523
21458W        W36927  14.209   2.658  15.411  0.1926 -0.0650 -0.0138
21459W        W36928  10.693   6.425   2.191 -0.1846  0.1831 -0.2813
21460W        W36929  12.880   8.578   1.171  0.3176 -0.0563  0.3938
21461W        W36930  18.455  16.127  12.644 -0.0924  0.1074  0.3157
21462W        W36931  13.783   7.972   2.224  0.1142  0.0102  0.0014
21463W        W36932   4.253  14.629   1.632  0.2067 -0.2547 -0.1991
21464W        W36933  11.215   5.527   2.150 -0.0091 -0.1347  0.0902
21465W        W36934   4.109   8.492   4.362 -0.0649  0.0264 -0.3827
21466W        W36935   7.490  14.909  12.109 -0.2396  0.1524  0.2531
21467W        W36936  13.677  14.518   0.778  0.1718 -0.0480 -0.1250
21468W        W36937   1.849  10.561  11.193  0.0150 -0.0239 -0.4586
21469W        W36938   7.302   8.619   3.111  0.0999 -0.1556 -0.0646
21470W        W36939   9.587  18.255  15.886  0.1444 -0.2197  0.0370
21471W        W36940  15.961   8.762   1.184  0.0034 -0.1019 -0.0970
21472W        W36941  12.080   6.136   3.611  0.2618 -0.2384  0.3750
21473W        W36942  14.515   1.995   1.651 -0.3324 -0.2186 -0.2852
21474W        W36943  10.745  10.970   4.011  0.2663  0.2653 -0.0036
21475W        W36944  17.814   6.095  11.839  0.0160 -0.1927  0.0137
21476W        W36945   3.310   5.087   3.576  0.1349  0.1231 -0.2604
21477W        W36946   8.795   6.860   4.774 -0.1178  0.0753  0.1302
21478W        W36947   2.280   7.103   3.352 -0.0539 -0.0612 -0.2399
21479W        W36948  13.375  15.256  15.086  0.0152 -0.1982  0.0575
21480W        W36949   1.561   7.940   5.301  0.2741  0.1540  0.2360
21481W        W36950   6.283   7.187   0.261  0.2472  0.1586 -0.0812
21482W        W36951  18.237  16.381  15.168  0.1555  0.0977 -0.2253
21483W        W36952  17.332   6.119   5.427  0.2187 -0.1235  0.2354
21484W        W36953   5.752  14.568   2.741 -0.2917  0.1304 -0.0996
21485W        W36954   5.575   5.937   0.412  0.0846 -0.1128  0.0452
21486W        W36955  13.467  18.049   1.317 -0.1353  0.0777  0.0095
21487W        W36956   1.900  15.099  13.360  0.1440  0.0098  0.0462
21488W        W36957  17.453  18.148  12.173  0.1323  0.0147 -0.1798
21489W        W36958  12.470  11.367   1.346  0.5357 -0.2422  0.1028
21490W        W36959  12.019   9.472  15.133  0.0284 -0.0787  0.0629
21491W        W36960   9.282   9.804   3.596  0.2690  0.0095  0.1126
21492W        W36961  18.110   4.592  11.191 -0.2462  0.3245 -0.1372
21493W        W36962  11.437   6.081  15.301 -0.0239  0.0333  0.0808
21494W        W36963   2.603   2.376   1.217  0.0070 -0.4933  0.4098
21495W        W36964  17.197  15.180   3.500 -0.3042  0.1329  0.1379
21496W        W36965   2.597  15.471   0.852  0.1929  0.1579 -0.2202
21497W        W36966  12.467   2.988  11.793  0.1175 -0.1708 -0.0318
21498W        W36967  13.211   8.570  11.418  0.1476  0.2267 -0.0542
21499W        W36968  15.936  15.322  11.308 -0.0220  0.0497  0.0321
21500W        W36969   4.989   1.618   1.927 -0.4126  0.0853 -0.1272
21501W        W36970   1.532   0.898   3.730  0.1545 -0.0485  0.0401
21502W        W36971  15.891  15.651   4.221  0.1375  0.2244  0.0381
21503W        W36972   0.491  11.618  11.973  0.1204  0.1747  0.2318
21504W        W36973  17.840  12.760   1.259  0.0273  0.1777  0.1059
21505W        W36974   0.133   1.612  12.483  0.2963 -0.0993 -0.0559
21506W        W36975  12.412   9.541  15.983  0.1105  0.1917  0.0621
21507W        W36976  16.490  12.165   1.097 -0.0260  0.2520 -0.3032
21508W        W36977   2.848  17.592   3.885  0.0564  0.4057  0.2997
21509W        W36978  10.833   2.330   5.173  0.1942 -0.0915  0.1208
21510W        W36979   4.012   0.718  12.603  0.0806  0.0531 -0.1633
21511W        W36980  15.424   5.142   0.342 -0.1461 -0.1769 -0.0485
21512W        W36981   4.721  13.545   0.364  0.1890  0.1636 -0.0588
21513W        W36982  13.601  13.804   4.650  0.2797 -0.1547  0.2242
21514W        W36983  10.429  17.948  10.817  0.0352  0.0721 -0.3168
21515W        W36984  10.491   4.449  15.610 -0.0828 -0.1372  0.3237
21516W        W36985  11.166   3.796   2.957 -0.1941 -0.0554  0.3995
21517W        W36986  10.706   4.888  12.706  0.0102 -0.2998  0.1174
21518W        W36987   1.899  18.362   3.281 -0.0416 -0.3723  0.1070
21519W        W36988   5.785  11.018   4.072  0.1013 -0.1006  0.2408
21520W        W36989  17.099   2.245   4.441  0.0534 -0.1731  0.1991
21521W        W36990  17.608  15.802  11.726 -0.2088  0.1875  0.0155
21522W        W36991  16.509  12.028  10.717 -0.0579 -0.1425 -0.2262
21523W        W36992  10.695  14.545  13.887  0.0715  0.0241  0.0542
21524W        W36993  15.636  17.545   4.891 -0.0583 -0.2519 -0.0480
21525W        W36994  11.408  12.034   0.861  0.0669  0.0512 -0.3089
21526W        W36995  16.546  14.845   0.872 -0.2165  0.0749 -0.0641
21527W        W36996  16.250  11.854   2.862  0.1363  0.1529  0.1295
21528W        W36997  14.040   3.988   4.611 -0.0512 -0.4302 -0.1342
21529W        W36998  13.144   5.555  11.657 -0.1146  0.0755 -0.2844
21530W        W36999  10.507  15.132  10.502  0.1479 -0.1080 -0.0511
21531W        W37000   0.816   3.142  13.822 -0.1317 -0.1043  0.2422
21532W        W37001   0.935  11.052  15.395  0.0685  0.4206  0.2281
21533W        W37002   6.516  16.374  11.772  0.0109  0.2043  0.0942
21534W        W37003  18.351  10.534   3.868  0.1867 -0.1030  0.2036
21535W        W37004   4.090   3.590   2.624  0.0576 -0.3133  0.1031
21536W        W37005  14.353   1.286   4.155 -0.1851  0.2417  0.3209
21537W        W37006  12.972  14.422  11.694  0.0976  0.1365  0.0142
21538W        W37007   1.756   0.174  15.256  0.0248  0.1132 -0.1613
21539W        W37008  16.694   8.275  15.990 -0.2608  0.2885 -0.0916
21540W        W37009   3.982   4.744  15.568 -0.1612 -0.1873 -0.0397
21541W        W37010   6.515   2.712   2.245  0.1291  0.1001  0.0823
21542W        W37011  11.726  18.367  14.662 -0.0694 -0.0429 -0.1083
21543W        W37012  10.046  15.159  10.711 -0.2003 -0.1291 -0.1003
21544W        W37013   2.352  13.471  12.937 -0.2979 -0.3665  0.1158
21545W        W37014   0.695   7.781  12.091  0.1080 -0.0952  0.2567
21546W        W37015   2.692   6.992   5.118  0.1757  0.2027  0.0204
21547W        W37016  12.938   6.655  14.131  0.0053  0.0826  0.0763
21548W        W37017   2.839  17.858   4.864  0.1280 -0.1336 -0.2734
21549W        W37018   8.738  11.777  11.131  0.2265 -0.2476  0.1412
21550W        W37019  10.735  12.090   1.813 -0.0676  0.0490  0.0742
21551W        W37020   7.853   0.971  13.613  0.0285  0.0326 -0.0271
21552W        W37021   0.303   6.754  14.974 -0.2660  0.1349  0.4605
21553W        W37022   5.256   6.364   1.806  0.2261  0.0942 -0.0964
21554W        W37023  11.346  18.192   0.869 -0.2482 -0.2227 -0.2118
21555W        W37024   5.487   4.887   6.078  0.0082 -0.0908 -0.0387
21556W        W37025  11.731   3.805   2.844 -0.2851 -0.3350 -0.2278
21557W        W37026   8.268  14.441  15.726 -0.0447  0.4086 -0.3152
21558W        W37027   2.168  16.619  14.060 -0.0820  0.0950 -0.1825
21559W        W37028   4.146   1.297   0.619 -0.2089 -0.0796  0.2781
21560W        W37029   6.903   0.795  12.011  0.1259 -0.2473 -0.3640
21561W        W37030   6.807   3.325   5.241  0.3357  0.1346  0.0781
21562W        W37031   2.528   8.549   2.632  0.1406 -0.0660 -0.0055
21563W        W37032  14.096   8.195  14.590  0.2221  0.1643 -0.4397
21564W        W37033   2.675   9.221  12.823 -0.1599 -0.0462  0.0919
21565W        W37034   7.119   5.763   5.292  0.2097 -0.0959  0.2720
21566W        W37035   7.838  15.446  11.448 -0.0752  0.2378 -0.1586
21567W        W37036   9.279   6.118   2.946  0.3377 -0.0818  0.2388
21568W        W37037  13.641   5.666  11.194  0.0154  0.0555 -0.0981
21569W        W37038   2.404   8.725   4.512  0.1868  0.3848 -0.0998
21570W        W37039   9.519   0.240  12.249 -0.0996  0.0286 -0.0862
21571W        W37040   7.581  17.166  11.060 -0.2370  0.1220  0.1963
21572W        W37041  11.008  17.403   1.674  0.0541 -0.0345  0.0669
21573W        W37042  15.042  12.222   4.775 -0.1073 -0.4965  0.0462
21574W        W37043  15.080   8.942  14.116  0.0179 -0.1991 -0.0983
21575W        W37044  14.291  10.187  15.879  0.0690 -0.2060  0.2371
21576W        W37045   5.904   3.188   0.792 -0.1913  0.0294 -0.2038
21577W        W37046  17.362   7.464   0.053 -0.1103  0.1264  0.3588
21578W        W37047  13.170  18.437   2.962 -0.0968  0.0077  0.0558
21579W        W37048   7.243   1.907   2.255 -0.0993 -0.1557  0.2950
21580W        W37049  12.999   8.507  13.223  0.2449 -0.0865 -0.1537
21581W        W37050  13.042  10.956   0.188 -0.1748 -0.1089 -0.1016
21582W        W37051  14.974   9.077  14.987  0.0231 -0.1404 -0.1532
21583W        W37052  14.640  15.386  11.025  0.0249  0.2652  0.4655
21584W        W37053  12.197   5.972   4.107 -0.2129 -0.0075  0.0825
21585W        W37054  10.413   1.735   4.451 -0.1464 -0.3606  0.0228
21586W        W37055   0.400  11.654  15.794 -0.0334  0.1037  0.2299
21587W        W37056  11.001  16.528   1.086  0.0496  0.0988  0.0255
21588W        W37057   0.047  16.169   4.864  0.0394 -0.1720 -0.1161
21589W        W37058   8.357   6.707  11.071 -0.0058  0.2265 -0.2224
21590W        W37059  11.574  16.069  15.417 -0.3780 -0.2934 -0.2961
21591W        W37060  12.808  18.204   3.372 -0.1229 -0.1411  0.2727
21592W        W37061  14.451  11.147  14.047 -0.4349  0.3346  0.0560
21593W        W37062  10.415   3.100   1.336  0.0696 -0.0622  0.3870
21594W        W37063   1.458  13.311  11.305  0.2366 -0.0469  0.0157
21595W        W37064  12.126   5.112  11.017  0.1004  0.3071 -0.0468
21596W        W37065  12.411   9.920  12.449  0.1704 -0.4286 -0.1092
21597W        W37066   8.110  17.132   5.659 -0.0418  0.1470  0.1739
21598W        W37067   6.451  15.733  15.834 -0.1024  0.1129  0.0664
21599W        W37068   3.046   7.734  11.908  0.2993  0.0392  0.1606
21600W        W37069  12.309  10.194  13.867 -0.0581 -0.0732  0.0202
21601W        W37070   6.346  18.173  10.761  0.2382  0.1977 -0.0588
21602W        W37071   9.072  11.540  11.453  0.0640 -0.1527  0.0607
21603W        W37072   4.843   6.685   2.494  0.1148  0.1316 -0.1585
21604W        W37073   7.932  13.331  13.851 -0.0591  0.2200  0.3436
21605W        W37074  15.023   5.249   3.583  0.0000  0.0535  0.1166
21606W        W37075  17.915  15.043  14.427 -0.1174 -0.0447  0.2351
21607W        W37076   8.322  17.695   4.885 -0.0344  0.3069  0.0384
21608W        W37077   4.962  10.096   0.581 -0.0530  0.1643 -0.2614
21609W        W37078  16.033   4.912   4.626 -0.0807 -0.0508  0.1025
21610W        W37079   5.651   2.654  12.009 -0.0229  0.0690  0.2348
21611W        W37080  11.231   6.846   5.024  0.1042  0.0372  0.3114
21612W        W37081  11.177  17.508  14.657  0.1485 -0.0341  0.1000
21613W        W37082   4.788   7.477  15.370  0.1250 -0.0447  0.0495
21614W        W37083  17.432  16.737   2.718 -0.1842 -0.0694 -0.0870
21615W        W37084   6.461  12.479   4.123  0.2826 -0.3114  0.1755
21616W        W37085   0.726   0.328  14.295 -0.2619  0.3914 -0.0456
21617W        W37086   1.063  16.707   0.383 -0.1289 -0.0272  0.1406
21618W        W37087   8.502  17.560   4.106 -0.3012 -0.1870  0.0032
21619W        W37088  13.711   9.644   2.662  0.1129 -0.2311 -0.0168
21620W        W37089  10.032  17.511  11.715  0.0021 -0.1233  0.1247
21621W        W37090   7.007   6.552   2.587  0.0149 -0.0907 -0.2139
21622W        W37091  15.593  12.251   3.336  0.3319 -0.0952  0.0172
21623W        W37092  18.378   7.712  15.599  0.0424 -0.4462 -0.0331
21624W        W37093  12.849   9.796  10.322 -0.1032  0.2006 -0.3741
21625W        W37094  13.719   2.450   2.743 -0.0533 -0.3355  0.1399
21626W        W37095  16.259  12.148   2.487  0.0146  0.3838  0.0807
21627W        W37096   5.979   2.217  15.154  0.0443  0.1363  0.4332
21628W        W37097   2.635   3.475  12.330 -0.1369  0.0855 -0.0410
21629W        W37098   8.137  11.094  13.625 -0.0600  0.2396  0.1105
21630W        W37099   9.362   8.348   2.625  0.0599 -0.3946  0.0060
21631W        W37100   9.541   7.955  15.575  0.0299 -0.0294  0.3481
21632W        W37101  14.041   1.870  13.562  0.1333 -0.0105  0.0691
21633W        W37102   1.684   4.798   2.703  0.3044  0.1372  0.1452
21634W        W37103   6.132  12.402   3.753  0.0089 -0.3601 -0.0653
21635W        W37104  15.739   1.548   1.610  0.0328  0.0519  0.0150
21636W        W37105  16.898   4.649   4.353  0.0498 -0.2816  0.2413
21637W        W37106   7.334  11.596  13.655 -0.2230  0.0958  0.3555
21638W        W37107  12.493  16.386   4.294 -0.0204 -0.0710  0.7592
21639W        W37108  11.689  13.241   0.818  0.0873 -0.1008  0.2126
21640W        W37109   9.329  13.504  10.536 -0.0592 -0.0546  0.2417
21641W        W37110   6.980   2.204  12.392 -0.4374  0.3373 -0.1218
21642W        W37111  14.958  16.567   5.182  0.1903 -0.1623  0.1659
21643W        W37112  13.890  13.099  15.078 -0.1715  0.1588  0.1964
21644W        W37113  17.302   2.489   1.832 -0.3747 -0.0464  0.0757
21645W        W37114   1.958   3.662  14.071  0.2095 -0.0947  0.0535
21646W        W37115  15.656   6.634   4.521 -0.3168  0.0208  0.2419
21647W        W37116  15.199   6.391   1.360  0.2472  0.3938 -0.5449
21648W        W37117   5.912   3.727  11.326 -0.0589 -0.0722  0.1657
21649W        W37118   5.291   3.660  13.115  0.0595 -0.0942 -0.0238
21650W        W37119   0.347  16.489  12.158  0.1020 -0.3804  0.3009
21651W        W37120   4.192  16.850   0.751  0.0340 -0.0172  0.3281
21652W        W37121  16.342  16.081  10.874 -0.1345 -0.1183 -0.2524
21653W        W37122  13.649   4.813   1.881  0.3194  0.3312  0.2968
21654W        W37123   2.230   9.581  15.803 -0.0334 -0.2432  0.4511
21655W        W37124  11.504  18.194  10.891 -0.0592 -0.3903  0.0227
21656W        W37125   2.782  12.751   5.048 -0.0244  0.1381  0.0995
21657W        W37126   9.022   6.607  11.306  0.1770 -0.0443 -0.3891
21658W        W37127  10.339   0.877   1.619 -0.1266  0.3000 -0.2545
21659W        W37128  11.807   4.400   2.869  0.1603  0.4212 -0.3965
21660W        W37129   0.638   7.189   0.312  0.0160  0.1615 -0.0272
21661W        W37130   8.711   7.764  12.579  0.1198 -0.0867  0.0080
21662W        W37131  17.095   5.015   2.847 -0.4587  0.0425 -0.1502
21663W        W37132  16.226   0.122   2.953 -0.2928  0.1847  0.1300
21664W        W37133   1.279   9.654   4.452 -0.1723 -0.0485  0.0169
21665W        W37134   7.687  14.701   4.601 -0.2431 -0.1748 -0.2153
21666W        W37135   9.720  12.470   3.703  0.1050 -0.3999  0.4307
21667W        W37136   1.255  12.615  12.627 -0.0329  0.2575 -0.1979
21668W        W37137   3.274  10.626  15.244 -0.3600 -0.0492 -0.1210
21669W        W37138  16.077   4.361   4.793 -0.0708 -0.3408  0.2487
21670W        W37139   7.848  13.146  15.695 -0.0671  0.0543  0.2144
21671W        W37140   9.460   2.112   2.787 -0.0517  0.0831 -0.2631
21672W        W37141   0.416  13.752   1.633  0.1886 -0.2470 -0.2016
21673W        W37142  12.058  15.420  14.934  0.3172 -0.3438  0.2729
21674W        W37143  12.214  16.833  14.414 -0.0875 -0.0552  0.0379
21675W        W37144   6.137   9.154   1.561 -0.0069  0.1311  0.0035
21676W        W37145   1.030  16.893  15.589 -0.2458  0.2375  0.1024
21677W        W37146  11.895  15.680   4.930  0.1009 -0.0393  0.0021
21678W        W37147   6.762   2.969  13.431 -0.1047  0.0728  0.2679
21679W        W37148  17.864  17.155   0.288 -0.0260 -0.0178  0.4217
21680W        W37149  17.239   0.596   4.500  0.4044  0.2551 -0.0010
21681W        W37150   7.453   7.822   2.917 -0.2379 -0.0271  0.3757
21682W        W37151   9.085  10.064   0.466 -0.0175  0.2355  0.2306
21683W        W37152  12.943  16.234   2.255 -0.1137  0.0797  0.1828
21684W        W37153   5.510  12.535   4.886 -0.0587  0.3948 -0.3395
21685W        W37154  16.475   2.253  15.702 -0.0298  0.0374 -0.2844
21686W        W37155   3.114   5.275  14.057  0.2584  0.0996  0.0366
21687W        W37156   6.434  16.649  10.132  0.1003  0.2151  0.0778
21688W        W37157   8.108   5.251   0.111 -0.1668  0.1755 -0.0330
21689W        W37158  15.793  11.955  11.321  0.0589  0.2418  0.0491
21690W        W37159   3.192  18.322   4.294 -0.5074 -0.0539 -0.1591
21691W        W37160  14.072  16.331   0.447  0.3556  0.3442  0.1446
21692W        W37161   8.723   1.922   5.045 -0.2577 -0.0174  0.2667
21693W        W37162  15.898  16.125  14.038 -0.2553 -0.6093  0.0788
21694W        W37163   8.761  14.959   1.033 -0.0809  0.4409  0.3348
21695W        W37164  17.268   9.930   6.102  0.2564  0.3681 -0.2251
21696W        W37165  13.143   9.378  13.403 -0.2348  0.3397 -0.0816
21697W        W37166   8.507   5.853   5.575 -0.1731  0.2101 -0.0572
21698W        W37167  14.858  13.354  12.455  0.1784 -0.2698  0.1006
21699W        W37168   3.146  13.215  15.025  0.5946  0.0117 -0.1623
21700W        W37169  16.158   1.861   1.491 -0.0688  0.5679  0.1125
21701W        W37170  11.523   4.758  14.013  0.0715  0.1560  0.0970
21702W        W37171  18.361   1.062  13.772 -0.3432  0.2843  0.2621
21703W        W37172  14.886   2.987  13.491  0.1038 -0.0720 -0.4116
21704W        W37173   4.515  17.360   3.988 -0.4191 -0.3125  0.0107
21705W        W37174   6.556   3.631  15.263 -0.1305 -0.2406  0.1972
21706W        W37175  15.973   7.905   4.349 -0.1663 -0.0283 -0.1529
21707W        W37176  16.759   1.429   2.892  0.1056 -0.5293  0.3176
21708W        W37177  14.330   9.694  11.315 -0.3276 -0.1512  0.0221
21709W        W37178   1.479   8.877  11.045  0.1238 -0.1109  0.0279
21710W        W37179  16.321  17.717  13.638 -0.2680  0.0791  0.3028
21711W        W37180   5.229  13.210  13.883  0.1178  0.1733  0.3941
21712W        W37181   3.688  15.391  13.810 -0.0923 -0.1626 -0.2350
21713W        W37182  17.853   0.125  14.587 -0.1759  0.0552  0.1605
21714W        W37183   1.719  15.804   4.832 -0.0594 -0.0652  0.0095
21715W        W37184  12.584   6.281  11.256 -0.4133 -0.1314 -0.2397
21716W        W37185   3.841  14.164  14.519  0.1516 -0.1195  0.3680
21717W        W37186  16.686   1.294   3.987 -0.1362  0.0989  0.0796
21718W        W37187  11.700   6.578  14.042 -0.2852 -0.0031 -0.0567
21719W        W37188  13.646   6.375   3.442  0.1157  0.2283  0.2993
21720W        W37189  10.781   0.434   2.213  0.0424 -0.1089 -0.3332
21721W        W37190  12.603  18.327  14.268 -0.0178 -0.2661  0.0198
21722W        W37191   7.667  17.274  12.735  0.0562  0.0848 -0.1762
21723W        W37192  13.271  11.900  15.960 -0.1445 -0.2276  0.0375
21724W        W37193   2.832   1.312  14.638  0.0431  0.2843  0.0048
21725W        W37194   5.251  13.666   3.884 -0.0658 -0.4537 -0.0706
21726W        W37195  13.409  14.173   2.142 -0.1016  0.2542 -0.0373
21727W        W37196   4.485   2.033  12.151  0.2826  0.0012 -0.3964
21728W        W37197  15.005   8.855  16.027  0.1538 -0.1315  0.0811
21729W        W37198   5.233   4.663  12.511  0.0693 -0.0451 -0.1139
21730W        W37199   0.083   0.602  13.962  0.1406 -0.1717  0.0114
21731W        W37200   5.472  12.219  15.680  0.1364 -0.0607 -0.4458
21732W        W37201  18.036  18.133   3.907 -0.1333 -0.1144  0.0933
21733W        W37202   7.898  16.106   1.858  0.0335  0.1575  0.0615
21734W        W37203   8.708  11.080  11.930 -0.0900 -0.0911  0.5486
21735W        W37204  13.887  11.105   5.269  0.1501  0.3777 -0.0610
21736W        W37205   5.796  15.074   9.627  0.0739 -0.0068 -0.0910
21737W        W37206  16.289  12.881  12.919 -0.1979 -0.3539  0.2084
21738W        W37207   6.009  13.744  12.677 -0.2588 -0.0601 -0.4305
21739W        W37208  15.529   3.373  15.146  0.1844  0.2436  0.1387
21740W        W37209   1.961   8.250  15.141 -0.1125 -0.0267 -0.0397
21741W        W37210   0.139  14.873   1.393 -0.2065 -0.2270  0.2077
21742W        W37211   0.957  15.485   4.261 -0.2877 -0.2696  0.3285
21743W        W37212   4.150  14.934  14.648  0.2447  0.1525 -0.2379
21744W        W37213   4.322   5.640  15.601  0.0106 -0.0702  0.1220
21745W        W37214   3.005  13.120   5.834  0.3185  0.1180  0.0334
21746W        W37215  16.128  11.197   5.066 -0.0708  0.0762  0.0180
21747W        W37216  14.332  15.279  12.612  0.1170  0.3646 -0.1105
21748W        W37217  15.568  11.832   0.940  0.0109 -0.0120 -0.2896
21749W        W37218  13.038   2.304  15.580 -0.2854  0.0605 -0.1545
21750W        W37219  16.635   5.069  13.925 -0.0804  0.2274 -0.0896
21751W        W37220   9.190   8.851   4.952 -0.1955 -0.0795  0.0435
21752W        W37221  11.006  17.819  11.971 -0.2215  0.1892 -0.1942
21753W        W37222   8.900  12.545  13.730 -0.3883 -0.1134  0.2452
21754W        W37223   7.350   7.940   0.455  0.2539  0.1128  0.0310
21755W        W37224   0.237   3.770   3.550 -0.2066  0.0920  0.1559
21756W        W37225   4.737   5.786   0.759 -0.1222  0.1891  0.2988
21757W        W37226  11.545   4.366   0.302 -0.1844  0.1286  0.0958
21758W        W37227  15.763   2.412  13.925  0.0644 -0.0397 -0.1051
21759W        W37228  17.586   4.009  15.774 -0.0941  0.0181  0.0365
21760W        W37229  13.114  13.467  11.351 -0.0411  0.1035 -0.0895
21761W        W37230  15.996  15.174  13.841  0.1893  0.1214 -0.0054
21762W        W37231   1.195  17.241   4.363  0.1085 -0.2813 -0.1288
21763W        W37232  11.033  11.986  14.454  0.1608 -0.0281 -0.1102
21764W        W37233  18.022   8.826   4.557 -0.0739  0.0853  0.0309
21765W        W37234   6.255  15.087   1.466 -0.0698 -0.1612  0.0461
21766W        W37235   6.036  10.360  13.565 -0.2929  0.2341  0.3814
21767W        W37236  17.929  12.631   1.746  0.2325  0.2192 -0.2036
21768W        W37237   6.268   0.364   0.342  0.0797 -0.0899  0.0722
21769W        W37238   0.397   3.426   1.315 -0.1876  0.1482  0.0437
21770W        W37239   8.312  17.884  15.600  0.0305 -0.2829  0.1771
21771W        W37240   4.733  17.395   0.368 -0.0494  0.2283  0.0245
21772W        W37241   4.294   5.514  12.478  0.0312  0.0962  0.1342
21773W        W37242   7.979  15.902  13.825 -0.0179 -0.1657  0.1428
21774W        W37243  12.573  11.206  13.742  0.4065  0.2035  0.1196
21775W        W37244   1.586   7.516   5.629 -0.0275 -0.1463  0.0187
21776W        W37245   9.150  18.115   3.444  0.4450  0.0669 -0.1626
21777W        W37246   8.863   2.570   4.097 -0.2730 -0.1763 -0.0527
21778W        W37247   4.737  15.226   0.470  0.2647  0.2094  0.0239
21779W        W37248  16.924   3.381  15.395  0.0172 -0.1939 -0.0209
21780W        W37249   1.066   5.853   1.686  0.0821 -0.2596 -0.3476
21781W        W37250   3.558   2.515   5.083  0.0765  0.4025 -0.0025
21782W        W37251   3.423  12.765   4.549  0.3279  0.2123  0.0428
21783W        W37252   1.288   9.053   3.211  0.0269  0.2884 -0.0244
21784W        W37253  17.685   3.480  15.814  0.2424  0.6359  0.1719
21785W        W37254  17.561   3.504  14.759  0.3567 -0.0915  0.1044
21786W        W37255   1.034  13.258  15.538  0.1434 -0.0561 -0.0285
21787W        W37256   7.181   9.446   4.912 -0.0746  0.0978  0.1975
21788W        W37257  10.132   8.382   1.859  0.1836  0.2917  0.1055
21789W        W37258   6.671   9.306  14.226  0.1266  0.3151 -0.0724
21790W        W37259  13.264   6.346  12.516  0.2422  0.0044 -0.1612
21791W        W37260   4.946  17.352   2.338  0.3069  0.1824  0.0015
21792W        W37261  11.384   6.705   1.368 -0.2215 -0.1060 -0.0187
21793W        W37262   6.290  16.261  12.330 -0.0420  0.0471  0.2808
21794W        W37263   8.592   1.714   2.430 -0.4083 -0.2203  0.0612
21795W        W37264   7.297   5.542   1.305 -0.3633  0.2634 -0.0630
21796W        W37265   2.751   9.464  15.709  0.2112  0.2974  0.0199
21797W        W37266  11.155   6.196  11.605 -0.1207  0.0266  0.0598
21798W        W37267   2.419   2.351  14.485 -0.2828  0.0077 -0.0013
21799W        W37268   0.786  15.064   5.002  0.0387  0.0481  0.0858
21800W        W37269  17.262   3.535   5.187 -0.0444 -0.0962 -0.0131
21801W        W37270  16.219   5.544   4.838  0.0807 -0.0153 -0.2373
21802W        W37271   1.872  17.873   2.929 -0.0049  0.1013 -0.0970
21803W        W37272   7.829  12.599   3.784  0.0781  0.1791 -0.0815
21804W        W37273  13.463  11.979  14.585 -0.0294  0.4391  0.2979
21805W        W37274   4.377  15.790   0.041 -0.1210 -0.0034  0.1355
21806W        W37275  11.413  10.362   4.910 -0.2152  0.0490 -0.4175
21807W        W37276   6.042  15.616   1.478 -0.0795  0.0285  0.2170
21808W        W37277   5.560   8.603   5.395  0.0851 -0.1528 -0.0239
21809W        W37278  15.278  14.264  12.633 -0.1081  0.0801  0.2142
21810W        W37279   1.854  18.240  11.473 -0.0338  0.1237  0.0385
21811W        W37280  12.870   5.213   3.175  0.4200  0.1388  0.1246
21812W        W37281  16.071  17.996   5.954  0.0688 -0.3448 -0.1353
21813W        W37282  15.025  13.352  12.956  0.0243 -0.0171  0.0388
21814W        W37283   9.819  15.664  15.176 -0.1754  0.0398  0.0547
21815W        W37284  12.341  12.366   4.991 -0.3412 -0.1380 -0.2131
21816W        W37285  14.314  12.023   5.224 -0.0102 -0.1154  0.1203
21817W        W37286   4.867   4.988  14.552 -0.1273  0.0553  0.2543
21818W        W37287  15.529   4.752  13.403  0.0878 -0.0356 -0.1756
21819W        W37288  12.346  16.278   2.113 -0.1177 -0.0778 -0.1169
21820W        W37289   6.984   3.850  14.990  0.0204 -0.3868 -0.3050
21821W        W37290   5.006   6.235   0.856 -0.1156  0.0018 -0.2169
21822W        W37291   5.282  13.058  14.696 -0.1932  0.1460 -0.2840
21823W        W37292   7.099  15.111  10.894 -0.1956  0.3055  0.1695
21824W        W37293  11.573   3.944  13.445 -0.1098  0.0786  0.1347
21825W        W37294   9.394   8.565  13.134 -0.3744 -0.1685  0.1678
21826W        W37295  12.573   3.108   4.861 -0.1055  0.2393  0.1418
21827W        W37296   4.724  13.732   3.164  0.2576  0.0188 -0.3320
21828W        W37297   6.897  15.045   4.153 -0.2528  0.1741  0.0028
21829W        W37298  17.668   6.534  12.042  0.2719 -0.2011 -0.1692
21830W        W37299   3.829  13.231   3.829  0.1690 -0.0323  0.0961
21831W        W37300  14.250  18.108   5.514 -0.0219 -0.1613  0.1908
21832W        W37301   3.454  18.280  14.992  0.0032  0.0038  0.1523
21833W        W37302   8.683  11.233   5.958 -0.2876 -0.1153 -0.2381
21834W        W37303   4.448   9.772   2.582  0.0902 -0.1726  0.0902
21835W        W37304  15.982   4.577   2.951  0.0947  0.1853 -0.0587
21836W        W37305   8.416  15.123   0.628  0.0024 -0.2366  0.0370
21837W        W37306   7.573  15.153   0.602 -0.0634 -0.0824 -0.1630
21838W        W37307  12.063   7.186   4.981 -0.0366  0.1960  0.2801
21839W        W37308  15.979   6.975  12.364 -0.2682 -0.3554 -0.0068
21840W        W37309  14.688   6.302  12.739  0.1410 -0.0235 -0.0705
21841W        W37310   4.483   8.511   1.160  0.1403  0.2465  0.1262
21842W        W37311  14.578   2.550   4.876 -0.2387 -0.1351  0.1895
21843W        W37312   7.414  13.105  10.702  0.1948 -0.0229  0.0305
21844W        W37313  18.284   5.717   4.943 -0.4128 -0.2141  0.1543
21845W        W37314   5.728  10.477   0.111 -0.0114  0.2845  0.1114
21846W        W37315   9.602  16.702  13.877  0.1585 -0.1037 -0.0007
21847W        W37316   5.253   9.014   1.152  0.2139  0.2696 -0.3466
21848W        W37317   0.361   9.606   2.654 -0.1011 -0.0913 -0.0957
21849W        W37318  16.824  12.874   5.634 -0.2438  0.0015 -0.1171
21850W        W37319   4.403   6.313   4.845  0.0086  0.1139 -0.1519
21851W        W37320   2.300  16.777  11.541 -0.0122 -0.1601  0.1712
21852W        W37321   5.243   1.390   4.393 -0.0011 -0.3655 -0.2535
21853W        W37322   6.375   3.944  12.418  0.3799  0.2711  0.0386
21854W        W37323   1.623  18.063   0.995 -0.0032  0.0861 -0.3130
21855W        W37324  11.152   0.625  14.478 -0.0910 -0.1467 -0.1399
21856W        W37325  14.195  10.160  14.318 -0.1788  0.1150 -0.1288
21857W        W37326  10.094   6.120  15.616 -0.0803 -0.3402  0.3047
21858W        W37327   2.304  13.509  11.776  0.2886 -0.2162  0.2743
21859W        W37328   4.166  11.934  13.011 -0.1204  0.0521  0.3396
21860W        W37329  17.175   8.871   2.944  0.2315 -0.1307  0.2506
21861W        W37330   0.463  16.557   1.166 -0.0223  0.0204 -0.1173
21862W        W37331  12.859  15.642  11.462 -0.2348 -0.1159 -0.0856
21863W        W37332  11.266   3.279  11.969  0.0207  0.1666 -0.2624
21864W        W37333   5.193  12.506   4.095 -0.0284  0.0834  0.1696
21865W        W37334   7.522  11.835   3.708  0.1708  0.0493  0.3167
21866W        W37335  11.869   3.452  11.216 -0.0889 -0.1585 -0.1513
21867W        W37336  16.617  18.133   5.774  0.1316 -0.0550 -0.3874
21868W        W37337  13.930  10.799  15.138  0.1704 -0.0762 -0.0305
21869W        W37338   6.890  10.555  11.281 -0.1270  0.1910 -0.0243
21870W        W37339  10.901  16.492  13.398 -0.2247 -0.1788  0.0457
21871W        W37340   9.166  14.443  12.715  0.0148 -0.3312 -0.0942
21872W        W37341   2.199  15.966  14.632  0.2903  0.1886 -0.2716
21873W        W37342  16.747   7.819  15.162  0.0998  0.2687  0.1853
21874W        W37343  17.592  17.905  11.671  0.1486 -0.1216  0.1437
21875W        W37344  13.610   4.512   4.742 -0.1295  0.1818 -0.2079
21876W        W37345  11.619  11.991   1.697 -0.0172 -0.1279 -0.0731
21877W        W37346  14.143   5.042  14.650 -0.1600 -0.0485  0.0631
21878W        W37347  17.043  17.419  14.410 -0.1246 -0.1308  0.1134
21879W        W37348   9.835   1.468   1.057 -0.0498  0.3127 -0.1004
21880W        W37349  14.074   0.893   0.887  0.1909 -0.0695  0.1498
21881W        W37350  12.715  17.366  14.400  0.1803 -0.1188  0.0587
21882W        W37351  16.388  17.407   0.149  0.2317  0.0418  0.1013
21883W        W37352  17.741  17.071   5.928 -0.2061  0.0391 -0.0971
21884W        W37353  12.149   5.671   4.604  0.0123  0.1985  0.1244
21885W        W37354   6.047   7.280  13.029 -0.5671  0.4866  0.1242
21886W        W37355   9.272  13.200  15.224  0.0228  0.1900  0.1420
21887W        W37356  12.712  15.601   3.080  0.2338 -0.2130 -0.0702
21888W        W37357   7.078  15.748  13.290 -0.0294  0.0314 -0.2554
21889W        W37358  13.192  17.038   1.542 -0.2274  0.2679  0.2904
21890W        W37359   8.802  16.419   0.962  0.0173  0.0144  0.1768
21891W        W37360   7.109   0.103   1.180 -0.2900 -0.2092 -0.2832
21892W        W37361   1.123   5.120  13.261 -0.0348  0.2216 -0.0050
21893W        W37362   5.885  15.937  10.912  0.0348 -0.3575 -0.3103
21894W        W37363   9.387   7.990   2.013  0.0300  0.0030  0.2615
21895W        W37364   1.697   6.266   6.339 -0.0017  0.0412  0.1753
21896W        W37365  12.791  10.357  12.079  0.1275  0.3474  0.0864
21897W        W37366   6.288  10.789   5.332 -0.1753  0.1210  0.0618
21898W        W37367   8.060   7.970  13.125  0.1630  0.0844 -0.2577
21899W        W37368  16.259  16.405   0.626 -0.1475  0.0151 -0.0692
21900W        W37369   5.995  13.544  13.659 -0.1516 -0.0354  0.3826
21901W        W37370   0.421   1.104  14.020  0.1393  0.1253  0.3751
21902W        W37371  15.626   9.696   4.999 -0.0483 -0.0596 -0.2625
21903W        W37372   9.833  14.324  15.978 -0.0985 -0.0680  0.2689
21904W        W37373  18.000   0.462  11.844 -0.1542 -0.0936 -0.1201
21905W        W37374  13.567  17.502   2.981 -0.0522 -0.0353 -0.0225
21906W        W37375  13.924   4.625  13.099 -0.0086 -0.1386 -0.2497
21907W        W37376   1.004   9.975   0.537  0.1214 -0.1542  0.0784
21908W        W37377  16.887  15.358   3.177  0.1167 -0.0465  0.1857
21909W        W37378   9.935   9.959  15.026 -0.0044 -0.0415 -0.3351
21910W        W37379  13.529   0.882  10.886 -0.0070  0.0071 -0.3288
21911W        W37380   5.207   0.628  10.399  0.2605  0.3514  0.0227
21912W        W37381  10.631  12.631  13.236 -0.3469 -0.0430  0.2089
21913W        W37382   6.269   5.320   2.776 -0.1269 -0.2273  0.3539
21914W        W37383  13.445  15.386  14.280  0.0661 -0.3640  0.0005
21915W        W37384  11.026  15.073   3.506  0.0067  0.4444  0.1907
21916W        W37385  11.063  12.782  15.051  0.2199  0.0666 -0.1238
21917W        W37386   8.905  15.803   0.371 -0.3018  0.1671  0.0787
21918W        W37387   6.612  12.097  12.244 -0.1063  0.1473  0.1455
21919W        W37388   9.842  13.154  14.346 -0.2637 -0.0242  0.2762
21920W        W37389  10.908  16.752  15.364 -0.1220  0.0982  0.1994
21921W        W37390  11.883  15.032  15.266 -0.1180 -0.2348 -0.1698
21922W        W37391   1.696   5.646  15.550  0.3909 -0.0318  0.3551
21923W        W37392  18.261   1.261  11.583 -0.0581  0.0578 -0.0676
21924W        W37393  17.849  14.084  11.986  0.2020  0.1273 -0.0813
21925W        W37394   8.502   1.605  14.674  0.1922  0.3996  0.1084
21926W        W37395  17.836  16.427  13.191  0.1016  0.1315  0.0566
21927W        W37396  18.222   4.837   0.407  0.1707  0.0313 -0.1524
21928W        W37397  13.978  12.858   1.310  0.2241 -0.1202 -0.0213
21929W        W37398   4.177   1.056   4.250  0.0300  0.1591 -0.2421
21930W        W37399   7.490   7.245  12.789 -0.1300  0.1503 -0.0844
21931W        W37400   7.483   0.387  13.483 -0.0279  0.1833 -0.0016
21932W        W37401   6.853   2.372  11.653 -0.1662  0.5950 -0.0939
21933W        W37402  15.636  11.322   4.913  0.0494 -0.0884  0.0551
21934W        W37403   0.069  11.922   3.925  0.0034  0.2868 -0.1783
21935W        W37404   4.714   3.379  11.966 -0.2886 -0.2715  0.2462
21936W        W37405   1.213  12.810   1.038  0.2766  0.0197 -0.1257
21937W        W37406  11.137   4.993  11.697  0.3175  0.1165  0.0202
21938W        W37407   2.194  12.775   5.270 -0.2264 -0.1763 -0.3245
21939W        W37408   7.403   6.079   4.880 -0.2567  0.0586 -0.1294
21940W        W37409   4.943   3.490   4.468 -0.0973  0.1896  0.0454
21941W        W37410   5.380  18.368   1.465 -0.0060  0.0110  0.0068
21942W        W37411   1.643  16.976   4.226  0.1146  0.4707 -0.2644
21943W        W37412  11.896  15.890  15.095 -0.0499  0.0234  0.4679
21944W        W37413  14.343   6.995   5.051  0.1406 -0.0013  0.0382
21945W        W37414  10.018   7.556  15.098  0.1287 -0.1686  0.1660
21946W        W37415  14.021  12.221   4.706 -0.0253 -0.0275 -0.0150
21947W        W37416   7.981  18.299  13.615 -0.2511 -0.2635 -0.2733
21948W        W37417   9.199   1.836   1.722  0.0538 -0.4721 -0.0744
21949W        W37418   0.994   1.378  11.902  0.2570 -0.3020  0.1092
21950W        W37419  14.884   5.540   1.792  0.1752 -0.1087  0.2763
21951W        W37420  14.889  15.915   4.396  0.1037 -0.1967  0.1228
21952W        W37421  10.554   7.058  11.741  0.4355 -0.0821  0.0286
21953W        W37422   1.934   7.631   0.841 -0.0859 -0.3801  0.0048
21954W        W37423   1.290   4.602   2.892  0.3984 -0.0878 -0.0603
21955W        W37424  18.224   1.135  15.711 -0.0489  0.1614 -0.0964
21956W        W37425   8.018   6.370  15.701 -0.4104  0.1292 -0.1087
21957W        W37426   8.855  12.602  13.178  0.0492  0.0215  0.1164
21958W        W37427   7.300   4.460  11.452  0.0504 -0.2322  0.1552
21959W        W37428   6.095  14.053  11.249 -0.1523  0.0996 -0.2973
21960W        W37429  13.936   1.665  11.955 -0.0950 -0.0371 -0.3028
21961W        W37430   2.289  16.491  15.756  0.1421  0.0130 -0.0699
21962W        W37431  17.786   5.227   4.293 -0.0098 -0.0528 -0.1982
21963W        W37432   4.876   9.889   0.090 -0.0382  0.4354 -0.2079
21964W        W37433   7.825   5.318  14.150 -0.0512 -0.2124  0.0210
21965W        W37434   2.005   2.549   3.425  0.3493  0.1879  0.1468
21966W        W37435  15.497   3.958  12.788 -0.0075  0.3588  0.0330
21967W        W37436  15.734  11.734   5.649 -0.3707 -0.1370 -0.1137
21968W        W37437   1.016   3.457  15.054  0.0538  0.1743 -0.2392
21969W        W37438   2.720  14.242  12.165  0.1142  0.0249  0.0726
21970W        W37439   2.601  13.964   3.843 -0.2999 -0.1854 -0.0634
21971W        W37440  16.621  15.913  11.266 -0.0010  0.2326  0.1470
21972W        W37441   1.258   1.837  15.034 -0.3725 -0.4172 -0.0370
21973W        W37442   6.289  17.212  13.152 -0.1361  0.0477 -0.0105
21974W        W37443   8.026  13.949  15.046  0.1434  0.1866 -0.1296
21975W        W37444   9.386  13.915  10.820  0.1638  0.4682  0.0238
21976W        W37445  10.379   4.130   2.360  0.2532  0.2865  0.1193
21977W        W37446  13.722   3.127  11.953 -0.0113  0.0649  0.0667
21978W        W37447  11.582   5.562  12.694  0.2649 -0.1827  0.2726
21979W        W37448  15.246   9.073  13.592 -0.2506  0.1482 -0.2858
21980W        W37449   9.121  16.748   4.483  0.2800  0.1641  0.3039
21981W        W37450   7.615  11.388   0.263  0.0059 -0.1421 -0.0578
21982W        W37451  11.923  16.309   1.884  0.3232 -0.2463  0.0313
21983W        W37452  17.267  11.296   3.866  0.2045  0.1698 -0.1266
21984W        W37453   5.909   6.138  12.240  0.3213  0.0076  0.1701
21985W        W37454  11.467   4.124  11.740  0.2694 -0.0497  0.1616
21986W        W37455  16.785  12.327   4.931  0.1254  0.1375 -0.2144
21987W        W37456   9.544   9.078  12.466  0.2390 -0.0496 -0.3262
21988W        W37457  17.168  18.008   3.658  0.0781  0.1683 -0.2440
21989W        W37458  12.299   1.407  13.059 -0.0739 -0.5229  0.1922
21990W        W37459   4.193   2.988  11.039  0.0418 -0.0590 -0.1464
21991W        W37460  16.353  10.011  14.311 -0.3898 -0.0059  0.2747
21992W        W37461   9.215   6.581   1.622 -0.0647  0.1562  0.0554
21993W        W37462  16.219  13.784   1.008  0.2410  0.2335 -0.0951
21994W        W37463   4.953  10.119   1.488 -0.0739  0.1904 -0.0460
21995W        W37464   0.491   1.286   1.203 -0.4309  0.1704 -0.1280
21996W        W37465   8.771   0.292   2.144 -0.1646 -0.2127  0.0776
21997W        W37466   8.856  16.509   0.096  0.2310 -0.0787 -0.1283
21998W        W37467  10.809  12.333   3.492 -0.0359 -0.0874  0.0420
21999W        W37468   0.686   8.143   4.881 -0.4558 -0.0129 -0.1220
22000W        W37469   1.575   6.913   0.898 -0.1667 -0.0002 -0.5050
22001W        W37470  12.651  14.868  12.651  0.0128  0.1280 -0.0927
22002W        W37471   7.605  10.343   3.014 -0.0194 -0.1750 -0.3527
22003W        W37472   1.501   9.337   2.058 -0.0151 -0.0648  0.2019
22004W        W37473   0.306  11.359  12.416 -0.0337  0.1229  0.0860
22005W        W37474   8.666  12.959  13.623 -0.1265 -0.2088 -0.4533
22006W        W37475  11.041   4.202   1.262 -0.0669  0.1627  0.3908
22007W        W37476   8.351  11.423   1.346  0.0114  0.2497  0.1861
22008W        W37477   5.314   2.029   0.604 -0.0720 -0.0550 -0.1031
22009W        W37478   8.280   3.349  15.018 -0.3004  0.0361  0.0405
22010W        W37479  16.680   8.044   0.413 -0.3431 -0.4058 -0.3606
22011W        W37480  10.786   5.034   4.575  0.3402  0.1394 -0.1179
22012W        W37481   8.824   0.771  12.698 -0.2993  0.1069  0.0149
22013W        W37482  14.016   0.033   1.978 -0.1170 -0.3089 -0.2723
22014W        W37483   1.900   4.658  14.266 -0.1060  0.1714 -0.1640
22015W        W37484   5.935   5.984   4.487  0.4328  0.0162 -0.2513
22016W        W37485   5.590  16.070   1.731  0.1918  0.1616 -0.2278
22017W        W37486   9.643  17.351  15.585 -0.0112 -0.3621 -0.4421
22018W        W37487  18.342   9.156   1.729  0.2111  0.1929 -0.0551
22019W        W37488   1.055   6.184   1.182  0.0169  0.2549  0.1352
22020W        W37489  13.468   1.095  14.780 -0.1715  0.0344 -0.1974
22021W        W37490   1.587  13.852   3.612  0.0208  0.1137  0.1232
22022W        W37491  17.449   4.202   3.136 -0.1883 -0.2469  0.0148
22023W        W37492  17.081   8.468  12.289 -0.1292  0.1743 -0.1243
22024W        W37493  10.548   5.874  15.674 -0.0022  0.0468 -0.3009
22025W        W37494  11.005  12.396  10.919 -0.2163  0.0879 -0.2534
22026W        W37495  18.124   3.840   4.702 -0.3181  0.0928 -0.2527
22027W        W37496   4.612  14.968  14.784  0.0057 -0.1676  0.1999
22028W        W37497  16.309   3.664   4.773 -0.1255 -0.0627 -0.1553
22029W        W37498   1.758   5.262  15.248  0.1566  0.0315 -0.3237
22030W        W37499  17.639  15.927  14.847  0.1771  0.0474 -0.1047
22031W        W37500   9.502   2.552  13.734  0.0963 -0.1878  0.0733
22032W        W37501   4.048   1.439   0.094 -0.0362  0.3949 -0.1369
22033W        W37502  13.201  14.207   2.829  0.1589  0.2304  0.1543
22034W        W37503  16.801   7.268   5.397  0.2934 -0.0283  0.2394
22035W        W37504   9.038  12.441  14.212  0.1439  0.0313 -0.0166
22036W        W37505   9.460   9.659  15.254  0.2540 -0.4015  0.1085
22037W        W37506   8.862   0.761  11.257  0.1456 -0.2404 -0.0174
22038W        W37507  11.008   9.444   1.463 -0.0549  0.2078 -0.3054
22039W        W37508   5.951  13.328   1.726 -0.0737  0.0233 -0.1352
22040W        W37509   8.101   9.074  12.965 -0.0832  0.1911  0.1867
22041W        W37510  17.100   4.279  14.974 -0.1394 -0.0572  0.2832
22042W        W37511   7.012  16.395  11.117  0.1864 -0.1374 -0.0350
22043W        W37512  14.099   2.344   4.673  0.1032 -0.0453 -0.1892
22044W        W37513   6.848   8.849  13.441 -0.0415  0.0984 -0.2242
22045W        W37514  11.650   7.998  15.858  0.1136 -0.2044  0.3499
22046W        W37515  10.473   9.514   2.891 -0.3438  0.1122 -0.0096
22047W        W37516   9.264   7.446   0.372  0.3184 -0.3569  0.0863
22048W        W37517   5.544  12.120   0.445  0.1715 -0.4859 -0.2050
22049W        W37518  10.988   3.789  14.670 -0.2063  0.1277  0.0499
22050W        W37519   4.237   3.602   5.129 -0.1062  0.0720  0.2005
22051W        W37520   7.264  10.882  13.739  0.2883 -0.0889  0.2382
22052W        W37521  14.262   9.102   0.605 -0.1753  0.1180 -0.0103
22053W        W37522  16.564   1.471   2.308 -0.4765  0.5633  0.3567
22054W        W37523  11.973  12.607  14.109  0.1315 -0.1480 -0.0244
22055W        W37524   6.444  14.205   1.392 -0.2195  0.3122  0.0757
22056W        W37525   5.198  10.194  15.806  0.0858 -0.1311  0.1333
22057W        W37526   5.639   2.322   4.311 -0.1608  0.0339 -0.0385
22058W        W37527   5.967   9.764  15.299 -0.3338 -0.1307  0.0552
22059W        W37528   8.575  17.662  15.142 -0.1521 -0.0878 -0.1779
22060W        W37529   6.387   9.293   3.663  0.2696  0.0622  0.3745
22061W        W37530   7.622   8.428   0.428 -0.1169 -0.1645 -0.2476
22062W        W37531   8.653   4.646   2.528 -0.4245  0.3903  0.0325
22063W        W37532   4.781   0.527   0.411 -0.3031 -0.2125  0.1506
22064W        W37533   5.514  13.651  10.788 -0.1357 -0.0956  0.1397
22065W        W37534  13.819  13.430  13.342  0.1636  0.1226 -0.3950
22066W        W37535  13.654   8.949   1.935 -0.0458  0.1448 -0.1934
22067W        W37536  17.774  17.040   4.108 -0.2838  0.1454 -0.1998
22068W        W37537   1.396  14.807  14.762  0.1180 -0.1287 -0.3079
22069W        W37538   6.414  10.989  13.841  0.0879 -0.2822  0.0036
22070W        W37539   6.522   5.594  13.713  0.0154 -0.1314  0.0509
22071W        W37540   3.734  15.512   4.990 -0.1843 -0.1395  0.1903
22072W        W37541   1.060  14.164   4.097 -0.2203  0.1463  0.1923
22073W        W37542   3.601   9.736   4.210 -0.0198 -0.1099  0.3070
22074W        W37543   3.303  17.583   0.940  0.3610 -0.1551  0.0838
22075W        W37544   5.022   3.254   2.984  0.0263 -0.2115 -0.1773
22076W        W37545  10.490  11.718   4.128  0.0439 -0.3297 -0.0306
22077W        W37546  11.255   1.574  12.239 -0.1866  0.0516  0.0525
22078W        W37547   2.750  13.335  13.266  0.0745 -0.1880 -0.2816
22079W        W37548  13.385  11.606  11.196  0.2113  0.1110  0.2753
22080W        W37549   4.056  18.112   1.196  0.1542  0.0940 -0.2815
22081W        W37550  14.080   0.731  14.475 -0.1009 -0.2656 -0.0186
22082W        W37551   5.629   0.629   5.077 -0.3283  0.3004 -0.1603
22083W        W37552   3.969  17.473  12.667  0.1763 -0.2370  0.1532
22084W        W37553   0.498   5.002   0.856  0.1017  0.0519 -0.1358
22085W        W37554  13.754   0.925  11.921  0.0598  0.0577 -0.0581
22086W        W37555   9.855   4.073  11.174 -0.0485 -0.0624  0.2521
22087W        W37556  11.377   0.143  15.363 -0.3055  0.1252  0.0461
22088W        W37557  17.285   4.945  13.566  0.0538 -0.0098 -0.2123
22089W        W37558  17.689   9.988   3.791  0.1204  0.0053  0.1944
22090W        W37559  11.057   6.295  15.621  0.1146  0.1551  0.1604
22091W        W37560  11.051  18.385  16.007 -0.0620  0.0157  0.0930
22092W        W37561   0.174   3.173   0.901 -0.0735  0.0870  0.1186
22093W        W37562  16.945   4.556  14.542  0.1367 -0.2152  0.1493
22094W        W37563  16.269  18.192  13.853  0.0603 -0.1031 -0.2593
22095W        W37564  18.323   7.202   4.054  0.3489  0.0471  0.1225
22096W        W37565  13.040  13.167  15.357  0.0853 -0.2825  0.0213
22097W        W37566  12.358   8.186  15.644  0.0539 -0.3502 -0.1025
22098W        W37567  11.032   1.644  11.258  0.1821 -0.1069 -0.3476
22099W        W37568   9.655  15.921  11.574 -0.2919  0.3493  0.3650
22100W        W37569   0.739  11.119  12.483 -0.0544 -0.2489  0.1213
22101W        W37570   1.190  15.644  15.424  0.1375 -0.1244 -0.3018
22102W        W37571   6.343   3.777   1.478  0.3248 -0.0031 -0.0773
22103W        W37572   4.498  14.243   0.380  0.2335 -0.1387 -0.0122
22104W        W37573   4.587  17.572   1.846 -0.0281 -0.0339 -0.1056
22105W        W37574   0.891  11.371   2.953 -0.2204  0.1196 -0.1481
22106W        W37575   8.557   9.017   0.032  0.0249  0.0541 -0.2384
22107W        W37576   9.726   7.483   3.680  0.1475  0.1586 -0.1060
22108W        W37577   0.317  17.082  11.657 -0.1379 -0.0733  0.0735
22109W        W37578  14.216  11.464  11.390  0.2573 -0.0996  0.0084
22110W        W37579   8.201  17.126   0.141  0.0771 -0.3990 -0.3938
22111W        W37580  18.362   4.000   1.493  0.0598  0.5630  0.1193
22112W        W37581   6.818  12.682   2.314 -0.2030  0.0589  0.0999
22113W        W37582   2.742  16.010   2.357  0.2330 -0.0329 -0.3196
22114W        W37583   7.834  16.726  11.039 -0.1621 -0.0343 -0.0120
22115W        W37584   6.722   6.489   4.718 -0.1759 -0.0894  0.4581
22116W        W37585   3.394   2.671  15.582 -0.0453  0.0200  0.2114
22117W        W37586  17.003   8.578  14.128  0.0845  0.0557 -0.0302
22118W        W37587   3.838  13.943   3.164  0.2962 -0.0094 -0.0943
22119W        W37588   1.558   1.101   3.038 -0.0557 -0.0891 -0.1142
22120W        W37589  15.271   3.300   1.570 -0.2334 -0.1502 -0.4112
22121W        W37590   5.389  10.721   5.228  0.0002  0.1382  0.0650
22122W        W37591   7.185   7.432   1.390 -0.2168  0.1510  0.2534
22123W        W37592   3.403  10.690   4.933 -0.0637  0.2010 -0.2265
22124W        W37593   8.920   8.805  15.345  0.2560 -0.0084 -0.0030
22125W        W37594   3.503   8.490  14.217 -0.1966 -0.1630  0.0058
22126W        W37595  17.538  11.952  15.252  0.2439  0.0648 -0.0529
22127W        W37596   0.801   7.086   0.992  0.1361 -0.2359  0.0665
22128W        W37597   3.000   3.886  15.829 -0.1092  0.2399 -0.1240
22129W        W37598   8.537  17.915   0.491 -0.4303 -0.0685 -0.2163
22130W        W37599  17.307  10.180  12.392  0.3283 -0.2950 -0.1682
22131W        W37600  16.609   7.493  13.547  0.1713 -0.2412 -0.0454
22132W        W37601  14.523   0.569  12.739  0.2542  0.2893 -0.0298
22133W        W37602   3.829   7.958   5.255 -0.0783 -0.1053  0.0535
22134W        W37603  15.356  12.638   3.057  0.0101  0.2221  0.1324
22135W        W37604  16.626   8.788   3.783 -0.0681 -0.2339 -0.0097
22136W        W37605  14.312   3.940  15.274 -0.4739  0.0172 -0.1924
22137W        W37606   4.668  10.859   0.899  0.1618  0.0902 -0.1602
22138W        W37607   2.059  13.162   1.169  0.0618  0.0577  0.0045
22139W        W37608   1.199  10.506   4.394 -0.1457  0.0090  0.1838
22140W        W37609   9.386  14.527  15.870 -0.2970 -0.1461 -0.2404
22141W        W37610   2.856   4.696   1.726 -0.2343 -0.1817 -0.0061
22142W        W37611   2.214   3.391   6.191  0.3192 -0.1563 -0.1523
22143W        W37612  18.193  13.115   4.810 -0.4652 -0.2385  0.2856
22144W        W37613  17.753  14.926   5.972 -0.2378  0.0124  0.0054
22145W        W37614   1.923  14.931   0.247  0.0480 -0.0319  0.2934
22146W        W37615   4.583   8.874  14.086 -0.2716 -0.1955 -0.2163
22147W        W37616   9.014  16.303  15.653 -0.1029  0.3770  0.3592
22148W        W37617   1.790  16.323  13.919 -0.0322 -0.1780 -0.1614
22149W        W37618   1.492  15.408  14.583 -0.0241 -0.0322  0.1136
22150W        W37619   2.688   8.284   5.602 -0.1832 -0.0307  0.0406
22151W        W37620  10.323  12.336   1.653  0.1494  0.0387 -0.0381
22152W        W37621   2.474   7.637   1.664 -0.1375 -0.1723  0.0727
22153W        W37622   3.884   6.718  14.785  0.0065  0.0266 -0.1309
22154W        W37623   4.332  17.364  13.060  0.3263  0.0721 -0.0794
22155W        W37624   6.915   9.641  13.896 -0.1439 -0.5244 -0.3568
22156W        W37625   6.259  13.714   3.326 -0.0717  0.0451  0.3125
22157W        W37626   7.499   6.500  12.656 -0.2300  0.3235 -0.0587
22158W        W37627  12.889   5.721  12.204  0.0374 -0.2419 -0.1109
22159W        W37628  16.459   9.423  13.177  0.1286 -0.1491  0.1048
22160W        W37629   1.483   3.367   0.706  0.2476  0.1882  0.0091
22161W        W37630   2.642   1.277   0.587 -0.0458 -0.0265  0.1792
22162W        W37631   4.186  17.584  10.673  0.0410  0.0550  0.0055
22163W        W37632  14.238  14.960   3.532  0.2152  0.3022 -0.3521
22164W        W37633  13.120   6.063  13.382  0.1512 -0.3205 -0.0946
22165W        W37634   6.902  17.332   9.681 -0.2352 -0.1307 -0.2503
22166W        W37635  14.508   6.323   2.339 -0.1787  0.0470  0.0331
22167W        W37636  11.936   9.588  11.630 -0.3685  0.0130  0.1663
22168W        W37637  12.405   9.208  14.171  0.2456  0.1527  0.2340
22169W        W37638  18.305   6.373   1.881 -0.3287 -0.1046 -0.4343
22170W        W37639  13.542   8.503   0.451 -0.3508 -0.0443  0.3802
22171W        W37640  10.078   0.378   3.800 -0.3044 -0.1795 -0.3721
22172W        W37641   2.318  16.612   4.592 -0.1463  0.0466  0.0834
22173W        W37642   4.018  13.147  12.708 -0.1187 -0.1375 -0.1986
22174W        W37643   7.606  18.242  10.721  0.0843 -0.1365  0.0695
22175W        W37644  10.592   0.769  15.683 -0.1100  0.0754 -0.1201
22176W        W37645  14.923  15.157  14.430 -0.1906 -0.1408  0.0095
22177W        W37646  16.162  14.582   2.138  0.0704  0.0573 -0.0703
22178W        W37647   0.029  12.252   3.562  0.2613  0.1554 -0.1993
22179W        W37648  15.024  15.978   3.380  0.0620 -0.0892  0.0788
22180W        W37649  11.999   0.262  14.113 -0.0820  0.2988 -0.0025
22181W        W37650   5.407   1.905  12.614  0.4046  0.4433 -0.0269
22182W        W37651  11.108  11.757  13.157  0.0345  0.1479  0.0073
22183W        W37652   6.229   0.925   0.553 -0.1068  0.1663  0.3236
22184W        W37653  16.837   8.482   2.990  0.1219 -0.0359 -0.0586
22185W        W37654   6.296  13.927   4.291  0.1444 -0.1853  0.1044
22186W        W37655   1.247  17.232   3.842 -0.1904  0.0987 -0.2402
22187W        W37656  16.841  10.516   5.490 -0.0113 -0.1857  0.0147
22188W        W37657  16.014   6.528  15.439 -0.1233  0.3944 -0.2959
22189W        W37658   6.644  16.148  10.903  0.3929 -0.0704 -0.2675
22190W        W37659   7.916  17.503   0.936 -0.1272 -0.0716 -0.0076
22191W        W37660   1.127   0.518   1.779 -0.1082 -0.3655  0.2297
22192W        W37661   9.808   9.970   3.696  0.0734 -0.3588  0.2092
22193W        W37662  17.309   6.393  15.979  0.1159 -0.1450 -0.1088
22194W        W37663   2.282   5.083  14.017 -0.1591  0.4294 -0.1258
22195W        W37664  13.528   9.363  15.098 -0.0244  0.1949 -0.2296
22196W        W37665   7.769   3.386  15.089 -0.0980 -0.1361  0.0640
22197W        W37666   0.327   9.340  13.979 -0.1736 -0.0310 -0.0144
22198W        W37667   5.349   7.463  13.516 -0.1716 -0.0372  0.0872
22199W        W37668   8.642  17.701   2.876  0.2674  0.3303 -0.3812
22200W        W37669  17.419  12.114   3.495  0.1268 -0.0149 -0.2477
22201W        W37670   9.981  16.743  10.892 -0.0799 -0.2442 -0.4684
22202W        W37671   9.168   8.004  14.345  0.1487  0.2407 -0.1342
22203W        W37672   4.561   3.854   6.156 -0.2286  0.2342  0.0879
22204W        W37673  17.967   2.284   6.466 -0.0207  0.0600  0.1372
22205W        W37674   3.402   0.233  15.311 -0.0961  0.1399 -0.3650
22206W        W37675   1.722   3.887   5.582  0.0981  0.0709 -0.0298
22207W        W37676  10.603  13.654  14.184 -0.1518  0.0147  0.3461
22208W        W37677  15.753  13.584  11.783  0.1428  0.1008  0.4009
22209W        W37678   5.085   3.399  14.719  0.1204  0.2285 -0.0228
22210W        W37679   4.016  14.026   4.094  0.0706  0.5136 -0.0530
22211W        W37680  10.247   7.760   1.164 -0.1826 -0.2457  0.0122
22212W        W37681   3.007   3.935  12.994  0.0061  0.1685 -0.0254
22213W        W37682  12.299   6.985  11.792  0.2118 -0.0433 -0.0190
22214W        W37683   6.805  14.467   3.496  0.0221  0.2214  0.0026
22215W        W37684   7.354  11.939   0.468 -0.0661  0.0976 -0.2989
22216W        W37685   7.846  10.848  11.485 -0.0777 -0.1293 -0.0190
22217W        W37686   3.485   9.114   4.630  0.1387  0.1301 -0.1912
22218W        W37687   9.497  11.368  11.731 -0.0399 -0.1230  0.1574
22219W        W37688  13.815   5.575  13.024  0.1018 -0.0134  0.0587
22220W        W37689  11.359  15.325   1.359  0.1915 -0.2296 -0.0249
22221W        W37690  15.098  12.655   2.593  0.1363 -0.1102 -0.4194
22222W        W37691  15.476   2.871   5.461 -0.2083 -0.1530 -0.1127
22223W        W37692   3.026  14.908  12.747  0.2211 -0.1060  0.0598
22224W        W37693  13.743  11.036  13.442  0.1989 -0.1762 -0.0526
22225W        W37694   8.192  10.591  11.026 -0.4177 -0.2853  0.1895
22226W        W37695  13.203  17.332   0.671  0.0333 -0.0973 -0.2086
22227W        W37696  17.639  13.742   4.322  0.1023 -0.0992 -0.3833
22228W        W37697  12.702   3.411  10.922  0.2067  0.1583  0.1361
22229W        W37698   1.924   0.497  12.768  0.1730 -0.0474  0.1592
22230W        W37699   6.943  10.600   2.774  0.2477  0.1302 -0.1121
22231W        W37700  10.180  13.817   0.774  0.2892  0.1056 -0.0114
22232W        W37701  16.804   8.888   2.154 -0.0919  0.0872 -0.1500
22233W        W37702   0.459  11.180   1.636  0.2243  0.0333  0.0438
22234W        W37703   3.001   2.573  12.349  0.2125  0.0269 -0.1158
22235W        W37704  11.676   7.238  13.137  0.1026  0.1581 -0.0943
22236W        W37705  16.089   0.243  12.399  0.1405 -0.0174 -0.0106
22237W        W37706  14.372   7.737   1.869  0.0785 -0.0306  0.0710
22238W        W37707   0.551  13.598  11.619  0.0383 -0.1780 -0.0119
22239W        W37708  14.698  14.811   4.695 -0.1158  0.0454 -0.0916
22240W        W37709  11.885  11.082  11.969  0.1549 -0.3686  0.0529
22241W        W37710   2.706  18.147  12.639  0.0164  0.0816  0.2321
22242W        W37711  11.342   1.154  15.161  0.0409 -0.2377  0.4199
22243W        W37712   6.297  14.085   0.438  0.0922  0.1755  0.3300
22244W        W37713  15.871   0.541   4.995 -0.2876  0.0546  0.0214
22245W        W37714   8.312  10.617   2.287  0.0481  0.1267 -0.2255
22246W        W37715  15.474   5.289  12.624  0.0435  0.0113  0.1517
22247W        W37716  13.194  14.723  16.019 -0.0026 -0.0353 -0.1426
22248W        W37717   0.552  11.960   4.103  0.0296  0.0595  0.3433
22249W        W37718  18.187  16.515   1.199 -0.3890  0.1585 -0.0751
22250W        W37719   3.056   1.179   1.214 -0.0669 -0.2597  0.0283
22251W        W37720   5.779   9.733   5.315 -0.1087 -0.1170  0.0067
22252W        W37721   0.315   3.950   1.198 -0.1915 -0.0625 -0.1744
22253W        W37722  15.630  11.318   1.723 -0.0599  0.1455 -0.0721
22254W        W37723  11.003  12.598   0.202 -0.4164  0.0316  0.1304
22255W        W37724  15.055  13.908   4.401 -0.3330  0.0860 -0.0629
22256W        W37725  12.898   8.538  11.858  0.0202  0.1453  0.1227
22257W        W37726   6.180   5.693  12.198  0.0241  0.3325  0.0336
22258W        W37727   4.273  10.769   6.782  0.0250  0.0030  0.3503
22259W        W37728   5.711  16.240  11.743 -0.2473 -0.2140  0.3820
22260W        W37729  12.978  17.061   5.869  0.0442  0.1533 -0.0343
22261W        W37730  16.600  18.052  14.152  0.2891  0.0094  0.1539
22262W        W37731   5.553  10.959  13.671 -0.0122 -0.4468 -0.0336
22263W        W37732   3.021   3.416  14.906 -0.4612  0.1651  0.1635
22264W        W37733   0.273  15.130   3.350 -0.0906 -0.0430  0.1063
22265W        W37734  14.391  13.617  13.322  0.2637 -0.0774  0.2456
22266W        W37735   6.012   7.276   1.730 -0.0864  0.1961 -0.2593
22267W        W37736  12.402  16.046   3.828 -0.0186 -0.0366 -0.0218
22268W        W37737   9.319   3.990   1.263  0.1341 -0.1149  0.1501
22269W        W37738  13.712   9.146  11.892 -0.0925  0.0166 -0.0660
22270W        W37739  10.052   8.636   3.249 -0.2293 -0.3397 -0.1909
22271W        W37740   7.422  17.577   2.251 -0.0226 -0.0084  0.0309
22272W        W37741   8.212  17.278   5.183 -0.1672 -0.0117 -0.1934
22273W        W37742   5.462   6.326   2.262 -0.0519  0.1943  0.0063
22274W        W37743   6.470   2.334  11.192 -0.3411  0.0211  0.0325
22275W        W37744   5.655  13.921   3.025  0.5726  0.1950 -0.0969
22276W        W37745   8.416  16.793  15.384 -0.1779  0.1123  0.3079
22277W        W37746   6.523  16.620  14.308  0.2580 -0.3119 -0.1345
22278W        W37747   0.126   6.756   4.752  0.1996 -0.0980 -0.0771
22279W        W37748  13.139  11.863  10.381  0.1073  0.2500 -0.0061
22280W        W37749   8.596  12.900  11.683 -0.1397 -0.1658 -0.1376
22281W        W37750   2.497   3.692   3.757  0.0328 -0.3860 -0.0778
22282W        W37751   2.842   6.998  13.029  0.2437  0.0771  0.1210
22283W        W37752   9.314  17.324  14.549  0.2840  0.3929  0.1565
22284W        W37753  11.435  16.335  13.322  0.0365  0.0486 -0.0786
22285W        W37754   4.751   8.296   4.924 -0.1565  0.1126 -0.0389
22286W        W37755   0.023  10.603   2.569 -0.0368 -0.0775 -0.0430
22287W        W37756  11.965  13.966   4.776 -0.5893 -0.0979  0.0285
22288W        W37757   8.417  15.634  14.629 -0.0104  0.1310 -0.2178
22289W        W37758   9.379  13.106   1.779 -0.3376 -0.3547  0.0254
22290W        W37759  17.144   7.136   4.493 -0.1764 -0.1186  0.1975
22291W        W37760   7.236   7.425   2.043  0.3232 -0.3371 -0.2456
22292W        W37761   2.806  17.019   1.663 -0.1994  0.1352  0.3326
22293W        W37762  17.049  16.244  12.600  0.1336  0.0047  0.2906
22294W        W37763   2.467   3.135  12.695 -0.0990  0.1362  0.1528
22295W        W37764  18.172   7.389  12.245 -0.0265 -0.1046  0.1155
22296W        W37765  14.490  12.935   1.277 -0.0478 -0.1714  0.2631
22297W        W37766   1.813  12.397   3.298  0.2877 -0.2034 -0.1614
22298W        W37767   1.961  14.787  12.525 -0.0662  0.1122  0.0868
22299W        W37768   3.857  11.609  15.821  0.1370 -0.1858 -0.0231
22300W        W37769  10.332  13.866   4.419 -0.1241  0.1394 -0.0783
22301W        W37770  13.176   6.213  14.201 -0.0294  0.0959 -0.0947
22302W        W37771   3.743  15.037   1.249  0.0959  0.1253 -0.1938
22303W        W37772  17.857   9.358  14.304 -0.2722  0.1144  0.0260
22304W        W37773   9.741  17.858   2.906 -0.0916  0.1725 -0.1995
22305W        W37774  13.177   1.594   1.614  0.2972  0.1418 -0.2443
22306W        W37775  11.594  14.789   1.402 -0.1651  0.1697 -0.2070
22307W        W37776  13.395   3.026  14.250 -0.0928  0.0352 -0.2843
22308W        W37777   2.522   7.528  10.764 -0.1361  0.1247 -0.1386
22309W        W37778   9.229  17.872   2.938 -0.3771  0.0453  0.0446
22310W        W37779   3.933  11.915  10.983 -0.0111 -0.1732 -0.2200
22311W        W37780  10.034  17.748   2.485  0.0309  0.1477 -0.1506
22312W        W37781   0.352  17.980   4.982  0.0236 -0.0202 -0.0506
22313W        W37782   6.861  11.056   2.235 -0.3089  0.2378  0.0564
22314W        W37783  12.551  11.648   3.796 -0.0486 -0.2774  0.1903
22315W        W37784  14.188   0.064   4.840  0.3133 -0.1822 -0.4612
22316W        W37785  10.248  17.194  11.165  0.0127  0.1747 -0.1724
22317W        W37786   1.377   1.398   3.775  0.0566 -0.1848 -0.1588
22318W        W37787  12.264   0.242   1.280 -0.0746 -0.5340  0.1304
22319W        W37788   9.068   2.871   1.600 -0.0734 -0.0135  0.1610
22320W        W37789   1.258  12.246   5.178  0.2537 -0.0450  0.3094
22321W        W37790   5.161   2.951   2.618  0.0712  0.1122  0.1995
22322W        W37791  14.146  15.839  11.923 -0.5550  0.0940 -0.2547
22323W        W37792   8.214  18.410  15.793  0.0002 -0.2522 -0.2145
22324W        W37793  16.267  15.186   2.632  0.2663 -0.1810  0.1467
22325W        W37794  17.243   3.717  15.598  0.1765 -0.0125 -0.0562
22326W        W37795   0.436  18.027  15.309  0.2792  0.1383  0.1197
22327W        W37796   4.032  16.715   5.117  0.0098  0.2399  0.2326
22328W        W37797  14.808   7.418  12.659 -0.0167 -0.0819 -0.4865
22329W        W37798   3.543  15.547  14.636 -0.0719  0.0316  0.0152
22330W        W37799  13.339  16.825   5.251  0.1221 -0.4585  0.1760
22331W        W37800  11.771  16.415   3.217  0.2570 -0.0179 -0.2089
22332W        W37801   4.147  12.721   0.782 -0.1495  0.1182 -0.2496
22333W        W37802  13.587   4.229   5.349 -0.0612  0.0712  0.1274
22334W        W37803  11.170  12.708  11.629 -0.1113 -0.0029  0.1388
22335W        W37804   7.169  10.418  12.285 -0.4220 -0.0873 -0.1103
22336W        W37805   6.880  15.593  11.317  0.1980  0.1469  0.1911
22337W        W37806  12.037   3.736   4.769 -0.1364 -0.2387  0.2497
22338W        W37807   5.743   1.349   3.071  0.1424 -0.2527  0.0104
22339W        W37808   6.614  16.655   4.277  0.2038  0.0592 -0.0199
22340W        W37809  13.547  17.744  12.670  0.0123 -0.2694  0.0399
22341W        W37810  17.252  14.609  15.452 -0.1050 -0.0693 -0.2494
22342W        W37811  11.719  15.327   0.306 -0.0890  0.0825 -0.2716
22343W        W37812  16.530   4.091   2.433  0.1122 -0.1517  0.1303
22344W        W37813  15.425  10.386   1.311  0.2380  0.0508 -0.1326
22345W        W37814  15.460   5.441  10.712 -0.1435 -0.0946 -0.1345
22346W        W37815  17.067   8.993   3.654 -0.2362  0.1766  0.1767
22347W        W37816  13.594  17.938   4.189  0.1078 -0.2478 -0.2523
22348W        W37817   9.168   3.011   2.759 -0.1026 -0.3419  0.0675
22349W        W37818   8.868  15.356   0.598 -0.1725 -0.0758 -0.0064
22350W        W37819  14.780  13.197  11.282 -0.0826  0.0986  0.0298
22351W        W37820  12.722  12.832   4.975 -0.0434  0.1786 -0.2941
22352W        W37821   4.936  14.713  15.825 -0.0090  0.3186 -0.1220
22353W        W37822   2.847   5.598   2.575  0.0234 -0.0997  0.0384
22354W        W37823   2.056   3.060  12.979 -0.3547 -0.0029 -0.0148
22355W        W37824   9.637   6.168   2.197 -0.0780 -0.1099  0.1735
22356W        W37825  14.164   6.757   4.077 -0.4380  0.2296  0.1541
22357W        W37826  14.069  10.493  12.664 -0.1467 -0.0266 -0.0047
22358W        W37827   8.915   6.669   2.945 -0.0695 -0.0413 -0.1295
22359W        W37828  16.022  16.107  10.289  0.0042  0.1668 -0.0837
22360W        W37829  16.220  13.393  10.986 -0.2711  0.1115 -0.1029
22361W        W37830   9.637   1.733   4.035  0.1479  0.2822  0.0371
22362W        W37831  15.905   2.116  11.534 -0.0004 -0.0069 -0.1376
22363W        W37832  13.213  18.448   3.890 -0.1930 -0.0006 -0.1078
22364W        W37833   5.850   4.950   5.150  0.0384  0.4538 -0.2573
22365W        W37834  11.454  18.448  12.472  0.2400  0.3974 -0.1826
22366W        W37835   0.654  16.372   3.640 -0.1421 -0.2440 -0.2248
22367W        W37836   5.665  10.794   2.272  0.1888 -0.2264 -0.2682
22368W        W37837  17.864   8.021  15.254 -0.1441  0.0718  0.1205
22369W        W37838  11.245  14.638  12.757 -0.1366  0.0259  0.1002
22370W        W37839   7.573   8.943  14.035 -0.1124 -0.2046 -0.0641
22371W        W37840  12.267   1.817  15.968 -0.0979  0.0058  0.0864
22372W        W37841  13.587   7.338   5.155  0.1236 -0.2224 -0.0508
22373W        W37842  16.770  14.468   3.258  0.0046  0.0675 -0.2162
22374W        W37843   3.099   5.740  13.897  0.0599  0.0592 -0.1102
22375W        W37844   8.320   4.096  14.433 -0.2042  0.0409 -0.1473
22376W        W37845   0.083   4.838   1.080  0.3132 -0.2084  0.3057
22377W        W37846   0.795  11.597   1.161 -0.0120  0.0195 -0.2489
22378W        W37847  17.040   9.381  11.922 -0.3190 -0.1669 -0.1478
22379W        W37848  15.276  16.242   4.544  0.2377  0.0182  0.0759
22380W        W37849   5.690   8.056   4.249 -0.0057  0.0036 -0.1144
22381W        W37850  15.376  14.754  15.260 -0.0121  0.0371  0.0788
22382W        W37851  15.896   8.583  11.718 -0.0023 -0.0120  0.1923
22383W        W37852  14.062   8.554  11.443  0.1228 -0.2181  0.2726
22384W        W37853  17.503   8.103   0.719  0.2031  0.1402  0.3344
22385W        W37854   9.661  17.340  12.269  0.1476  0.0983  0.1726
22386W        W37855  13.053   4.560  12.906  0.0066 -0.1250 -0.2945
22387W        W37856  17.460   6.612   2.382  0.2692  0.4483 -0.2386
22388W        W37857   2.588   9.388   3.778  0.4752 -0.3186 -0.1555
22389W        W37858  17.501   0.469   5.105 -0.0059  0.3012 -0.2706
22390W        W37859   9.196   5.020   2.984 -0.0088 -0.0661 -0.1151
22391W        W37860   9.823  11.078   0.509 -0.0224 -0.1255  0.1092
22392W        W37861   9.418  13.497   0.675 -0.0292 -0.0514 -0.0224
22393W        W37862   0.370   8.220   0.777 -0.3721  0.1098 -0.0187
22394W        W37863   0.844   5.167  12.483 -0.1474 -0.3686  0.2122
22395W        W37864  14.255   4.832  12.299 -0.2396 -0.4563 -0.0367
22396W        W37865   5.304  18.380  15.627 -0.4522 -0.1059 -0.1322
22397W        W37866  17.583   7.614   4.796  0.1791  0.2677  0.3008
22398W        W37867  14.997   9.105   2.319 -0.2791  0.3248 -0.1373
22399W        W37868  10.055   2.758   2.588  0.3540  0.1617 -0.0055
22400W        W37869  11.694   5.196   0.094 -0.0498  0.1487  0.2256
22401W        W37870   9.673  11.778  15.493 -0.0060 -0.2297 -0.2328
22402W        W37871   0.040  13.960   9.902  0.2413  0.1173 -0.0548
22403W        W37872   9.303   3.695  10.191 -0.2881 -0.2186  0.1296
22404W        W37873  11.579  14.818   0.065  0.0713  0.1503 -0.0035
22405W        W37874   2.274  18.415  11.273 -0.1109  0.1067 -0.2876
22406W        W37875   3.668  14.983   5.060 -0.1729 -0.0814 -0.3065
22407W        W37876   8.185   4.835   4.294 -0.0057  0.0443  0.0438
22408W        W37877  16.905   5.767  15.301 -0.1478 -0.3375  0.0518
22409W        W37878   5.725   2.923  13.330 -0.0355  0.0061 -0.0541
22410W        W37879  11.321  14.153   2.048 -0.1141 -0.3348 -0.0071
22411W        W37880   3.596   2.320  14.646 -0.0427 -0.0201  0.2237
22412W        W37881  13.109  12.162   1.464  0.2401 -0.0944 -0.2710
22413W        W37882   2.812   1.111   5.211 -0.0918  0.1890 -0.3837
22414W        W37883   9.984   6.302  15.156 -0.1573  0.0842 -0.2508
22415W        W37884  13.230  18.003   9.792 -0.0672  0.1589  0.3904
22416W        W37885  11.847   3.686  14.970 -0.0080 -0.2673 -0.0841
22417W        W37886  15.362   7.584   3.969 -0.1261  0.1624 -0.1758
22418W        W37887   1.477   5.768  12.334 -0.1062 -0.1143  0.1531
22419W        W37888  15.647  13.843   1.261 -0.0274 -0.3412  0.0130
22420W        W37889  17.358   4.955   3.278 -0.0868  0.2125 -0.2343
22421W        W37890   8.789   9.699   4.556  0.0750 -0.0419  0.0603
22422W        W37891   5.073  14.792   0.274 -0.0614  0.1458 -0.3413
22423W        W37892  13.228  11.215   3.871 -0.1648  0.2962  0.2640
22424W        W37893  15.518   2.838  15.240  0.1248 -0.3143 -0.1250
22425W        W37894   4.706  17.559  13.266  0.0137 -0.2315 -0.0521
22426W        W37895   3.529   2.352   6.310  0.0527 -0.0549  0.2859
22427W        W37896   9.877   3.588   6.157 -0.0303 -0.2080 -0.0468
22428W        W37897   7.574  16.307  11.035  0.0697 -0.1011  0.0992
22429W        W37898   5.594   0.435  13.575  0.0701  0.0131  0.0560
22430W        W37899   4.244   6.475   5.381 -0.0111 -0.1575 -0.0940
22431W        W37900   6.852  16.047  11.453 -0.0887 -0.0927  0.1341
22432W        W37901  13.197  14.810   2.626 -0.0564 -0.1796 -0.0361
22433W        W37902   5.708   5.929   5.425  0.1588 -0.0371 -0.3428
22434W        W37903  15.560   3.136  14.749  0.2659 -0.3273 -0.0401
22435W        W37904  13.372  11.811   1.730 -0.2488 -0.2069  0.0950
22436W        W37905  10.700  18.449   0.797  0.1046  0.0818 -0.1819
22437W        W37906  16.531   8.374   2.613  0.0992 -0.1657  0.0538
22438W        W37907  17.028  12.988  14.627  0.0772  0.2503  0.1411
22439W        W37908   4.455   4.150  11.765  0.0620  0.1087  0.1016
22440W        W37909   5.625  15.510  12.471  0.3421 -0.1142  0.0700
22441W        W37910   1.935   1.779  13.525 -0.1721 -0.1567 -0.0800
22442W        W37911  13.683   2.246   3.259  0.0959  0.1063  0.3234
22443W        W37912   3.743  15.659  15.559 -0.0265 -0.0616 -0.3714
22444W        W37913   0.285   1.743   5.316 -0.1296  0.0821  0.2744
22445W        W37914   3.301  17.547   4.955  0.2556 -0.0390  0.0636
22446W        W37915   2.818  11.066  11.367 -0.0714 -0.1237  0.0599
22447W        W37916  12.295  11.337   3.437  0.0736 -0.2274  0.0791
22448W        W37917   3.832  12.200  15.262 -0.0946 -0.1307  0.2102
22449W        W37918   5.554  17.370   5.795 -0.2611  0.1636 -0.1022
22450W        W37919  17.567  14.341  11.687 -0.0819 -0.0610 -0.0937
22451W        W37920   4.106  17.023   5.820  0.1405 -0.2048 -0.0939
22452W        W37921  14.131  16.950  10.430  0.1136 -0.2424  0.1031
22453W        W37922  15.326   2.449  13.614 -0.2063  0.3507  0.2845
22454W        W37923   8.227   1.274   3.772  0.0956  0.2402  0.0978
22455W        W37924  17.557  13.360  10.919 -0.2075  0.0347  0.2090
22456W        W37925  12.705   7.605   2.355 -0.1755 -0.0468 -0.1806
22457W        W37926   9.550   9.269   0.659 -0.1295 -0.3914  0.0970
22458W        W37927   5.401   4.012  14.596 -0.0700 -0.0262 -0.0492
22459W        W37928  14.356   2.181  12.552 -0.2302  0.1256  0.0157
22460W        W37929   8.713   6.056   3.539  0.1544  0.0674  0.1638
22461W        W37930   8.518   6.704   2.645  0.0657  0.1076  0.0493
22462W        W37931   6.320   4.385   2.689  0.3245 -0.1061  0.1639
22463W        W37932  10.536   8.595   3.019  0.0557 -0.0553  0.0354
22464W        W37933   8.843   2.425   3.502 -0.0819  0.0261  0.1233
22465W        W37934  17.104  11.136   2.587  0.3434 -0.0391 -0.2176
22466W        W37935   3.414   8.831   2.663 -0.0184 -0.2739 -0.0187
22467W        W37936  12.831   1.206   3.625 -0.0686  0.2868  0.1779
22468W        W37937  14.149  15.907   3.205 -0.0835  0.1950 -0.2806
22469W        W37938   1.456  11.068  13.676  0.2047  0.0862 -0.3186
22470W        W37939  12.641   7.939  14.936  0.0192  0.2406  0.0401
22471W        W37940  14.688  12.526   3.814  0.1679 -0.3473 -0.0680
22472W        W37941   8.610  15.906   1.264 -0.3109 -0.0354  0.2948
22473W        W37942   3.277  13.678  11.706 -0.0598 -0.1305  0.1361
22474W        W37943   9.014  16.028   5.046  0.1105 -0.1015 -0.2470
22475W        W37944   9.775  15.448  11.950  0.1009  0.0861 -0.1086
22476W        W37945  15.552   7.640  15.704 -0.1310  0.0937 -0.1488
22477W        W37946   4.611   5.088   1.215 -0.1400  0.1327 -0.2486
22478W        W37947  15.617  10.943  14.856 -0.0762 -0.6369  0.1506
22479W        W37948   6.639   7.827  11.645  0.3018 -0.2280 -0.0042
22480W        W37949   9.913   5.469  14.568  0.0759 -0.1330 -0.2522
22481W        W37950   7.490   5.047   3.698 -0.0312  0.3740  0.1368
22482W        W37951  10.765   7.329   2.812 -0.0453  0.2067  0.2150
22483W        W37952  14.634   7.278   0.290  0.2759  0.1648  0.1353
22484W        W37953  11.467   1.409   3.781  0.4716 -0.0185 -0.0955
22485W        W37954   1.646  10.206  12.857 -0.2417 -0.0658  0.1821
22486W        W37955   8.975   1.328   0.643  0.0726 -0.5390  0.1182
22487W        W37956  16.852   0.400   0.157 -0.2608  0.0347 -0.0205
22488W        W37957   7.882   8.258  14.692  0.1717  0.2116  0.0293
22489W        W37958  11.544  13.654   0.041 -0.1424  0.0368  0.1550
22490W        W37959   2.545  11.730   5.950 -0.0468 -0.1258 -0.0868
22491W        W37960   8.474   5.338  12.908  0.0380  0.2978 -0.1898
22492W        W37961  17.271  14.665  13.476  0.2079  0.0304 -0.2649
22493W        W37962   6.918   1.562  12.536  0.0343  0.1699 -0.0499
22494W        W37963  15.856   8.293   5.857  0.0189 -0.1035  0.0072
22495W        W37964   0.164   5.022   6.004  0.1228  0.1176 -0.0339
22496W        W37965  14.813   9.755   9.979  0.0834  0.0549  0.2021
22497W        W37966   5.521   6.833   1.887 -0.0378 -0.1068  0.2161
22498W        W37967   2.982   8.913   2.346  0.0389  0.1309  0.1429
22499W        W37968   8.490   5.002   3.561 -0.1686  0.0731 -0.1981
22500W        W37969  16.981   4.978   2.304  0.2343  0.2255  0.1845
22501W        W37970  17.330   4.926   4.230  0.0556  0.0066  0.0897
22502W        W37971  11.461   1.488  13.329 -0.1545  0.0492 -0.0219
22503W        W37972  14.914   1.037  11.572  0.0996  0.0923  0.0651
22504W        W37973   4.667   6.413   6.244 -0.0346 -0.2023  0.0458
22505W        W37974   6.317   2.708  12.744 -0.2201  0.1599 -0.2732
22506W        W37975   8.379  13.507   4.474  0.2787  0.1697  0.2027
22507W        W37976  15.738   6.484  14.000  0.1665  0.1764 -0.0925
22508W        W37977   4.212   5.359  11.394  0.2303 -0.5058 -0.2383
22509W        W37978   0.805   6.159   4.809 -0.2696 -0.0345 -0.3736
22510W        W37979   2.441   5.898   0.800  0.4040  0.0647 -0.0658
22511W        W37980  16.983   0.624  10.370 -0.1268  0.1254  0.1603
22512W        W37981   4.983   2.737  14.068  0.3168 -0.2531 -0.1779
22513W        W37982   1.959  16.369  11.590 -0.0618 -0.1533  0.2594
22514W        W37983   7.480  15.361   4.437 -0.0056 -0.0354  0.0425
22515W        W37984  16.846   1.750  11.380  0.0914 -0.1973  0.0005
22516W        W37985   5.859  14.733   3.574 -0.0247 -0.2135  0.1343
22517W        W37986  16.341  15.048  11.299 -0.0844 -0.0774  0.0884
22518W        W37987   6.134  10.047  11.789  0.3652  0.0439 -0.0695
22519W        W37988   4.917  17.506  13.715 -0.4374 -0.0935  0.0358
22520W        W37989  17.294  16.975  10.824  0.1116  0.0398 -0.1547
22521W        W37990  12.808   8.255  13.645 -0.1718 -0.1052 -0.2703
22522W        W37991   1.052   7.642  13.991  0.1485  0.0323 -0.1216
22523W        W37992  16.953   5.461   0.231 -0.1165  0.1689 -0.1516
22524W        W37993   6.267  15.479  12.017  0.0007  0.2210  0.0348
22525W        W37994  13.024  13.602  13.191 -0.2017 -0.1834 -0.0647
22526W        W37995   5.889   8.195   1.163 -0.0108  0.1861 -0.2435
22527W        W37996   9.407   4.251  14.489  0.1278  0.0029  0.1718
22528W        W37997  10.496  12.222  14.513  0.1619  0.0165  0.0668
22529W        W37998   4.242   4.187   3.844  0.2053  0.0245  0.2707
22530W        W37999   4.247  16.896  15.827  0.2464  0.0768  0.2296
22531W        W38000   4.010  15.199  15.777 -0.2393  0.3790 -0.1983
22532W        W38001   5.746  14.594  11.011 -0.0820  0.0596  0.0355
22533W        W38002   6.479  11.454  14.714  0.0722  0.2198 -0.1156
22534W        W38003  15.094  17.532   4.119 -0.1612  0.2425 -0.3004
22535W        W38004   2.695  11.612  12.162 -0.3130  0.2395  0.1574
22536W        W38005   5.235   2.650   4.159  0.3977 -0.1776 -0.3551
22537W        W38006   0.497   2.763  13.926  0.2516 -0.2167  0.1681
22538W        W38007  13.752  11.789   0.057 -0.0140  0.1397 -0.1572
22539W        W38008   2.512  11.636  15.604  0.0455 -0.1483  0.1147
22540W        W38009   6.898  12.444  10.962  0.1507 -0.0640  0.2055
22541W        W38010   2.691   9.716   5.110 -0.1378  0.1751  0.0434
22542W        W38011  15.246   7.173  10.753  0.0178 -0.1731 -0.0072
22543W        W38012   9.460   4.098   5.026  0.1807 -0.1667 -0.1495
22544W        W38013  13.911   1.019  16.026  0.2603  0.2944  0.1523
22545W        W38014  11.942  13.278  15.375 -0.1952  0.1042  0.1085
22546W        W38015   2.235  10.515  13.319  0.0625 -0.2043 -0.2217
22547W        W38016   6.522   7.358  12.706  0.2340 -0.1821  0.0053
22548W        W38017   1.765   5.087   0.816 -0.0165  0.0768  0.3531
22549W        W38018   8.071   3.623   2.232 -0.1228 -0.1131 -0.2001
22550W        W38019   6.739  17.566  10.708  0.2280  0.3301 -0.2981
22551W        W38020   9.936   3.413  11.903 -0.2635  0.1553  0.0569
22552W        W38021   8.886  14.505   3.125  0.0050 -0.0041 -0.1604
22553W        W38022  11.611   1.812  13.742  0.1997  0.1104  0.0053
22554W        W38023   6.486  12.341   2.630 -0.3054  0.0519  0.1940
22555W        W38024   9.552  12.671  15.202  0.0631 -0.0908  0.2695
22556W        W38025  14.028  11.674  11.947 -0.0874  0.1545 -0.2300
22557W        W38026  11.025   2.492  14.088  0.3944  0.3735  0.0442
22558W        W38027  16.881  14.091  15.836  0.0967  0.0391  0.1534
22559W        W38028   4.214   3.187   5.414 -0.1880 -0.1013 -0.2311
22560W        W38029  13.392  10.910  10.569  0.1872 -0.3078  0.0110
22561W        W38030   3.186  17.130  14.382  0.2197  0.0428  0.0524
22562W        W38031  10.913   4.621  15.258  0.3971 -0.0721 -0.1099
22563W        W38032   3.636  17.264   3.361 -0.0328 -0.1521  0.0972
22564W        W38033  17.178  12.952  10.832 -0.3049 -0.0440 -0.0019
22565W        W38034   7.530  16.367   1.590 -0.0891 -0.3144  0.2631
22566W        W38035  16.498   9.629   4.092 -0.2378 -0.0457 -0.3795
22567W        W38036  13.729   5.921   6.004 -0.1298  0.1741 -0.1277
22568W        W38037  13.694  13.545   0.904 -0.0927  0.3161 -0.0136
22569W        W38038  11.177   2.373   1.099  0.1130  0.4563 -0.0313
22570W        W38039   6.958  12.839   2.776 -0.0956  0.1776  0.1296
22571W        W38040   1.887   2.446   0.685  0.0189  0.0021 -0.0683
22572W        W38041   0.365  10.346   1.349 -0.0760 -0.0416  0.0807
22573W        W38042   9.280  12.185  13.812 -0.1292  0.3292  0.1058
22574W        W38043  14.650   1.159   2.791 -0.1328  0.2069 -0.0286
22575W        W38044   5.430  17.249  12.872 -0.1603  0.2983  0.0611
22576W        W38045  15.979   3.799   2.943 -0.2938 -0.3584  0.0058
22577W        W38046  14.048   1.383  13.732  0.2611 -0.0133 -0.1630
22578W        W38047  16.329   8.637   2.242 -0.1728  0.0517  0.2174
22579W        W38048   7.242   9.822   2.335  0.0666  0.0017 -0.1270
22580W        W38049  12.930   7.437  15.190 -0.0428  0.0771 -0.2008
22581W        W38050  17.002   7.155  14.205  0.0685 -0.1648 -0.0489
22582W        W38051  18.104  11.739   4.676 -0.2704  0.1052 -0.1801
22583W        W38052   8.420   2.018   0.168  0.2091  0.0940  0.2259
22584W        W38053  12.249   6.573   3.434  0.1595 -0.0338  0.6536
22585W        W38054  13.765  12.389  12.918  0.1018  0.0465 -0.2331
22586W        W38055   6.937   3.472   2.382  0.0439 -0.0850 -0.2088
22587W        W38056   6.568  15.701   4.297  0.4935  0.1839  0.6162
22588W        W38057   5.255   1.373  13.641 -0.1574 -0.3042  0.2906
22589W        W38058  12.585   8.671  13.484  0.0431 -0.0754  0.0476
22590W        W38059  11.899  10.156  13.311  0.3326 -0.2916  0.1914
22591W        W38060  11.956  16.251   4.206  0.2109 -0.1088  0.2279
22592W        W38061  16.172   4.468  14.091 -0.0410 -0.0809  0.0626
22593W        W38062  16.891  11.578  12.833  0.0570  0.4182 -0.0536
22594W        W38063   8.030  15.419   3.030  0.3150 -0.0285 -0.1958
22595W        W38064   7.082  18.337   0.683 -0.1316 -0.0200 -0.1646
22596W        W38065   4.388   5.298   2.277  0.2142 -0.0095 -0.4483
22597W        W38066   0.597   2.053   2.889 -0.1311 -0.0580 -0.1857
22598W        W38067  14.842  11.796   5.604 -0.1067  0.1576  0.2090
22599W        W38068   6.329   3.351   4.437 -0.0140 -0.2147  0.1395
22600W        W38069   2.063   4.033   5.101 -0.0249  0.1250  0.0906
22601W        W38070  14.386   5.402  12.385  0.0893  0.0910  0.1986
22602W        W38071  13.729  12.048   1.911  0.2092 -0.3423  0.1539
22603W        W38072  14.113   6.091   0.572 -0.2508  0.2418 -0.2227
22604W        W38073   8.894   5.438   4.926 -0.0410  0.4513  0.0124
22605W        W38074  11.442   0.321   3.655  0.0403 -0.1631 -0.0657
22606W        W38075   0.364   6.367   4.961 -0.1587 -0.2587 -0.0013
22607W        W38076   8.738   3.678  14.255  0.2548 -0.0998 -0.0015
22608W        W38077  10.817   5.957  13.104  0.1018 -0.2577  0.1174
22609W        W38078  15.818   2.239   1.685 -0.0015  0.0477  0.0129
22610W        W38079  12.960   7.831   3.535 -0.3590 -0.0559  0.0086
22611W        W38080  11.416  12.452  11.183 -0.1941  0.0131 -0.0228
22612W        W38081   7.083  15.881  14.289  0.0671 -0.3169  0.2682
22613W        W38082  14.932  15.742   3.883 -0.0362 -0.3310  0.1443
22614W        W38083  10.313  13.087  11.373 -0.0816 -0.0303  0.0672
22615W        W38084   5.569   7.928  15.558 -0.1261  0.0837 -0.1778
22616W        W38085   0.871  17.799  14.066  0.0799  0.0277  0.0420
22617W        W38086  17.697   3.604   4.943  0.1659 -0.3433  0.0174
22618W        W38087  15.633   2.307   1.131 -0.2363 -0.1094  0.3501
22619W        W38088   6.849   1.095   0.697  0.2241  0.1608  0.0144
22620W        W38089   1.851   2.035   4.259 -0.0920 -0.0773  0.0661
22621W        W38090   8.276  16.654   3.840 -0.0347 -0.0653 -0.0775
22622W        W38091  16.289   6.292  11.850  0.1494  0.0077  0.1310
22623W        W38092  13.850  16.653   3.409 -0.2095 -0.1125 -0.0085
22624W        W38093  17.274   1.764   2.226 -0.0402  0.0476 -0.4035
22625W        W38094   5.983  10.856   4.909  0.2027 -0.0170 -0.2236
22626W        W38095  10.997   5.203   0.435  0.2951  0.1695 -0.4362
22627W        W38096  11.524   9.433   4.215  0.6741  0.0701 -0.0050
22628W        W38097   4.841  17.645   4.565 -0.0652  0.2490 -0.0513
22629W        W38098   5.647  14.385  11.503 -0.1293 -0.0302  0.0627
22630W        W38099   8.779   0.197  14.126 -0.1155  0.1498 -0.0530
22631W        W38100  14.837  12.030   3.719  0.0822  0.3231 -0.0809
22632W        W38101   4.801   1.850  15.932  0.3189 -0.2283 -0.2838
22633W        W38102   0.504  17.859  14.872  0.1846  0.0242 -0.3149
22634W        W38103   6.441   7.611   0.129 -0.3572 -0.1600  0.1923
22635W        W38104   0.189   9.230  10.757  0.0583 -0.0125 -0.0991
22636W        W38105   4.982  15.097   5.357  0.3021 -0.3598  0.2563
22637W        W38106  13.517  14.448  13.050  0.2376 -0.0143 -0.0452
22638W        W38107  11.773   4.391  15.079 -0.0985  0.0701 -0.0886
22639W        W38108  17.086  15.927   1.593  0.0122  0.3279 -0.3827
22640W        W38109  11.565  16.575   5.116 -0.1694  0.0268 -0.0766
22641W        W38110  16.613   7.085  14.494 -0.3439 -0.2980 -0.4999
22642W        W38111  12.178  11.421   0.868 -0.2390 -0.0517  0.0989
22643W        W38112   4.707   7.755  15.930 -0.0188 -0.1313 -0.1615
22644W        W38113  13.647   0.061   1.635 -0.1435  0.1431  0.3528
22645W        W38114  10.616  10.703  13.240 -0.1507  0.0173  0.1062
22646W        W38115  10.691  12.063   1.304  0.3069 -0.1305 -0.4311
22647W        W38116  18.005   3.189  15.550  0.1594  0.1387 -0.1220
22648W        W38117   0.116   8.289  10.351 -0.0673  0.0130 -0.1126
22649W        W38118   5.771  14.139  15.550 -0.2529 -0.1774  0.4134
22650W        W38119   2.360  17.772   2.937 -0.3068  0.1591  0.0601
22651W        W38120   1.633  11.443  15.357 -0.2036 -0.2794  0.2848
22652W        W38121   7.499  17.302   3.881 -0.0862 -0.3089 -0.0059
22653W        W38122  16.834  13.600  15.527  0.2175  0.2399 -0.1318
22654W        W38123  14.016  14.815  10.977  0.2161  0.1963 -0.0362
22655W        W38124   5.568  15.273   1.829  0.0683 -0.0338 -0.1602
22656W        W38125   1.765   0.185  14.192 -0.1867 -0.2432 -0.2244
22657W        W38126   5.182  15.470  12.693 -0.4237  0.1153  0.1855
22658W        W38127  17.103   5.256  10.769  0.2822 -0.1089 -0.2425
22659W        W38128  12.284  13.628  15.478  0.0988 -0.2133 -0.0434
22660W        W38129   3.499   3.744  13.044  0.2424  0.0677  0.0989
22661W        W38130  18.392   3.522   4.491  0.0559  0.1478 -0.0038
22662W        W38131   2.303   6.821   2.422  0.0210 -0.0279  0.0159
22663W        W38132  12.078  16.811   2.020  0.0646  0.0958 -0.1305
22664W        W38133   3.280  14.729   1.836  0.1901  0.1531  0.2123
22665W        W38134   6.970  15.373   0.934 -0.2801 -0.1323  0.1293
22666W        W38135   5.595  16.611  15.060 -0.0188  0.2908 -0.2627
22667W        W38136   2.991   1.806  11.727 -0.3126  0.2994 -0.0905
22668W        W38137  15.970   0.350   3.540  0.2082  0.2155  0.0760
22669W        W38138   4.387  13.713  11.342  0.3141  0.0434 -0.0746
22670W        W38139   5.096  17.258   4.836  0.3140 -0.0832 -0.0776
22671W        W38140   2.926  16.966   2.137 -0.1395  0.1493 -0.1758
22672W        W38141   7.947   9.568   4.288 -0.1349  0.4746 -0.1131
22673W        W38142  14.967  14.686  11.068 -0.1840 -0.2016  0.1270
22674W        W38143  16.227   8.340   4.124 -0.3397 -0.3687  0.1614
22675W        W38144  13.199   8.716  12.318  0.2474  0.2827  0.1297
22676W        W38145   9.307  10.513   4.473 -0.1196  0.1341 -0.0773
22677W        W38146   0.567  17.646   0.887  0.0341 -0.1576  0.0049
22678W        W38147  14.961  15.264  11.981  0.4139 -0.1192  0.0023
22679W        W38148   7.181   1.311  15.572 -0.2639 -0.0437  0.0965
22680W        W38149  14.046  17.710   0.145 -0.0159 -0.2617 -0.3301
22681W        W38150   5.550   0.825  12.653 -0.1132 -0.0843  0.0300
22682W        W38151   9.310   0.342   3.212 -0.6545 -0.2195  0.0086
22683W        W38152   8.296  13.676  14.066  0.0213  0.0755 -0.3057
22684W        W38153  14.230  14.140  15.677 -0.2148  0.3084  0.0794
22685W        W38154   4.883   8.220  12.033  0.0244  0.2709  0.4739
22686W        W38155  14.046   4.228  14.036  0.3058  0.0099 -0.2845
22687W        W38156  14.402  11.494  13.706 -0.0687 -0.0432 -0.0947
22688W        W38157   6.517   7.515   0.678 -0.0413 -0.0287 -0.1855
22689W        W38158  15.135   2.606   0.354 -0.3024 -0.0560  0.1332
22690W        W38159   4.535   3.253   0.843 -0.1660 -0.0268 -0.2294
22691W        W38160   0.655   2.948  11.785  0.2487 -0.0269  0.1177
22692W        W38161  18.216  11.206   3.424 -0.0939 -0.1896 -0.0816
22693W        W38162  11.737  17.316  14.931 -0.0557 -0.0215 -0.1311
22694W        W38163  17.498  12.995  14.301 -0.2299  0.1203  0.0614
22695W        W38164  11.063  10.561  13.032 -0.0524 -0.1475 -0.1588
22696W        W38165  17.879  14.389   0.184 -0.1185 -0.2533  0.0517
22697W        W38166   4.198  10.635  11.210  0.0274  0.2360  0.2830
22698W        W38167  10.777  16.947   4.850  0.2143 -0.2319  0.2989
22699W        W38168  11.926   3.473   2.471  0.3143  0.0128  0.0326
22700W        W38169   3.368  16.089  15.367  0.2924  0.1625  0.3228
22701W        W38170   9.690   6.335  15.777 -0.0351 -0.0577  0.0877
22702W        W38171   1.463  14.186  10.764  0.0710  0.2063 -0.0814
22703W        W38172   2.127   1.212  15.183 -0.0324 -0.2142  0.0989
22704W        W38173   5.476   5.071  12.300  0.1606  0.1028 -0.1684
22705W        W38174  12.133   7.456   4.424  0.2044 -0.0766  0.0714
22706W        W38175   1.343  12.662  14.905  0.4671 -0.3131  0.0032
22707W        W38176   4.909   1.158   6.309 -0.1348 -0.1732 -0.0551
22708W        W38177  18.059   3.537   0.507  0.2041 -0.0820  0.0653
22709W        W38178   9.532   8.011   4.990 -0.1655  0.1884 -0.0966
22710W        W38179  17.755  16.265  11.539  0.0175  0.3945 -0.1975
22711W        W38180   9.365  13.265  14.369 -0.2090 -0.1083  0.2421
22712W        W38181   4.820  12.895  11.543 -0.2842 -0.0279  0.0425
22713W        W38182  16.613  12.535   0.779  0.0025 -0.0545 -0.1046
22714W        W38183   6.098  11.981   0.758  0.1374  0.2194  0.2589
22715W        W38184  13.859  10.048   2.421 -0.0048  0.0014  0.0138
22716W        W38185  14.401   1.410  12.015 -0.0883 -0.1171 -0.0857
22717W        W38186   3.242   2.428   1.753  0.3962  0.0076  0.1136
22718W        W38187  17.196  12.489   5.669 -0.1772  0.2077  0.2336
22719W        W38188   4.654   0.370  14.666  0.3042 -0.0656  0.0995
22720W        W38189  13.743  17.479   2.471 -0.3512 -0.2278 -0.1164
22721W        W38190   5.998   7.899  14.711 -0.0177  0.0321 -0.5057
22722W        W38191  15.752   6.250  11.843  0.4044  0.2348  0.1258
22723W        W38192  17.870   8.469  12.488  0.1428 -0.3559 -0.0545
22724W        W38193  17.074  10.660  14.896  0.1422  0.0734 -0.1118
22725W        W38194   1.751  12.368  14.556  0.4277 -0.3041 -0.0438
22726W        W38195   0.658   6.553  15.945  0.0742  0.0288 -0.1831
22727W        W38196   0.461   1.049  11.935 -0.3080 -0.2702  0.0790
22728W        W38197  15.832   2.662   2.769 -0.2919  0.4087  0.0472
22729W        W38198   9.383   1.957  13.638 -0.2698  0.2464  0.1070
22730W        W38199   6.789   8.171  12.035 -0.2551  0.0847 -0.1069
22731W        W38200  14.763   9.316   1.368 -0.1025  0.3200  0.2165
22732W        W38201   1.281   7.864   2.843  0.0695 -0.1662  0.1373
22733W        W38202   3.295   8.644   0.435  0.0112 -0.3242  0.2644
22734W        W38203   1.118   0.001  14.763  0.2381 -0.2100  0.2274
22735W        W38204   3.467  15.387  13.102 -0.0230  0.1113 -0.0693
22736W        W38205   2.829   2.889   2.973  0.0404 -0.0159 -0.0113
22737W        W38206  18.071  13.912  11.551  0.1005  0.0367 -0.1093
22738W        W38207   4.923  18.115  15.923 -0.0275  0.0296  0.2425
22739W        W38208  10.721   6.375   3.441 -0.1763  0.1517  0.0566
22740W        W38209   7.162  17.556  11.643  0.6773 -0.1029  0.0316
22741W        W38210  17.918  10.956   5.799  0.1552 -0.2100 -0.1380
22742W        W38211   7.809  13.615   3.706  0.1149 -0.2830 -0.0097
22743W        W38212   1.774   2.111   5.257 -0.0030 -0.3278 -0.2293
22744W        W38213   0.142   5.793   3.183 -0.0075 -0.0234 -0.2096
22745W        W38214   0.422   1.996  12.564 -0.2444 -0.1347  0.3188
22746W        W38215  17.047   8.133   4.300  0.1999  0.1050  0.0443
22747W        W38216   8.907   3.992  12.842 -0.0994  0.0150  0.1377
22748W        W38217  15.150  14.908  12.276 -0.1607  0.4213  0.0261
22749W        W38218   5.227  14.497  13.197  0.2222 -0.0549  0.1664
22750W        W38219   7.677   0.165  13.028  0.0830  0.0079  0.0404
22751W        W38220   9.835   3.706   1.618 -0.1528  0.1196  0.4149
22752W        W38221  16.048  17.136  11.896  0.0099 -0.1413 -0.2487
22753W        W38222   3.370   5.789  15.747 -0.1283  0.1292 -0.1348
22754W        W38223   7.327   4.173  14.655  0.2182 -0.0538 -0.2247
22755W        W38224   2.848  10.619  11.142  0.2298  0.1136  0.2421
22756W        W38225  17.184  14.828   4.311 -0.0983 -0.0054 -0.2001
22757W        W38226   9.317  10.971   0.357 -0.2479 -0.0762 -0.0467
22758W        W38227  15.547  15.795  11.337  0.1035 -0.1137 -0.0812
22759W        W38228  10.862  13.551   3.111 -0.0738  0.1478  0.2640
22760W        W38229  10.916  13.587  14.541  0.0312  0.2027 -0.3070
22761W        W38230   3.726   8.724   4.865  0.2346  0.2015 -0.0220
22762W        W38231  17.566  13.848  12.564 -0.1970 -0.1442 -0.0698
22763W        W38232  15.495  10.648   5.575  0.0504 -0.2143  0.0409
22764W        W38233   8.670   6.871  14.463  0.1209  0.3186  0.0013
22765W        W38234  12.812  10.032   3.176 -0.0046 -0.0241  0.0678
22766W        W38235  13.792  13.404  11.517  0.1013  0.1394  0.1016
22767W        W38236   1.477  13.162   4.959  0.0088 -0.5331 -0.0248
22768W        W38237   5.465   9.919   1.794  0.2448 -0.4100  0.0599
22769W        W38238   6.679   3.738   0.605  0.0608 -0.0206 -0.3569
22770W        W38239   9.022  15.118  13.165 -0.1235 -0.1815  0.1715
22771W        W38240  11.709   7.237  14.696 -0.0669 -0.0467 -0.1542
22772W        W38241   9.408   0.884   4.872 -0.2410 -0.2535  0.2630
22773W        W38242  12.858  10.831   0.672  0.1904  0.1126 -0.1674
22774W        W38243   8.141   7.635   2.412 -0.1668 -0.1279  0.0507
22775W        W38244  13.635  15.303  15.767 -0.0623  0.1392 -0.0387
22776W        W38245   8.502   9.458  11.425 -0.0932 -0.0417 -0.1388
22777W        W38246  15.597   7.320  14.552 -0.0340  0.0547  0.0328
22778W        W38247   3.050   7.283   0.451  0.0373  0.2028 -0.0231
22779W        W38248   1.954   3.234   4.909 -0.2831 -0.1530 -0.1603
22780W        W38249  11.928   8.011  12.651 -0.1913 -0.1043  0.0853
22781W        W38250  14.924   5.248   0.069  0.1940 -0.1068 -0.2501
22782W        W38251  10.924   3.739   0.840  0.1449 -0.2686 -0.1467
22783W        W38252   0.697   5.507   5.494 -0.1628  0.0755  0.1269
22784W        W38253   8.775   2.226  11.771  0.1397 -0.0265 -0.0279
22785W        W38254  11.394  12.036   2.181 -0.2345  0.1580 -0.1183
22786W        W38255  16.728  14.068   1.819  0.0527  0.3717  0.0422
22787W        W38256  14.877   8.927  10.903  0.0393  0.4771  0.1376
22788W        W38257  14.815  11.168  15.064 -0.2005  0.1319 -0.0783
22789W        W38258   7.437   8.797   1.452 -0.0019 -0.1966 -0.1408
22790W        W38259  15.825   5.064   4.181 -0.1469  0.4050  0.1812
22791W        W38260  13.891   3.585  15.291 -0.1160  0.0889 -0.1368
22792W        W38261   9.321   0.324   2.748  0.2185 -0.2374  0.2322
22793W        W38262   4.502  11.407   5.736  0.2231  0.0286  0.0706
22794W        W38263  13.433  12.724  15.799 -0.0190  0.1128  0.1259
22795W        W38264  17.953   5.521   2.656 -0.0983 -0.1875  0.1202
22796W        W38265   3.627   6.267  13.807  0.2395  0.1075 -0.1780
22797W        W38266  11.644  13.970   3.302  0.0902  0.1240  0.2174
22798W        W38267  14.068  12.646   0.035  0.1449  0.0944 -0.2178
22799W        W38268  14.190  13.261  13.683 -0.0201 -0.0667 -0.1205
22800W        W38269   9.964  12.405  13.651  0.1507  0.0238 -0.0978
22801W        W38270  11.277   4.080  14.349 -0.2563 -0.1242 -0.1609
22802W        W38271   7.898  17.554   5.411 -0.1064  0.0254 -0.0773
22803W        W38272  15.708  14.218  10.806  0.1081  0.2725  0.2381
22804W        W38273  13.460  16.995   1.995  0.2368 -0.0223 -0.1689
22805W        W38274  13.994   2.014   1.685  0.0562 -0.0528 -0.0372
22806W        W38275  12.527   2.342   3.525 -0.0521 -0.0827  0.2009
22807W        W38276   9.430   1.614  13.964  0.0080  0.2554 -0.0185
22808W        W38277  15.704  17.252  14.766  0.1781 -0.0080  0.2962
22809W        W38278   9.578  16.469   2.403 -0.0101  0.2661  0.0484
22810W        W38279  13.725   9.803   3.593  0.1617 -0.0409  0.1672
22811W        W38280   2.596   0.977   3.830  0.3107  0.3247  0.0966
22812W        W38281   2.301   3.557  14.666  0.3006  0.0257  0.2984
22813W        W38282   8.360  13.000   0.849 -0.3065 -0.1583  0.2280
22814W        W38283   0.254  12.222  15.880  0.1906 -0.1791  0.4010
22815W        W38284  14.433   5.653   4.857 -0.0701  0.3819 -0.0596
22816W        W38285   1.524  10.996   4.055  0.3648  0.0191 -0.2991
22817W        W38286  14.806   7.457  14.094 -0.0290 -0.1318 -0.0880
22818W        W38287   2.255  15.119  15.983  0.1293  0.1015 -0.0576
22819W        W38288  13.350  12.559  12.198 -0.0526  0.0366  0.2781
22820W        W38289   5.609   0.016  11.617 -0.2155 -0.0918 -0.1892
22821W        W38290   0.892   5.414   3.063  0.5393  0.0632  0.0826
22822W        W38291   2.838   1.095  12.297  0.0746  0.1624  0.1413
22823W        W38292  11.271  15.761   4.137  0.0495  0.0815  0.0018
22824W        W38293   3.542  11.221  11.935 -0.3157  0.1994  0.0338
22825W        W38294  17.247  16.581   1.938 -0.0936 -0.3719 -0.0452
22826W        W38295  13.369  10.863  13.094 -0.0230 -0.1558 -0.1251
22827W        W38296   5.635  16.066  13.174  0.3820  0.1701  0.1519
22828W        W38297   8.106   2.763  13.674  0.0927 -0.1053  0.1234
22829W        W38298   1.504  15.187   3.615  0.0916 -0.1448  0.0046
22830W        W38299  16.732   8.723   5.559  0.0011  0.1061  0.4227
22831W        W38300  17.130  16.404   4.205  0.0797 -0.2611  0.0823
22832W        W38301   1.935   2.616   3.950 -0.0513 -0.0101 -0.1423
22833W        W38302   9.389   2.567   3.761 -0.1111  0.0905 -0.1047
22834W        W38303  18.080   9.850  15.226 -0.1321 -0.1706  0.0760
22835W        W38304  13.165   4.484  13.875 -0.1670  0.2076 -0.1680
22836W        W38305   0.722  11.486   5.295  0.1617  0.1072  0.0689
22837W        W38306   9.505   0.318   3.728 -0.3273 -0.3638  0.0580
22838W        W38307  13.494   9.658  11.670 -0.0428 -0.1457  0.0074
22839W        W38308   5.656   7.716   5.758 -0.1407 -0.0519  0.0325
22840W        W38309   5.377   8.207   2.101 -0.0589  0.1841 -0.0982
22841W        W38310  15.187   7.230  13.664 -0.2054 -0.2495 -0.2656
22842W        W38311  16.944   4.152  14.264 -0.0864 -0.0709  0.1645
22843W        W38312  18.248  14.928   4.303 -0.1607 -0.1703 -0.0080
22844W        W38313  11.421   6.239   1.128 -0.2612  0.0436  0.2871
22845W        W38314  13.508   5.778  14.442 -0.0716 -0.0308 -0.1863
22846W        W38315   6.859  11.649  12.107  0.0106  0.1356  0.0421
22847W        W38316  11.826   1.566  12.913 -0.6261 -0.0600  0.2879
22848W        W38317  14.804  12.014   2.843 -0.1459  0.0963  0.0033
22849W        W38318  14.300  16.962  14.191  0.0267  0.2983 -0.3139
22850W        W38319  15.282  17.061   1.092  0.2164  0.2594 -0.0252
22851W        W38320  11.937   5.300  15.194  0.2885  0.1614 -0.0005
22852W        W38321  15.627  18.190  14.291 -0.1419 -0.0239  0.2285
22853W        W38322   0.265   9.613  15.674  0.3902 -0.2569 -0.0588
22854W        W38323  14.298   5.789   1.069 -0.3463  0.2464 -0.3767
22855W        W38324  17.395   1.487   0.391 -0.1578  0.0009 -0.3788
22856W        W38325   0.497  11.770   3.576  0.0963  0.0962 -0.1901
22857W        W38326  10.070   9.619   1.596  0.1544  0.1838 -0.1598
22858W        W38327  10.431  10.624   3.671  0.0996 -0.0142 -0.0929
22859W        W38328  14.823   2.811   3.630  0.2035  0.2049  0.2010
22860W        W38329  11.825   5.715  11.071 -0.0202 -0.0499  0.0680
22861W        W38330   8.874  10.458  15.679  0.1389  0.2475  0.2049
22862W        W38331  16.674   5.329   3.869  0.2862  0.0057  0.4141
22863W        W38332   5.676  11.316  12.268  0.1750 -0.1005  0.2090
22864W        W38333   0.211  10.106  14.502 -0.1085 -0.0895 -0.2513
22865W        W38334   8.231  14.767   2.840 -0.0037  0.1671  0.0526
22866W        W38335   2.296   8.877   3.218 -0.2743  0.1172 -0.0093
22867W        W38336  12.409   9.453   1.255 -0.3337  0.2207  0.0471
22868W        W38337  16.995  17.481   2.562 -0.2459  0.3771  0.0689
22869W        W38338  13.529   9.006   4.520  0.1363  0.1085 -0.1376
22870W        W38339   7.121  12.680  12.990 -0.2362  0.0759  0.2305
22871W        W38340   9.141  16.325  12.998 -0.0203  0.3380 -0.2640
22872W        W38341   6.706   0.932  13.297  0.1234  0.1844 -0.1168
22873W        W38342   3.292  12.753   2.519  0.2169  0.0092 -0.2354
22874W        W38343   0.886   4.536   5.668  0.1799 -0.2462  0.1749
22875W        W38344   4.728   9.052   0.295  0.3966  0.1648 -0.0487
22876W        W38345  11.835   4.130   5.148 -0.2103  0.1734 -0.0665
22877W        W38346   6.293   9.758  11.374  0.0605 -0.2719  0.0152
22878W        W38347   5.055   7.433  13.862  0.3517 -0.1838 -0.3570
22879W        W38348   8.299  14.309  14.207 -0.0669 -0.1264  0.1043
22880W        W38349   0.407   8.987   6.203 -0.1385 -0.1211 -0.0767
22881W        W38350  12.231  17.868   2.691 -0.0474  0.0913  0.0277
22882W        W38351  13.551   0.683  12.824 -0.2992  0.0696 -0.0354
22883W        W38352  14.655   2.598  14.347 -0.0675 -0.1269 -0.0790
22884W        W38353   0.857  15.900   2.993  0.2477 -0.1386 -0.2124
22885W        W38354  14.010   7.261  11.919 -0.5022 -0.0454 -0.2341
22886W        W38355  10.899   0.953   2.734 -0.3080  0.1543  0.3158
22887W        W38356  15.058   4.764  12.086 -0.0584 -0.1160 -0.1311
22888W        W38357  16.966  18.167   1.529 -0.0977 -0.3795 -0.0173
22889W        W38358   0.829  11.505   4.024 -0.1361  0.0007  0.1403
22890W        W38359  10.996   9.535  12.515 -0.3517 -0.0643  0.1673
22891W        W38360   3.540  14.886  11.985  0.0127  0.1018  0.0108
22892W        W38361  10.890   5.737   1.450  0.0853 -0.1374  0.1084
22893W        W38362   4.918  12.147  12.910  0.0794 -0.1345  0.1067
22894W        W38363   5.462   7.954   3.600  0.1799 -0.1072  0.0757
22895W        W38364   4.800   9.673  15.344 -0.0155 -0.0085 -0.0234
22896W        W38365  14.357   5.165  14.232 -0.3477  0.1391  0.0387
22897W        W38366  11.769   9.947  15.114 -0.0739  0.1031  0.0180
22898W        W38367  11.166  11.614  12.182 -0.2380  0.5348 -0.0192
22899W        W38368  18.429   6.815  11.455  0.1388  0.3306 -0.3562
22900W        W38369  11.593   5.062  10.926  0.3006 -0.1129 -0.0621
22901W        W38370  18.254   9.920  13.285  0.0196 -0.2295  0.3101
22902W        W38371   4.803  14.717   3.590  0.2338  0.1258  0.2356
22903W        W38372  13.129  11.917  15.411  0.2445  0.1261 -0.0550
22904W        W38373   9.627   7.925   2.441  0.0455  0.3537  0.2088
22905W        W38374  12.348   0.260   2.840  0.0962 -0.0035  0.3304
22906W        W38375   8.062  16.297  11.327  0.0471  0.2566 -0.3035
22907W        W38376   2.897  13.588   2.316  0.0001 -0.2617 -0.0197
22908W        W38377   2.710   2.145  12.130 -0.0335  0.1226 -0.3085
22909W        W38378   3.650  11.821  13.011 -0.0829  0.1293 -0.2716
22910W        W38379   5.940  16.074   0.768 -0.1480 -0.2262 -0.1131
22911W        W38380   8.414  16.777   2.358 -0.0757  0.2337 -0.1328
22912W        W38381   4.305   6.545  14.397 -0.0102 -0.0637  0.1239
22913W        W38382   7.019  14.902  11.896 -0.2107  0.0812  0.0955
22914W        W38383  11.284  16.758  14.865  0.0356 -0.0549  0.1190
22915W        W38384   0.842  14.527  14.239 -0.3453  0.0262  0.2311
22916W        W38385   3.102  17.815  10.880 -0.0033 -0.1984 -0.1576
22917W        W38386  15.237   5.656  12.963 -0.1134 -0.0127  0.0625
22918W        W38387  12.751  11.306  12.483  0.0544 -0.0044 -0.2034
22919W        W38388  17.767  12.168   3.982  0.3891 -0.0055 -0.0583
22920W        W38389  10.268   8.439  11.644  0.3332 -0.1260 -0.3476
22921W        W38390   5.905   2.643  11.550 -0.0558 -0.0816 -0.0988
22922W        W38391  15.135  11.483   0.627  0.1810 -0.3493  0.1567
22923W        W38392   4.318   0.509   1.006 -0.1061 -0.1262  0.0962
22924W        W38393  15.779   9.251  14.175 -0.0107  0.2958 -0.0764
22925W        W38394   5.343  10.050  14.515  0.0815  0.1013  0.0490
22926W        W38395  16.609   6.644  14.265 -0.1969 -0.0363 -0.1790
22927W        W38396   8.267   5.011  15.691 -0.0330 -0.0924 -0.2906
22928W        W38397  17.588  10.612   4.486  0.0833  0.0539 -0.4260
22929W        W38398   4.535   4.210  10.683 -0.0098  0.1037  0.1042
22930W        W38399   7.143   1.713  10.981  0.0399 -0.1939  0.0060
22931W        W38400  10.110  18.178  14.348 -0.0602  0.0638  0.0671
22932W        W38401   0.311  17.634  15.682  0.0286 -0.2154 -0.0840
22933W        W38402  12.283  10.013   3.863 -0.0828  0.1074  0.0985
22934W        W38403   9.050   3.512   4.538 -0.0136  0.0073 -0.0381
22935W        W38404  15.349  11.258   3.617  0.0606  0.1344 -0.1596
22936W        W38405   5.180   0.084  12.064 -0.1207  0.0866  0.0695
22937W        W38406   3.423   7.995  13.529  0.1747  0.1687  0.1716
22938W        W38407   9.419  10.906  15.050  0.1777 -0.0573  0.1265
22939W        W38408   4.680  14.273  14.173 -0.0300 -0.1804 -0.1235
22940W        W38409   6.110  10.826   4.447 -0.2349 -0.0650 -0.1429
22941W        W38410  17.967   0.385  10.307 -0.2691  0.0340 -0.3397
22942W        W38411   6.519  11.503   3.559 -0.1756  0.4138 -0.2292
22943W        W38412   2.926  15.929  15.687  0.0555 -0.1104 -0.4446
22944W        W38413  11.194  10.807  13.557  0.1877 -0.1852  0.2128
22945W        W38414  18.135   7.949  14.270  0.2481 -0.1246 -0.1361
22946W        W38415   6.568  16.929  15.913 -0.0435  0.1696  0.0358
22947W        W38416  12.914  12.358   3.680  0.0048  0.0269 -0.1252
22948W        W38417   0.740   1.505  13.503  0.1132 -0.1661  0.1271
22949W        W38418   4.519   5.188  13.667  0.2656  0.1885  0.2611
22950W        W38419  13.612  15.540   2.231 -0.0894  0.1370  0.0760
22951W        W38420  18.414  13.508  14.895 -0.0718  0.1040  0.1235
22952W        W38421   9.956   7.189   0.813  0.0353 -0.2746  0.2136
22953W        W38422   4.925   1.036  13.435  0.1329  0.0095  0.0611
22954W        W38423   6.874  14.477  11.616  0.0557 -0.2135  0.2862
22955W        W38424   7.849  12.368   2.933  0.2780  0.0235  0.1267
22956W        W38425   5.212   8.142   0.040 -0.0109  0.2326  0.2104
22957W        W38426   9.691   0.646  13.371 -0.3077 -0.1750 -0.1727
22958W        W38427   6.348   4.328   3.243 -0.0268 -0.2206  0.2656
22959W        W38428   5.179   5.346  11.068  0.1711 -0.1420 -0.2021
22960W        W38429  14.008   7.797   4.961 -0.0050 -0.0981  0.0275
22961W        W38430   4.664   7.974  15.468  0.0176 -0.2301  0.0132
22962W        W38431  18.242  17.715  13.347 -0.0890 -0.0418 -0.1792
22963W        W38432   5.083  10.697  15.884 -0.4195 -0.2696  0.1679
22964W        W38433   7.276  12.206   3.072 -0.0623 -0.0823 -0.3845
22965W        W38434  10.629   3.895  13.683 -0.2600  0.1816 -0.0421
22966W        W38435   6.590   5.983   0.899 -0.0905  0.1406 -0.2851
22967W        W38436   6.924   9.862  12.289  0.3352 -0.0056  0.0812
22968W        W38437  14.310  12.973   2.591  0.0135 -0.0275 -0.2188
22969W        W38438  18.319  10.759   1.980 -0.0532  0.1714 -0.0205
22970W        W38439   3.553   1.038   3.836  0.2038  0.0240  0.4608
22971W        W38440  11.858  16.050   1.380  0.2718 -0.1028 -0.0480
22972W        W38441   4.922  15.405  15.410  0.1534 -0.1862 -0.0000
22973W        W38442   7.912   2.252   3.480  0.2374  0.2564  0.1785
22974W        W38443   8.406  15.643   0.491  0.1534  0.0262  0.1133
22975W        W38444   4.308   5.221  14.445 -0.2998  0.1803  0.2844
22976W        W38445  17.217   4.409  13.771  0.0038  0.1043  0.0278
22977W        W38446   5.685  11.010   6.133 -0.1601 -0.2033  0.1064
22978W        W38447   9.696  14.792   2.162 -0.3726  0.2891 -0.1005
22979W        W38448  10.002   2.392   0.583 -0.0185 -0.1538 -0.2703
22980W        W38449  16.285   7.272  11.798 -0.3251 -0.0998 -0.1231
22981W        W38450   2.050   9.152   4.600  0.0875  0.0731  0.0599
22982W        W38451   5.323   7.828   1.181 -0.4548 -0.3301  0.4823
22983W        W38452  14.071  13.117   4.895 -0.1173  0.2511  0.1595
22984W        W38453   4.541   8.845   1.589 -0.1467 -0.1079 -0.2135
22985W        W38454  14.114   4.362   5.010 -0.1454 -0.2976  0.0490
22986W        W38455  11.334  14.351  14.509 -0.2662  0.0685  0.0872
22987W        W38456   3.503  15.783   0.418  0.0402  0.0552 -0.0924
22988W        W38457  13.447   1.918   4.988 -0.2275 -0.2822 -0.0246
22989W        W38458  13.852  15.242   3.453 -0.0230  0.1370 -0.1928
22990W        W38459  17.336   9.391  14.400 -0.4995  0.1827  0.1235
22991W        W38460   2.342   5.207  15.040 -0.2906  0.1546  0.3582
22992W        W38461   7.831   4.610   2.320 -0.2646  0.3441  0.0415
22993W        W38462  14.594  16.170   4.048  0.2063  0.0721 -0.2773
22994W        W38463  12.360  10.254   3.048  0.0602  0.2100  0.0814
22995W        W38464  13.351   0.521  13.277 -0.0356 -0.0988  0.2438
22996W        W38465   1.236  15.540  13.615  0.1778  0.1146 -0.0601
22997W        W38466  17.335   5.913   3.797  0.2293  0.2233 -0.0189
22998W        W38467  15.896   4.071   1.667 -0.1416 -0.0243 -0.1884
22999W        W38468  17.572   8.618  13.122  0.0913  0.2944 -0.2373
23000W        W38469  14.310  10.897  11.544  0.1498 -0.0468  0.1971
23001W        W38470   9.994   1.359  13.029 -0.2520 -0.3489  0.2443
23002W        W38471  15.964   2.495  11.194  0.0427 -0.1034  0.0107
23003W        W38472   5.780  13.566   1.291  0.2365 -0.0995  0.0444
23004W        W38473  11.361  16.970   4.786 -0.3951 -0.2460 -0.1890
23005W        W38474  13.674  15.320   4.318  0.2332  0.1353  0.0989
23006W        W38475   5.547   3.280   2.743  0.1727  0.0171 -0.0057
23007W        W38476  17.601  16.326   0.009 -0.1000 -0.0486  0.0536
23008W        W38477   9.171   0.112  13.088 -0.0095  0.1148  0.1098
23009W        W38478  15.858   8.388  15.686  0.4053  0.0575 -0.3964
23010W        W38479  13.994  18.024  11.320  0.3080  0.0609  0.2483
23011W        W38480   6.739   2.964   5.634 -0.0418  0.0629  0.0243
23012W        W38481  12.692   8.761   1.899  0.0947 -0.0855  0.2263
23013W        W38482   4.746  14.445   1.226 -0.0532  0.2030  0.0305
23014W        W38483   1.017  14.520   3.356 -0.1956 -0.1007  0.2840
23015W        W38484   1.337  16.740   4.583 -0.1035 -0.1004  0.1660
23016W        W38485  13.097  18.139  11.963 -0.0601 -0.0963 -0.2592
23017W        W38486  13.012   1.950  15.176 -0.0340  0.1770 -0.0199
23018W        W38487  16.928   5.455   4.922 -0.0124  0.1518 -0.1978
23019W        W38488   7.883   0.442   3.261  0.2368  0.0555 -0.0956
23020W        W38489  10.866   0.185  11.326 -0.0286  0.0893 -0.1380
23021W        W38490   3.091  10.957  13.206  0.0545  0.1246  0.1615
23022W        W38491   1.949  10.620   5.493  0.1123 -0.0003 -0.3823
23023W        W38492   0.663  12.248   0.379  0.1871  0.1029 -0.1783
23024W        W38493  18.104  15.684   1.454  0.1518  0.1441 -0.0406
23025W        W38494  17.606   3.482  11.658  0.2291  0.1244  0.0748
23026W        W38495   1.187  17.089  16.023 -0.1859  0.0166 -0.2231
23027W        W38496  18.460   4.875  15.989 -0.0205 -0.0973 -0.2839
23028W        W38497   4.743   1.516  12.184 -0.0746 -0.1212 -0.0863
23029W        W38498   4.860  10.406   0.149 -0.0839  0.3424 -0.2438
23030W        W38499   7.723  15.841  15.243  0.3274  0.0209  0.2114
23031W        W38500   7.719  12.418   5.602 -0.1921 -0.0169  0.0113
23032W        W38501   2.918  17.754  15.873 -0.0092  0.0016 -0.0374
23033W        W38502   8.971   1.233  12.484  0.0334  0.0126 -0.4968
23034W        W38503   0.389   1.553   2.151 -0.1792 -0.0922 -0.1156
23035W        W38504   7.245   6.598   1.986  0.0716  0.0891 -0.3770
23036W        W38505   1.511   8.377  13.684 -0.2047 -0.1601 -0.0535
23037W        W38506   7.503   0.188   4.626 -0.1143 -0.0499 -0.1549
23038W        W38507   8.937   0.029   2.495  0.0233  0.0431 -0.2931
23039W        W38508  14.042  18.124  14.318  0.2883  0.0024 -0.0916
23040W        W38509  17.252  10.361   4.202 -0.0439 -0.0124 -0.0542
23041W        W38510  16.710   4.188   6.385  0.1582 -0.4039 -0.1784
23042W        W38511   5.929   9.503  15.938 -0.0221  0.1549  0.0672
23043W        W38512   9.170   7.397   2.388 -0.0231  0.0321 -0.0490
23044W        W38513   6.993   3.197   1.978  0.2363  0.0880  0.0290
23045W        W38514   3.509   5.066   2.284 -0.0665  0.3999  0.0539
23046W        W38515  12.895  15.013  15.052  0.2353  0.1588 -0.1901
23047W        W38516  15.175  14.560  13.455  0.0913  0.0689 -0.2570
23048W        W38517   3.868  16.286   4.967 -0.3318  0.4812  0.1143
23049W        W38518   8.111  13.707   4.108  0.2335  0.1930 -0.0532
23050W        W38519   3.222   9.742   5.253  0.0404  0.1107 -0.0821
23051W        W38520  14.539   2.958   2.020 -0.1170 -0.1964 -0.1459
23052W        W38521  14.523  16.653  15.399 -0.0965  0.0083 -0.0048
23053W        W38522  10.672   4.127  16.017 -0.1330 -0.0491  0.2885
23054W        W38523  12.060  12.407  12.267 -0.2227 -0.2015  0.1276
23055W        W38524   5.742   6.049  12.812  0.0091 -0.0183  0.1114
23056W        W38525   8.813  12.989   4.995 -0.1258  0.0731  0.0426
23057W        W38526   3.375  12.812  13.352  0.0545  0.1279 -0.1366
23058W        W38527  16.048   7.201  14.232 -0.1652  0.2367  0.0821
23059W        W38528   5.607   0.957   5.574  0.2875 -0.3096  0.1411
23060W        W38529   0.385   0.014  12.164 -0.1326  0.0759  0.0783
23061W        W38530   6.137   4.579   0.858 -0.1949 -0.0396  0.2575
23062W        W38531   6.942  17.532   3.138  0.1810  0.3936  0.2092
23063W        W38532  15.638  16.740  10.941  0.3761  0.0452  0.2589
23064W        W38533  12.285   2.441  14.910 -0.0373  0.4432 -0.0725
23065W        W38534  13.090   2.720  11.422 -0.0598 -0.0741 -0.0424
23066W        W38535  12.979  15.954  14.371 -0.3662  0.1365 -0.1624
23067W        W38536  12.416   2.361  13.622 -0.2393 -0.2718  0.0420
23068W        W38537  16.164  15.000   0.485 -0.0158  0.0711 -0.0456
23069W        W38538  15.249  16.247   1.296  0.3181 -0.0240 -0.0147
23070W        W38539   6.099  11.373   1.708 -0.1470 -0.3447  0.2717
23071W        W38540  13.852   6.077  14.613 -0.0034  0.0430  0.3553
23072W        W38541   4.427   0.019  10.061  0.1098  0.3377  0.1523
23073W        W38542   3.095  16.067   4.906  0.0228 -0.3202 -0.0566
23074W        W38543   1.875  12.174   2.307  0.3470  0.0513 -0.0995
23075W        W38544   7.256  14.368  13.612 -0.0206 -0.0644  0.4240
23076W        W38545  12.457  12.685   3.554 -0.2504 -0.5254  0.1308
23077W        W38546   3.680   7.313  14.319  0.2938  0.2807 -0.0740
23078W        W38547   7.062   4.607  13.231 -0.1927 -0.1989 -0.2611
23079W        W38548  11.450   5.927   2.416 -0.0517  0.1462  0.0538
23080W        W38549  12.301   8.042   3.741 -0.1749  0.1200  0.1427
23081W        W38550  10.648   2.966   0.914 -0.0389  0.1255  0.2178
23082W        W38551  17.889   8.191  10.855  0.1656  0.2261 -0.0147
23083W        W38552   4.564  10.194  15.261  0.0855  0.0397 -0.0280
23084W        W38553   9.652   6.162  13.575 -0.0523  0.0053  0.0964
23085W        W38554  10.864  15.130   0.618  0.0366  0.1209  0.0252
23086W        W38555  10.688  10.684   3.126 -0.1126  0.0500  0.0737
23087W        W38556  12.312   9.110   2.456 -0.2945  0.0530 -0.0755
23088W        W38557   0.583   9.902   2.295  0.3792  0.1769 -0.1157
23089W        W38558  12.398  11.299  15.160  0.1510  0.0414  0.0532
23090W        W38559   2.092  10.315   1.770  0.1128  0.0257 -0.1960
23091W        W38560  18.293   7.644   0.431  0.2662 -0.0350  0.0895
23092W        W38561   1.954   5.491   0.610  0.2735  0.1187  0.4736
23093W        W38562   7.291  16.599  11.892 -0.0036  0.1245 -0.2297
23094W        W38563  11.507   6.671   0.273 -0.0858  0.0689 -0.1321
23095W        W38564  14.405   4.275   0.764 -0.0282 -0.1631 -0.2102
23096W        W38565  14.981   6.404  14.162  0.1083  0.0801  0.2479
23097W        W38566   0.381   6.467   3.795  0.1041 -0.0678 -0.1185
23098W        W38567   9.603  13.709   9.886  0.2183 -0.1874  0.2367
23099W        W38568  11.233  13.131  13.828 -0.0285 -0.3089 -0.3974
23100W        W38569  16.600  12.777   5.222 -0.1959 -0.2869  0.1226
23101W        W38570  16.614   2.075   1.752 -0.1388 -0.0538  0.1787
23102W        W38571  12.647   9.919  12.954  0.0902 -0.2800 -0.3164
23103W        W38572   5.695  12.358  12.699 -0.0336  0.1587  0.0747
23104W        W38573  13.700  10.631   1.380 -0.0957 -0.0513 -0.1165
23105W        W38574   1.316  18.385  15.487  0.0214 -0.0556 -0.1212
23106W        W38575   9.291   7.796  11.793 -0.1955 -0.0826 -0.0956
23107W        W38576   6.260  12.354  15.109 -0.1589 -0.1707  0.3803
23108W        W38577   2.445  12.575   1.457 -0.2778  0.3472 -0.2120
23109W        W38578   0.088   9.057  14.902  0.3102  0.0670  0.1012
23110W        W38579   7.876   5.155   3.391  0.0608  0.0779 -0.1268
23111W        W38580   7.813  11.771   4.741  0.1770 -0.0768 -0.0230
23112W        W38581   7.847   1.719   1.753  0.1962 -0.1043 -0.0215
23113W        W38582  16.458   8.736   1.309  0.2350 -0.0503 -0.0083
23114W        W38583   2.451  12.739  11.408  0.1440 -0.0133  0.2349
23115W        W38584   8.439  10.807   1.771  0.1718  0.0756  0.2217
23116W        W38585  14.988  18.230   2.578 -0.1618 -0.0554 -0.1717
23117W        W38586   9.112  14.170   3.762 -0.0349  0.0058  0.1619
23118W        W38587  11.832   9.966  10.698 -0.1604  0.3975 -0.1934
23119W        W38588  17.040  13.256   3.635 -0.1476  0.1261 -0.1114
23120W        W38589   8.920   4.744   0.802 -0.0961  0.0337  0.4560
23121W        W38590   0.461  17.383  13.810 -0.0614  0.0303  0.0193
23122W        W38591   2.120  13.892  14.030 -0.0996  0.0496  0.1322
23123W        W38592  11.655   7.672   0.610  0.1607 -0.0659 -0.1680
23124W        W38593   3.271   0.650  15.045 -0.2271  0.1851  0.0054
23125W        W38594   0.833  17.141   0.592  0.1540 -0.3337  0.1240
23126W        W38595  12.399  13.240   1.703 -0.0118 -0.3702  0.4160
23127W        W38596   8.765   5.158   0.994  0.2788  0.0956  0.2236
23128W        W38597   5.249  11.973  13.295  0.0002  0.1122  0.0712
23129W        W38598  11.773  11.694  15.694 -0.2612 -0.0310 -0.2681
23130W        W38599   4.968  18.382   0.406  0.4761  0.3454  0.0730
23131W        W38600   3.294  10.209  12.262  0.0872  0.2705 -0.0380
23132W        W38601   0.555  10.207   0.461  0.0793  0.0546 -0.0879
23133W        W38602   5.257   0.084   5.302  0.0223  0.0365 -0.1825
23134W        W38603  12.504  11.118  11.437 -0.0272 -0.1066  0.1806
23135W        W38604   0.222   2.730  12.266  0.0681 -0.1265  0.0519
23136W        W38605  10.748  13.672  13.254  0.3447  0.0388 -0.3285
23137W        W38606   5.263   7.758   4.115  0.1748  0.0697 -0.0245
23138W        W38607   9.440   7.020   1.824 -0.1041 -0.1711  0.0236
23139W        W38608  12.199  15.051  11.437  0.0377  0.3204  0.0330
23140W        W38609   0.046   0.585  13.454  0.3267  0.1878 -0.0123
23141W        W38610   2.406   8.505  12.247  0.0970 -0.0540  0.1626
23142W        W38611  12.723  15.267  13.598 -0.2763 -0.1338 -0.0451
23143W        W38612   8.346   3.730  11.019 -0.0995  0.0187  0.1279
23144W        W38613  17.034   1.496  14.377  0.2583  0.2322  0.0652
23145W        W38614   1.021   0.961   3.695 -0.0310  0.0345 -0.1061
23146W        W38615   5.165  16.517  11.266 -0.0510 -0.2220  0.0159
23147W        W38616  14.270  15.547  15.380  0.3044 -0.2781 -0.0095
23148W        W38617   6.382  11.420  15.732 -0.4877 -0.2932 -0.0388
23149W        W38618  14.245   6.282   3.280  0.3888  0.1474 -0.1379
23150W        W38619   3.597   9.952   2.995 -0.1718  0.1617 -0.0370
23151W        W38620   5.872   1.882  15.540  0.0349  0.0362 -0.2812
23152W        W38621  12.404   1.363   3.836 -0.0561  0.1038  0.2003
23153W        W38622   5.624   8.730  13.047 -0.1369 -0.2359 -0.2346
23154W        W38623   9.646   1.182   4.414 -0.1732  0.1333  0.4365
23155W        W38624  16.425   7.728  11.970  0.3506 -0.2941 -0.1430
23156W        W38625  15.606  18.346  13.107  0.1112 -0.0431 -0.0342
23157W        W38626   1.486   9.836   2.151 -0.4011  0.2279 -0.4223
23158W        W38627  13.917  11.942   2.760 -0.1932 -0.0378  0.0848
23159W        W38628  15.726  17.180  15.534 -0.1832 -0.1351 -0.1413
23160W        W38629   7.447  13.825   5.783 -0.1129 -0.0143 -0.0924
23161W        W38630  14.819   9.382  12.274  0.0243 -0.0356 -0.0137
23162W        W38631   9.828   3.881  14.333 -0.0377  0.1696  0.1140
23163W        W38632  16.753   9.287   5.656  0.1327  0.3834 -0.0803
23164W        W38633  10.378  14.822   4.423 -0.0353  0.0918  0.0616
23165W        W38634   0.459  18.297   0.851  0.2388 -0.0801 -0.0852
23166W        W38635  15.107   7.614   0.549 -0.2885 -0.0511  0.0429
23167W        W38636   9.170  17.279  15.824 -0.3990 -0.1469  0.4771
23168W        W38637   5.598  11.439  11.068  0.3543  0.1419  0.1550
23169W        W38638  17.464  16.296   4.671 -0.1624 -0.1202 -0.1069
23170W        W38639   5.235  16.396  10.380  0.0880  0.1286  0.1495
23171W        W38640  15.135   2.373  12.115  0.1212  0.2297  0.2620
23172W        W38641  17.974   4.529   0.711  0.1122 -0.2136 -0.0424
23173W        W38642   1.082  14.658   4.909 -0.0323  0.3855 -0.0009
23174W        W38643   4.764  14.038   6.211 -0.0812 -0.0651 -0.1863
23175W        W38644  18.348  12.831   0.603  0.0988  0.1099  0.0601
23176W        W38645  15.061   3.738   3.742  0.0128  0.2944  0.5114
23177W        W38646   0.331  12.627  10.674 -0.4229 -0.1582 -0.3025
23178W        W38647  17.614   7.061   1.906 -0.0386  0.0678  0.0432
23179W        W38648  10.080   9.404   0.632  0.0514 -0.1655  0.0182
23180W        W38649  10.092   2.814   4.758 -0.0072 -0.2660  0.1457
23181W        W38650   4.530   9.295  10.552 -0.1076  0.2167 -0.0778
23182W        W38651  11.449   1.961   4.017  0.3502  0.1205  0.2218
23183W        W38652  14.930   7.423  11.352  0.1271  0.1131 -0.0660
23184W        W38653   3.508   5.696   0.848  0.1151  0.0175  0.2960
23185W        W38654   1.659  15.202   5.898 -0.0484  0.0829  0.1174
23186W        W38655   3.651  12.254  11.615  0.0088  0.2871 -0.1316
23187W        W38656   7.619   6.156  11.397 -0.1231 -0.1808 -0.0525
23188W        W38657  16.551  11.246   0.240  0.0235 -0.0076 -0.1574
23189W        W38658   7.501   6.775   2.753 -0.0079  0.0991 -0.0429
23190W        W38659   9.485  13.524  14.775  0.1536 -0.1630 -0.0117
23191W        W38660  17.798   5.350   1.040 -0.1127 -0.0332  0.1077
23192W        W38661   6.590  13.114  15.737  0.0283 -0.4120 -0.1520
23193W        W38662  18.434   3.794  11.246  0.1341 -0.2760 -0.2617
23194W        W38663   3.087   3.439  14.024  0.0759 -0.3408 -0.1416
23195W        W38664  15.953  13.438   0.734 -0.0782 -0.0922  0.0326
23196W        W38665  11.430  16.790  12.613 -0.0458 -0.1834  0.4978
23197W        W38666   5.561   2.196  14.162 -0.1283 -0.0196  0.2323
23198W        W38667  18.202  16.554  10.962 -0.2944 -0.1654  0.0118
23199W        W38668   4.916   1.857   1.490  0.0431  0.1628 -0.0872
23200W        W38669   1.555   0.958  15.072 -0.0915 -0.0682  0.0602
23201W        W38670   2.032  15.679   2.258  0.3303  0.2713 -0.1128
23202W        W38671   8.094   6.081   3.938  0.0979 -0.0315 -0.0811
23203W        W38672  15.709  15.471  14.390 -0.3019  0.0288  0.2873
23204W        W38673   9.825   6.260   2.655  0.0492  0.2865  0.1659
23205W        W38674  14.080  15.495  12.942 -0.2631 -0.0083 -0.0966
23206W        W38675  15.680   0.561  14.254 -0.1991  0.0533 -0.0562
23207W        W38676   4.719   4.903   9.707  0.2126  0.1110 -0.1105
23208W        W38677  15.493  16.454  14.222 -0.0979 -0.0357 -0.1042
23209W        W38678   6.879  12.845  10.671  0.1966  0.0915  0.0134
23210W        W38679  13.571  15.377   4.845 -0.1547  0.0740  0.0512
23211W        W38680  15.514  10.991  15.594  0.0137  0.4238  0.0078
23212W        W38681   1.643   5.066  15.639 -0.1006 -0.4826  0.0595
23213W        W38682  16.312   5.803   1.357  0.2774 -0.1662 -0.0265
23214W        W38683  17.718  16.340   3.632  0.1857  0.2512 -0.3829
23215W        W38684   9.950  17.932  15.765 -0.0210  0.3844  0.0851
23216W        W38685  12.446   4.433   5.589 -0.2519 -0.0240 -0.0276
23217W        W38686  15.846   6.083   2.567  0.1526 -0.0433  0.0287
23218W        W38687   4.562   5.615   4.953  0.0952 -0.1537  0.0630
23219W        W38688   3.495   6.095   1.183  0.3065  0.0861  0.0148
23220W        W38689   8.171  17.073   0.710  0.1218  0.0662 -0.0181
23221W        W38690  16.462  18.254   0.010  0.3083 -0.0106 -0.4150
23222W        W38691  18.345   8.194  15.190  0.0083 -0.1540  0.0769
23223W        W38692   7.105   0.543   0.073  0.2294 -0.2122  0.2317
23224W        W38693  12.696   8.197  14.505 -0.1364 -0.1269  0.0661
23225W        W38694  11.779   1.177  10.759 -0.0052 -0.0360 -0.0195
23226W        W38695  11.948   4.763  15.982  0.0099  0.1534 -0.4250
23227W        W38696   8.702   5.551  11.650 -0.4295  0.1608 -0.3263
23228W        W38697   5.589   0.013   3.617 -0.0496  0.2782  0.4339
23229W        W38698   4.011   0.752   1.953  0.0590  0.1528 -0.0602
23230W        W38699  13.350  16.286  13.831 -0.0930 -0.3355 -0.0419
23231W        W38700   5.040  12.758   3.622 -0.0268 -0.0757 -0.3537
23232W        W38701   5.822   4.245   2.926  0.2239  0.5775  0.0056
23233W        W38702  17.287  13.017  12.824 -0.1185 -0.0944  0.1152
23234W        W38703   2.969  15.239   4.359  0.1596  0.1359  0.2040
23235W        W38704   9.064  10.321   0.892  0.2959  0.1911  0.1311
23236W        W38705  17.767   9.744   1.113  0.0516 -0.0308  0.2578
23237W        W38706  12.444   4.950   3.299  0.1588 -0.5118 -0.1201
23238W        W38707   3.615   6.363   3.058  0.3111  0.0404  0.0340
23239W        W38708  13.251   4.068   4.010 -0.1939  0.1377 -0.0842
23240W        W38709   3.937   3.842  10.022 -0.1765  0.5590 -0.0809
23241W        W38710   2.775  11.377   4.318  0.2746  0.1307  0.1034
23242W        W38711  17.973  12.450  13.099 -0.1282 -0.0944  0.0707
23243W        W38712   8.020  16.779   2.046  0.2215  0.4958  0.0515
23244W        W38713  12.961   8.601   5.510 -0.1091  0.1441 -0.1686
23245W        W38714   1.226  11.084   3.240  0.0277 -0.0265  0.2108
23246W        W38715  10.005  10.394   5.198  0.0348 -0.1117  0.2239
23247W        W38716   8.888   5.101  13.114  0.0099 -0.0894  0.1344
23248W        W38717  17.529  16.755   4.492  0.2978 -0.1353 -0.0353
23249W        W38718   6.538  16.405  11.284 -0.1461  0.2597 -0.2030
23250W        W38719   3.596  10.762  10.597 -0.2118 -0.1530 -0.0449
23251W        W38720   9.320  18.294   1.321  0.0090  0.1770  0.3375
23252W        W38721  12.902   2.963   2.148 -0.0646 -0.0164  0.1705
23253W        W38722   7.369  11.159   0.635 -0.0129  0.0013  0.0155
23254W        W38723   7.846   4.162   5.713 -0.0387  0.0551  0.3831
23255W        W38724   7.764  15.218   1.247 -0.1792  0.6030 -0.0271
23256W        W38725   2.120   5.833   1.378  0.4800 -0.0654 -0.1779
23257W        W38726  10.047   3.866  11.569 -0.0948  0.0486 -0.3004
23258W        W38727   9.686   4.665   2.297  0.0791  0.1477  0.0287
23259W        W38728   5.023  13.279  15.068  0.0519  0.0335 -0.0448
23260W        W38729   7.998  14.513   0.159 -0.0123 -0.2123  0.4323
23261W        W38730  11.021  11.521  12.681 -0.0314  0.0423 -0.2565
23262W        W38731   0.171   5.015  15.557 -0.0659  0.3240  0.0404
23263W        W38732   0.630  13.521  15.401 -0.2220  0.1124 -0.0432
23264W        W38733  10.259   0.158  14.196 -0.0822  0.2384 -0.0232
23265W        W38734   8.915   9.000  11.920 -0.1663 -0.2824  0.1337
23266W        W38735  16.471  16.301   2.484  0.1870 -0.3962 -0.0918
23267W        W38736  13.988   5.586  14.442 -0.2811 -0.2239  0.2327
23268W        W38737   2.726   6.384   6.147 -0.1486 -0.0122  0.3153
23269W        W38738   5.995  15.470   2.327  0.0809 -0.2139  0.1756
23270W        W38739  12.147   3.165   3.499 -0.0375 -0.0363  0.1326
23271W        W38740  15.679   6.857  14.326  0.4545  0.1244 -0.1250
23272W        W38741  16.120   3.185   3.632 -0.2454  0.2109  0.1477
23273W        W38742   7.723  17.237   4.334 -0.1024 -0.0338 -0.0685
23274W        W38743  15.815   5.348   0.686  0.2034 -0.1236  0.0240
23275W        W38744   8.903   5.220   3.787  0.0572 -0.2502  0.1892
23276W        W38745  14.385   8.943  12.916 -0.3888  0.1646 -0.2142
23277W        W38746   6.746   3.818  13.470 -0.0833 -0.0872  0.0839
23278W        W38747   2.732   2.180   4.515 -0.1524  0.1123 -0.2125
23279W        W38748   5.387  11.663   5.767 -0.0977 -0.3029  0.0665
23280W        W38749  12.305   0.417  15.872  0.1074 -0.0708 -0.0002
23281W        W38750  14.810   5.667  14.774 -0.1579 -0.1320  0.0415
23282W        W38751   4.016  10.390   0.439  0.3833  0.2365  0.0385
23283W        W38752  11.454  14.230  10.602  0.2373 -0.4596  0.0322
23284W        W38753  13.032  15.004  12.303 -0.0996  0.0191 -0.1927
23285W        W38754  10.482  12.468   1.038  0.2707  0.2491 -0.0514
23286W        W38755  18.221  13.099   5.490  0.1600 -0.0628 -0.2016
23287W        W38756  18.219   5.987  14.744 -0.0812 -0.1032  0.1807
23288W        W38757  17.555  15.710   3.485  0.0171  0.0203  0.2964
23289W        W38758  10.391  14.767   1.348 -0.3121  0.1883  0.1319
23290W        W38759  13.118  13.819   4.876  0.0600  0.1150 -0.1505
23291W        W38760  10.397  13.837   4.909  0.4134  0.1482 -0.1611
23292W        W38761  17.825   6.537   0.588 -0.0031  0.0034 -0.0687
23293W        W38762  13.490  12.829  13.661  0.0046  0.0287 -0.1072
23294W        W38763  13.592   3.773  12.694  0.3129  0.0743 -0.0433
23295W        W38764  14.231   7.132   3.296 -0.2473  0.2892 -0.0454
23296W        W38765   4.431  18.246  15.970  0.1314 -0.0611 -0.1683
23297W        W38766  15.116  10.647  15.681 -0.2215 -0.1035 -0.2211
23298W        W38767   5.104   9.095   1.666 -0.3298  0.1169 -0.1369
23299W        W38768   6.584  13.894   1.866  0.0703 -0.3544  0.2088
23300W        W38769  10.525   7.651   2.488 -0.2910  0.0936  0.0841
23301W        W38770   0.038   8.708   2.840  0.3382 -0.3261 -0.0591
23302W        W38771   7.753   6.749  11.679 -0.1720  0.0461  0.1373
23303W        W38772  11.169  16.728   2.310  0.1573 -0.0420 -0.2800
23304W        W38773  14.421   5.778  13.862 -0.0561  0.3331 -0.0253
23305W        W38774   5.811  14.197   0.562  0.0524 -0.1240  0.1426
23306W        W38775  10.400  17.857  14.147 -0.0519  0.2267 -0.1975
23307W        W38776   1.330   5.509  15.891  0.0568 -0.2101 -0.2108
23308W        W38777   0.270   9.258   2.973  0.0274 -0.2043 -0.1682
23309W        W38778   1.356   8.678   4.602  0.0844 -0.0187 -0.1034
23310W        W38779   6.139   4.915   5.593 -0.4110 -0.2456  0.0062
23311W        W38780  11.384   9.815  15.407  0.1557  0.0848  0.0759
23312W        W38781  15.936   0.661   4.469 -0.1107  0.4334  0.2052
23313W        W38782   7.578  12.829  13.782  0.0195  0.0331  0.2012
23314W        W38783   7.286  16.109   2.806 -0.2794 -0.0175 -0.0387
23315W        W38784   3.547  14.285  15.823  0.0184  0.0438  0.1148
23316W        W38785   5.369  13.294  11.561 -0.2498  0.0120 -0.0969
23317W        W38786   0.993   6.087  14.424 -0.0998  0.0389  0.3030
23318W        W38787   7.073  10.761   3.306  0.0596  0.1306 -0.2221
23319W        W38788  16.745   1.526  13.139 -0.0755  0.1755  0.1919
23320W        W38789  18.185   5.786   0.347  0.0939 -0.0347  0.2418
23321W        W38790  14.314  14.272  14.467 -0.1195 -0.0802  0.2533
23322W        W38791   2.665  13.045  12.846  0.0048  0.1683  0.1438
23323W        W38792   5.702  12.267  11.641  0.0164  0.2860  0.3024
23324W        W38793  16.574   4.123   4.840 -0.1333  0.0719  0.0428
23325W        W38794  12.111  12.500   2.811 -0.0670  0.0800 -0.0413
23326W        W38795   4.705  12.551  12.626 -0.2349 -0.1381  0.1186
23327W        W38796  16.600   8.897  13.993  0.1939  0.1293 -0.0809
23328W        W38797  12.955   2.295   1.719 -0.2186  0.2879  0.0263
23329W        W38798   7.563   9.126   4.911 -0.0870 -0.1419  0.0631
23330W        W38799  18.268  11.799  14.999  0.0087 -0.2929  0.1341
23331W        W38800   6.628  14.348   2.081  0.3306 -0.0497  0.4802
23332W        W38801   4.263  12.146   2.222 -0.1521  0.1156 -0.1938
23333W        W38802  16.443   2.447  13.170  0.0482 -0.1223 -0.0304
23334W        W38803  13.825  11.517   4.686 -0.1386  0.0520  0.3445
23335W        W38804  12.837  15.218   1.937 -0.4488  0.2731 -0.1542
23336W        W38805  17.134   7.441   5.019 -0.2123  0.3306  0.0793
23337W        W38806   7.477   4.990   2.337  0.1475  0.1209  0.2907
23338W        W38807   2.258  10.798   0.246  0.2173  0.0960 -0.0911
23339W        W38808   2.865   5.115   0.251 -0.1348 -0.0420  0.1055
23340W        W38809  17.698  11.938   4.936 -0.0772  0.2672 -0.2575
23341W        W38810  14.850   0.879   1.672 -0.1783 -0.2370 -0.3607
23342W        W38811   7.495   9.067   3.551 -0.2840 -0.2063  0.2192
23343W        W38812  18.289   0.784  14.427 -0.0905  0.0876 -0.1863
23344W        W38813   5.139   6.187   5.470  0.1060 -0.1330  0.1273
23345W        W38814   2.219   3.232   1.820 -0.1015  0.0324 -0.0537
23346W        W38815   0.495   7.669  15.590 -0.0458  0.3190 -0.1163
23347W        W38816  13.543  16.014   2.410  0.2437  0.4110  0.0514
23348W        W38817  14.669   1.591  14.412  0.0675 -0.2090 -0.5473
23349W        W38818  15.320  13.823  12.991  0.1756  0.0702  0.1457
23350W        W38819   8.360  10.103  11.711  0.1307 -0.0144 -0.1219
23351W        W38820  17.476   5.935   0.093  0.1396  0.0436  0.0525
23352W        W38821  14.431   4.963   0.242  0.2027 -0.1078  0.3367
23353W        W38822   6.768   4.873  15.024  0.1431 -0.0197  0.0107
23354W        W38823   6.460   5.294  10.735 -0.2954  0.0257  0.0395
23355W        W38824   7.741   9.273  13.262 -0.2023  0.1935  0.1128
23356W        W38825  17.255   6.491  15.472  0.0284  0.3144 -0.0489
23357W        W38826   6.954  11.250  13.828  0.0578 -0.0886 -0.0514
23358W        W38827   3.510  12.302  12.071  0.1078 -0.3559 -0.2133
23359W        W38828  17.712   9.394   5.926  0.0579 -0.3459  0.2880
23360W        W38829  17.087  11.775  12.347  0.1455 -0.0932 -0.7684
23361W        W38830  16.373   6.252  15.547  0.1712 -0.2502  0.0555
23362W        W38831   2.877  12.841  13.255  0.1321  0.1213 -0.0622
23363W        W38832  16.156   3.705  12.465  0.1068  0.1553 -0.3291
23364W        W38833  12.362   4.518   1.529  0.0152 -0.0212 -0.0931
23365W        W38834  10.639   0.460   2.738 -0.2124 -0.1152  0.2152
23366W        W38835  14.247   5.480  14.897 -0.0722 -0.0262 -0.1095
23367W        W38836   3.234  17.054  10.349  0.0673  0.0006  0.2214
23368W        W38837  16.019   9.242   0.836  0.2642  0.1654  0.0274
23369W        W38838   4.574  13.529  14.655 -0.0085 -0.0842  0.0150
23370W        W38839   3.017  17.289   1.275 -0.0054  0.2966  0.1984
23371W        W38840   1.401   3.297   1.294 -0.0782 -0.1428 -0.1107
23372W        W38841  10.949   6.787  10.831  0.0230  0.1386  0.0267
23373W        W38842  18.159  10.277   2.331  0.0180 -0.0849 -0.1519
23374W        W38843  16.837   4.707  12.210  0.1702 -0.0883  0.2213
23375W        W38844  14.084   8.874  12.395 -0.0803 -0.0087 -0.1986
23376W        W38845   7.106   3.576  12.786 -0.0613  0.0996 -0.1893
23377W        W38846   3.434   5.250  10.861  0.0571 -0.4480 -0.0434
23378W        W38847   5.213  10.301   6.137 -0.1022 -0.1081  0.3585
23379W        W38848   1.970  10.903   4.502 -0.0531 -0.0224  0.0411
23380W        W38849   2.948  18.272  14.933  0.0977  0.0352 -0.1876
23381W        W38850   9.834  13.685  11.766 -0.2137  0.1629  0.0518
23382W        W38851   4.911   2.815  12.736 -0.0397 -0.1178 -0.0925
23383W        W38852   2.431  13.711  13.353 -0.3072 -0.1098 -0.1228
23384W        W38853  15.391  17.671   0.081  0.2328  0.1652  0.0444
23385W        W38854   1.900   7.094  14.870 -0.0711 -0.0919 -0.2029
23386W        W38855   6.372  15.461   2.877 -0.0127 -0.0871  0.2362
23387W        W38856   4.180   4.061   1.113 -0.1316 -0.1504  0.0421
23388W        W38857  14.495  12.642   2.283  0.1224  0.2303 -0.2887
23389W        W38858   7.719  11.346   4.402  0.2374 -0.2219  0.2960
23390W        W38859  13.694  14.951  15.411  0.0420  0.1360  0.1158
23391W        W38860   8.972   3.622  11.958  0.0555  0.0419  0.0131
23392W        W38861  14.759   2.650  14.823 -0.2283  0.0682 -0.1394
23393W        W38862   9.883   9.318  15.131  0.0646  0.0287 -0.1529
23394W        W38863   4.523   9.074   4.872 -0.1811  0.0465  0.2544
23395W        W38864  17.387  11.204   1.475  0.0970  0.0780  0.2272
23396W        W38865  14.285  14.743  15.746  0.0264  0.2153 -0.2714
23397W        W38866  16.399  12.759  14.908  0.0859  0.1776 -0.0309
23398W        W38867   7.720  15.364   0.187  0.1517 -0.3670  0.0849
23399W        W38868   3.501  14.048  11.491  0.0304 -0.2594 -0.0561
23400W        W38869  15.939  15.636   3.240 -0.0547 -0.0806  0.0818
23401W        W38870   9.565   4.138  13.478  0.2121 -0.2604 -0.0628
23402W        W38871   1.648  13.768   0.829  0.2439  0.1536  0.0344
23403W        W38872  10.938   0.633  12.958  0.3255 -0.3571 -0.1796
23404W        W38873  17.443  18.347   0.296  0.2415  0.0125  0.0316
23405W        W38874   5.740  14.467   4.184  0.0509  0.0279 -0.0212
23406W        W38875  10.901   0.682  11.453 -0.1585  0.0837 -0.4555
23407W        W38876  17.625   2.386   2.746  0.1804  0.1373  0.1643
23408W        W38877   2.225   0.935   1.796  0.2601  0.1463  0.0287
23409W        W38878   4.438  18.455   0.368  0.0489  0.0766  0.0803
23410W        W38879  15.913   7.819  13.308 -0.0679  0.0001  0.1792
23411W        W38880   9.822  16.086   1.780 -0.0731 -0.1787  0.4938
23412W        W38881   2.712   5.761  13.558  0.0494 -0.0794 -0.2500
23413W        W38882   1.695  16.136   3.861  0.0870  0.2681  0.0254
23414W        W38883  17.861   8.060   4.928 -0.0370  0.0972  0.0789
23415W        W38884  16.564  11.275   1.736 -0.0780 -0.1785 -0.2546
23416W        W38885  17.275   6.148   0.984 -0.1772  0.0058  0.0036
23417W        W38886  13.228  11.152  14.404 -0.1493  0.1611  0.2810
23418W        W38887   1.164  10.353  14.803  0.1831 -0.1950  0.2412
23419W        W38888   5.208  14.808  15.030 -0.5218  0.3958 -0.0813
23420W        W38889  12.936   9.852  14.673 -0.2372 -0.0922 -0.3272
23421W        W38890   7.784  13.180  10.107  0.0810  0.0147  0.0580
23422W        W38891  10.383   9.880  15.264  0.0472 -0.0234 -0.0855
23423W        W38892  10.983   0.861   0.496 -0.1722 -0.4101 -0.2050
23424W        W38893   3.756  10.831  13.504  0.0441  0.0728  0.0615
23425W        W38894  12.838  17.169  13.037 -0.0049 -0.0307  0.1257
23426W        W38895  11.096   8.374  12.615  0.1059 -0.0690  0.0046
23427W        W38896  10.132   1.346   4.322 -0.2844  0.0849  0.1530
23428W        W38897   9.214  14.159   0.598 -0.0473  0.1875 -0.1337
23429W        W38898  15.434   5.557   1.766 -0.1277 -0.0997  0.0750
23430W        W38899   8.354   2.350  15.835  0.4734  0.1225 -0.0276
23431W        W38900  10.681  13.546   1.908  0.3285 -0.1146 -0.1122
23432W        W38901   3.340  10.119  15.101  0.2972  0.0943 -0.2495
23433W        W38902  17.621   9.318   5.162  0.1591 -0.1696  0.1364
23434W        W38903  12.855  10.426  12.749 -0.0217  0.2918 -0.0580
23435W        W38904   7.155   4.236   2.754  0.1800  0.0295  0.0933
23436W        W38905  13.634   4.290   3.697 -0.1589 -0.1192 -0.0604
23437W        W38906   8.470   6.572  15.666 -0.2360 -0.0144  0.2575
23438W        W38907   8.445   4.273   4.191 -0.0530 -0.0695  0.1311
23439W        W38908  15.412   4.463   6.137 -0.1275  0.0701  0.1042
23440W        W38909  12.311   0.563   0.880  0.0826 -0.1030  0.2573
23441W        W38910   9.275   8.444   2.074 -0.2230  0.1662  0.0071
23442W        W38911  13.462   3.867   2.789 -0.1805 -0.0862  0.0275
23443W        W38912  11.591   9.889   3.351  0.0907 -0.0683 -0.1063
23444W        W38913   6.741  17.802  13.953  0.1465 -0.1317  0.0530
23445W        W38914  18.416   2.045   1.250  0.2315  0.0434 -0.1680
23446W        W38915  17.697   8.843   3.003  0.1446  0.1681  0.0692
23447W        W38916   4.222   4.164   5.952 -0.5650  0.0845 -0.1775
23448W        W38917  11.784   2.440  15.564  0.2285  0.0182  0.0513
23449W        W38918  18.036  13.497   3.098 -0.1339  0.0992  0.4579
23450W        W38919   5.548   7.390  14.719 -0.0462 -0.1660 -0.0721
23451W        W38920  14.808  13.464   4.309  0.3166 -0.2408 -0.2229
23452W        W38921  11.892   0.224   6.052 -0.1002 -0.0748  0.0199
23453W        W38922   3.377   2.916   4.303  0.2236 -0.1483 -0.0287
23454W        W38923   1.994  15.264  15.098 -0.2173 -0.0585  0.0935
23455W        W38924   4.625   5.677   3.890  0.0157 -0.1477 -0.2059
23456W        W38925  12.414  12.905   2.646  0.1102 -0.1922 -0.0524
23457W        W38926   1.301   1.735  12.075 -0.0924 -0.1397  0.1899
23458W        W38927   2.242   6.273   0.501 -0.3616  0.2229 -0.1089
23459W        W38928  14.596   8.375   4.391 -0.4369  0.1140 -0.0311
23460W        W38929   4.187   5.482   0.224 -0.2300 -0.3030 -0.2421
23461W        W38930  15.990   5.557   2.401  0.3602  0.2687 -0.0553
23462W        W38931  12.008  17.949   1.158 -0.0620  0.0110  0.4832
23463W        W38932   3.551   5.521  14.395  0.0872  0.3193 -0.0884
23464W        W38933   1.698  16.191  15.848 -0.0642  0.2854 -0.1225
23465W        W38934   2.543  16.419   2.804 -0.1726  0.1838  0.1251
23466W        W38935  10.007  17.958   3.329 -0.0638 -0.3681 -0.0417
23467W        W38936  13.655  15.822  11.709  0.1279 -0.1471 -0.1894
23468W        W38937  10.410   7.260  13.571 -0.0085 -0.3716  0.1270
23469W        W38938  10.808  10.617  13.853  0.1486  0.0313  0.2744
23470W        W38939   0.923   9.543   0.290  0.1440 -0.3311  0.2687
23471W        W38940   4.947  11.697  14.374 -0.1905  0.4567  0.0667
23472W        W38941   6.534   4.457   4.587  0.0563 -0.1923 -0.0877
23473W        W38942   5.263   9.004  13.401 -0.2366 -0.1269 -0.2068
23474W        W38943  15.266  14.575   0.809 -0.0057  0.3096  0.3068
23475W        W38944   1.183   7.123   0.678  0.2322  0.0709 -0.2221
23476W        W38945  12.767   6.513   3.611  0.2584  0.4073  0.1047
23477W        W38946   1.432  13.451  12.598 -0.1875 -0.3886 -0.3391
23478W        W38947  16.070   1.867  14.989 -0.2943  0.1319  0.2795
23479W        W38948  17.571   5.758   1.803 -0.0169  0.2496 -0.0154
23480W        W38949  17.147   8.907  12.083 -0.2408  0.0336  0.0065
23481W        W38950   1.698  15.513  13.357  0.1276 -0.0103 -0.2700
23482W        W38951  11.922  16.576  12.620 -0.1197  0.1367  0.1720
23483W        W38952  14.219  16.270   3.734 -0.0277 -0.0603  0.0931
23484W        W38953   4.590   0.784  12.689 -0.1723  0.2815  0.0723
23485W        W38954   9.614   9.480  13.767  0.0430 -0.2099 -0.1056
23486W        W38955  15.470   2.201   4.811  0.1108 -0.1014  0.1672
23487W        W38956   9.974   8.851  15.390 -0.0758 -0.1514  0.1345
23488W        W38957   0.374  17.249   1.694  0.0229 -0.0827  0.2168
23489W        W38958  12.122  15.449  15.518 -0.0938  0.0481 -0.1062
23490W        W38959   3.607   9.334  12.316 -0.3042 -0.0639  0.0838
23491W        W38960  16.618   7.988  11.182 -0.2387  0.0408 -0.0180
23492W        W38961   3.685  14.349   1.861 -0.1084 -0.2475  0.0601
23493W        W38962   5.135  10.350   2.579  0.0025 -0.1486  0.0097
23494W        W38963   5.127   0.134  11.534  0.1200  0.4052  0.1092
23495W        W38964   2.145  11.616   3.664 -0.1025  0.0958  0.1152
23496W        W38965   6.902  18.297  15.528  0.1492  0.2119 -0.3370
23497W        W38966  11.276   7.173   2.467  0.1641 -0.0519 -0.2587
23498W        W38967   1.673  10.576   4.209 -0.0503 -0.0434 -0.1522
23499W        W38968   8.996   7.929   3.277 -0.0489 -0.0960 -0.2038
23500W        W38969  17.122   5.633  13.074  0.0402 -0.3155  0.2040
23501W        W38970  16.089  16.951  11.239 -0.0649 -0.0585 -0.1556
23502W        W38971   2.304   2.908   0.381  0.0025 -0.0373  0.0784
23503W        W38972   8.962  13.843   4.675 -0.0229  0.2062  0.2557
23504W        W38973  16.606   1.957  10.731 -0.0481 -0.1321 -0.2145
23505W        W38974   7.368   0.313  14.386 -0.0708  0.1917  0.2725
23506W        W38975  12.433   3.089  14.737 -0.3218  0.0628  0.0618
23507W        W38976   2.639   4.493   4.615 -0.1422  0.0663 -0.3327
23508W        W38977  12.846  10.262  15.647  0.1891 -0.0427 -0.0850
23509W        W38978   6.656   5.049   2.032  0.1106 -0.2260  0.1912
23510W        W38979  15.477  14.575  11.975  0.4134  0.2925 -0.0099
23511W        W38980  16.880   5.781  15.882  0.1120 -0.3843 -0.1299
23512W        W38981  13.113  10.914  14.817 -0.0673 -0.2787  0.3450
23513W        W38982   0.866  11.735   2.430 -0.0455  0.1006  0.3626
23514W        W38983  17.442  18.040   1.594  0.3121 -0.2557 -0.1901
23515W        W38984   3.862  11.797   0.739  0.0124 -0.3388  0.0975
23516W        W38985   5.767   4.189   2.026 -0.1477  0.1142  0.4250
23517W        W38986  16.389  12.921  14.404 -0.2468  0.1169  0.0615
23518W        W38987   1.362  14.881   5.569  0.2954  0.2560 -0.2536
23519W        W38988   3.858   5.178   5.575  0.0708 -0.0670  0.1248
23520W        W38989  16.855   2.981  15.171 -0.0527  0.1176  0.0797
23521W        W38990  13.649   7.955  14.715 -0.1715 -0.4436  0.1084
23522W        W38991  15.170   1.677  14.184  0.1116 -0.2393 -0.1759
23523W        W38992  10.067  11.421  11.045  0.3169  0.1908 -0.0610
23524W        W38993   4.352  14.149   3.046 -0.0882  0.0483  0.1445
23525W        W38994   3.783  12.456  14.202  0.1656 -0.2778  0.0283
23526W        W38995   4.151  17.029  11.013 -0.0729 -0.1705 -0.0462
23527W        W38996   1.096   1.557  12.498  0.1151  0.1873 -0.1544
23528W        W38997   2.594  18.123   9.838 -0.1258  0.1679 -0.2604
23529W        W38998   7.861  10.148   2.057 -0.2422 -0.2341 -0.0070
23530W        W38999   0.819   2.344  11.247 -0.0253 -0.2361  0.0720
23531W        W39000  15.362   7.590  11.073  0.0575  0.2550 -0.0427
23532W        W39001  13.530   5.795   4.372 -0.2669  0.0026  0.0946
23533W        W39002  10.371   2.105  11.397 -0.2132 -0.1337  0.0525
23534W        W39003   8.001   8.871   0.586  0.3051  0.3299 -0.0133
23535W        W39004   2.698   8.137  12.081 -0.1292  0.0865 -0.0237
23536W        W39005  14.858   8.104  12.529  0.1948  0.2594 -0.2096
23537W        W39006   5.626  12.418  14.171 -0.5182 -0.1013  0.1240
23538W        W39007  10.476  16.731   1.197  0.2474  0.3657  0.0584
23539W        W39008  12.983  14.214  15.241  0.0736 -0.0894 -0.0625
23540W        W39009  10.355  18.188  12.652  0.2312 -0.3695  0.0967
23541W        W39010   8.989   8.723   2.446 -0.1246  0.3042  0.0707
23542W        W39011   4.419  14.223  15.843 -0.1358  0.1069  0.0501
23543W        W39012  11.629  14.540  15.584  0.2252 -0.0948 -0.0675
23544W        W39013  13.878   0.492  13.431 -0.1359  0.3452 -0.3541
23545W        W39014   9.241  13.819  13.524  0.0435  0.2319 -0.0264
23546W        W39015  17.722  12.079  11.273 -0.1083  0.0152 -0.0139
23547W        W39016   8.331   6.371  12.533  0.0805  0.2223 -0.2116
23548W        W39017   9.131   9.904  15.520  0.0039 -0.0350 -0.0991
23549W        W39018   5.726  14.798  15.465  0.0489  0.2384  0.2613
23550W        W39019   4.895  17.980   1.779  0.2536 -0.0953 -0.1676
23551W        W39020   4.869   1.646  14.197  0.1054 -0.1600  0.2076
23552W        W39021  13.784  13.084  15.584  0.2698 -0.0181  0.1551
23553W        W39022   6.198   6.156   5.339  0.1167  0.1628 -0.0261
23554W        W39023   1.358  11.338   2.650 -0.0021  0.0328 -0.0304
23555W        W39024  13.912  17.578   3.316  0.1193  0.1729  0.0086
23556W        W39025  14.182  17.608  11.024  0.2171  0.0412  0.1452
23557W        W39026   9.751  13.897   1.434  0.2974  0.2510  0.0968
23558W        W39027   7.979   8.364   3.743  0.0479 -0.0498  0.2246
23559W        W39028   8.523  13.442  13.612  0.1468  0.1020 -0.3374
23560W        W39029   4.795  12.456   0.152  0.0658 -0.3562 -0.0049
23561W        W39030   4.668   0.257   5.936  0.2946  0.1109 -0.2952
23562W        W39031  10.267   8.596  13.153  0.0261  0.0069  0.0031
23563W        W39032  16.038   1.899   3.608  0.3266  0.1077 -0.1515
23564W        W39033  16.359   5.718  11.871  0.0416 -0.1810 -0.1304
23565W        W39034  12.968   4.700  12.016 -0.1156 -0.0737  0.3470
23566W        W39035  17.300   4.487  13.295  0.0284  0.0274  0.0185
23567W        W39036   9.371  17.204   0.882 -0.0973  0.3075 -0.3996
23568W        W39037  13.938   1.338   5.682 -0.0874 -0.0094  0.1701
23569W        W39038   4.081  16.052   4.266  0.3032 -0.2668 -0.2853
23570W        W39039  10.429   4.699   3.219 -0.0034  0.1352  0.2198
23571W        W39040  12.292   0.436   5.161 -0.0465  0.1208  0.1444
23572W        W39041   7.363   1.093   1.495  0.2098  0.1253 -0.2585
23573W        W39042   3.459   0.011  14.232 -0.0184  0.2011 -0.2489
23574W        W39043  11.604   1.237   5.052 -0.1474 -0.2363  0.3060
23575W        W39044   4.313   7.281  13.531 -0.0598  0.2787  0.1791
23576W        W39045  11.374  13.341  15.767  0.1277  0.0469 -0.0898
23577W        W39046   7.943  16.164  12.204 -0.4154 -0.0882 -0.1527
23578W        W39047   3.073   2.956  14.144 -0.1346  0.0584 -0.1087
23579W        W39048   6.345  13.721  10.434  0.1872  0.1513 -0.0719
23580W        W39049   1.504   7.652  12.463 -0.1883 -0.0247 -0.3223
23581W        W39050   9.888  10.891  13.348 -0.0555 -0.3147 -0.1959
23582W        W39051   9.078   7.130  14.639  0.2013 -0.4367 -0.2141
23583W        W39052   0.253   1.464  13.701  0.0156 -0.3314 -0.0596
23584W        W39053  17.431   6.301   2.769 -0.2610 -0.1082 -0.0951
23585W        W39054   2.491   4.059  14.777  0.0234  0.0790 -0.0631
23586W        W39055  11.244   8.045  14.560 -0.0486  0.0868  0.1208
23587W        W39056   1.080  14.288  15.487  0.2404 -0.2331 -0.1392
23588W        W39057   7.123   4.799   3.361  0.0022 -0.0475  0.1309
23589W        W39058   1.936  14.382  15.493  0.1353  0.0579  0.0821
23590W        W39059   4.075   6.252  14.793  0.2129 -0.0479  0.1654
23591W        W39060  12.609  18.429   4.345  0.0800  0.1392 -0.3362
23592W        W39061  13.947   6.943   5.865 -0.0934  0.3995 -0.0405
23593W        W39062   7.278   4.722   0.237 -0.0709  0.1275 -0.0510
23594W        W39063   8.968  10.668   3.512  0.0840 -0.3363 -0.0274
23595W        W39064   4.644  14.559   4.057 -0.1912 -0.2884  0.0951
23596W        W39065  17.446  11.039  12.738  0.0448  0.3325 -0.0972
23597W        W39066   1.607   5.784  10.629  0.0051  0.0552 -0.1064
23598W        W39067   7.150   6.466   0.348  0.2167 -0.2429  0.1047
23599W        W39068  17.577   3.451   2.055 -0.2774 -0.1535 -0.1579
23600W        W39069   7.581   9.437  13.691  0.1897  0.2534 -0.1705
23601W        W39070  17.241  13.310  12.061  0.3016  0.0294  0.1334
23602W        W39071   3.657  14.460   0.430  0.3108  0.1462  0.2406
23603W        W39072   3.855  16.667  11.486  0.2470 -0.1877 -0.2295
23604W        W39073   6.258   5.816   2.336  0.0144 -0.1110 -0.1455
23605W        W39074  15.122   3.437  13.349 -0.1577 -0.4035 -0.2420
23606W        W39075  15.312   4.725  14.287  0.1925 -0.0925 -0.3309
23607W        W39076  15.847  18.056   0.749 -0.0662 -0.0963 -0.0121
23608W        W39077  15.520   8.058   2.235 -0.0163 -0.0316  0.0403
23609W        W39078   4.225   7.113   4.752  0.3218 -0.4534  0.0454
23610W        W39079   2.336   4.021  14.303  0.1712 -0.1496  0.1568
23611W        W39080  16.977  18.020  13.749  0.0847 -0.1006 -0.0242
23612W        W39081   8.941   4.326  14.210  0.0234  0.0534  0.0367
23613W        W39082   2.094   5.873   1.953 -0.0352  0.0650 -0.0091
23614W        W39083  18.387  12.501  10.342  0.0223  0.0501 -0.1040
23615W        W39084   1.457   0.443   5.499 -0.1552 -0.2146  0.1111
23616W        W39085  13.172  16.825  13.089  0.1449 -0.2432 -0.0492
23617W        W39086  11.374  15.836  14.960  0.1062 -0.2223 -0.2048
23618W        W39087   8.009   5.563   5.359 -0.3021  0.1158  0.2105
23619W        W39088   5.576   1.473  14.009  0.0714 -0.2360  0.1331
23620W        W39089   1.167   7.064   4.182 -0.0936  0.0673 -0.0405
23621W        W39090   4.202   2.444  11.081  0.3676 -0.0079  0.0964
23622W        W39091   8.189  14.110   1.449 -0.1399  0.0332 -0.1303
23623W        W39092   0.274  10.708   1.716 -0.1421  0.0438  0.0446
23624W        W39093  17.373  10.273   4.757 -0.1375 -0.0377 -0.2020
23625W        W39094  13.859  17.585   4.494  0.2105 -0.0628  0.1051
23626W        W39095  12.094   4.409   0.365  0.2629  0.0042  0.0878
23627W        W39096   9.031   0.503   4.160  0.3030  0.1217  0.0530
23628W        W39097  10.955  17.292  11.876 -0.1025  0.1092  0.3648
23629W        W39098   7.750  15.316  12.457 -0.4171  0.2052 -0.1077
23630W        W39099   8.915  10.855  16.009 -0.1558  0.1895  0.0197
23631W        W39100   6.766   9.223   4.192  0.1463 -0.0368  0.0456
23632W        W39101  18.074  13.242  12.378 -0.1591 -0.0617 -0.0556
23633W        W39102  11.476   3.641   4.285  0.0552  0.1292  0.1009
23634W        W39103   2.061   2.712   2.398  0.0475  0.0171 -0.1325
23635W        W39104  11.735  16.297  15.967  0.2087 -0.1627  0.0152
23636W        W39105  15.404   8.816   0.324 -0.0362  0.0689 -0.0170
23637W        W39106   5.449   0.877   3.070 -0.3065  0.1160  0.2230
23638W        W39107  10.338  16.829   0.614  0.2853 -0.1312 -0.2641
23639W        W39108  16.726   9.235  11.025  0.1796  0.3077 -0.2505
23640W        W39109  13.519  16.402  15.245  0.1703  0.0318  0.1856
23641W        W39110  10.817  14.091   2.053  0.2980 -0.1000 -0.4525
23642W        W39111  17.236   9.948   3.200  0.1297  0.2072  0.1041
23643W        W39112   5.665   6.862   5.630  0.0172  0.1758  0.2147
23644W        W39113  11.845  14.917   2.101  0.0228 -0.3347  0.2646
23645W        W39114   3.243   1.450  12.272  0.0498  0.2773 -0.1069
23646W        W39115  17.556   2.235  15.226  0.1172  0.3213  0.1416
23647W        W39116  14.295  17.161  11.336  0.1186 -0.0168  0.1362
23648W        W39117  16.315   8.641  12.929 -0.1254 -0.1133  0.2626
23649W        W39118  10.079   3.565   5.692  0.0177 -0.1304  0.0927
23650W        W39119   4.484  17.716  12.802 -0.0449  0.2900  0.1224
23651W        W39120  18.137  16.012   1.983 -0.0782 -0.0626 -0.0968
23652W        W39121   5.490   1.670   1.970  0.1969 -0.3805 -0.1828
23653W        W39122  17.515   9.431   4.333  0.1194  0.2456 -0.0345
23654W        W39123   2.950  13.355   1.338  0.1952  0.0461 -0.1435
23655W        W39124   4.948  16.672   2.132  0.0823 -0.0477 -0.0636
23656W        W39125   5.217   1.542   0.854 -0.1298  0.4794 -0.0474
23657W        W39126   9.556   6.706   4.266  0.0393  0.1145 -0.1552
23658W        W39127   7.321   5.674  11.400 -0.0903 -0.3053  0.1043
23659W        W39128   6.648   5.475   2.430 -0.1788  0.1401  0.1510
23660W        W39129  15.822  12.137   0.675 -0.1260 -0.3544  0.2269
23661W        W39130  15.100   1.331   3.606 -0.2283 -0.1656 -0.1382
23662W        W39131   5.393  15.460  14.188 -0.0747 -0.1001 -0.0671
23663W        W39132   1.245  15.942  15.032 -0.0917  0.0262 -0.3629
23664W        W39133   2.392   6.046   5.953  0.1637  0.0549 -0.3615
23665W        W39134   3.731   2.158  10.672  0.2839  0.0115 -0.1407
23666W        W39135   8.334   8.217  14.991  0.1984  0.0133 -0.3942
23667W        W39136   1.406  10.117   4.057  0.1670 -0.0680  0.1898
23668W        W39137  12.673   4.181   3.083 -0.0923  0.2842  0.0122
23669W        W39138  16.886   6.991   4.945 -0.2143  0.1612 -0.2830
23670W        W39139  12.261  15.160  13.537  0.1124 -0.0443 -0.0437
23671W        W39140   5.519  10.812   4.741  0.0859 -0.0930  0.0222
23672W        W39141  15.114  12.040  11.716  0.2061 -0.1739  0.0302
23673W        W39142  14.617  13.731  15.681 -0.0899 -0.1406  0.2212
23674W        W39143   5.396   3.421  13.530 -0.0373 -0.0950  0.1750
23675W        W39144   4.950   0.753   4.899  0.1689 -0.3447 -0.0947
23676W        W39145  10.970  14.795   1.318  0.1824  0.0001  0.0059
23677W        W39146  11.880   7.084  11.473  0.1088 -0.3511 -0.0297
23678W        W39147   3.041   1.600   0.441 -0.0549 -0.1601 -0.1048
23679W        W39148  13.736  17.014  13.096  0.0621 -0.1046 -0.2947
23680W        W39149  10.849   9.363   5.181 -0.2938 -0.1839  0.3301
23681W        W39150  17.440   0.914  14.462 -0.0311  0.3062  0.3634
23682W        W39151   7.767  14.982   3.777  0.2255  0.0151  0.1927
23683W        W39152   5.339   2.589   2.272 -0.0941 -0.0363 -0.0515
23684W        W39153  13.512  13.472   5.106 -0.0853  0.2689 -0.2300
23685W        W39154   2.236   9.971  13.232  0.1946  0.0049  0.0333
23686W        W39155  12.096   8.645  13.458 -0.1127  0.0630 -0.1491
23687W        W39156   9.407  14.131   0.147 -0.2140  0.1987 -0.1210
23688W        W39157   7.032   7.139  15.656 -0.1524  0.0714  0.2432
23689W        W39158   1.315   1.591  11.580  0.0549  0.1531 -0.3820
23690W        W39159  11.891   9.240  12.604 -0.1250 -0.1362  0.0700
23691W        W39160  18.064   8.878   2.696  0.1138  0.2840  0.1744
23692W        W39161   2.351   1.494  12.329 -0.2598  0.0010 -0.2413
23693W        W39162   5.575   0.024  14.105 -0.2275  0.1164  0.1973
23694W        W39163  10.619  10.232  13.153 -0.1458 -0.1950  0.0527
23695W        W39164   0.645  13.098   5.348 -0.0076  0.0295 -0.1268
23696W        W39165  15.968  15.097  13.313  0.0858 -0.0892 -0.0631
23697W        W39166   1.286   4.050   5.399 -0.2751 -0.0025  0.1690
23698W        W39167  12.492  12.000  13.641  0.2175 -0.0233 -0.1310
23699W        W39168  17.423   4.698   1.431  0.1279  0.0236 -0.2611
23700W        W39169  10.185  12.585  10.570 -0.0990  0.2310  0.1780
23701W        W39170  16.931  13.756   3.621 -0.0645  0.0758 -0.1447
23702W        W39171  11.691  16.232  11.867  0.0576 -0.3263 -0.1919
23703W        W39172   2.755  14.657   0.864 -0.0004  0.0048  0.2289
23704W        W39173   4.558   5.089   4.975  0.0405  0.1360 -0.0880
23705W        W39174  17.422   6.910   3.749  0.2503  0.1141 -0.1512
23706W        W39175   8.880   2.279   5.537  0.1845 -0.3544 -0.1269
23707W        W39176   7.762   9.741   0.629  0.0915 -0.1058  0.0668
23708W        W39177   4.604  11.570   1.558  0.0105  0.2931  0.2330
23709W        W39178  15.008  12.881  10.701  0.3233  0.0995 -0.0919
23710W        W39179   7.278   0.157   0.323 -0.0629  0.0465 -0.3381
23711W        W39180   9.387  17.178   4.503  0.0657  0.4906 -0.1446
23712W        W39181  10.407   9.334   4.953  0.1056 -0.0635  0.2859
23713W        W39182  16.333  10.594   1.061  0.4402 -0.0790  0.0670
23714W        W39183   6.374   8.799  11.586  0.1590  0.1208  0.1058
23715W        W39184   3.608   3.472   2.870 -0.0706  0.1773  0.1398
23716W        W39185   7.483   0.013  10.284  0.0176 -0.0179 -0.3081
23717W        W39186   0.345   5.330   1.241 -0.5788  0.2089 -0.0125
23718W        W39187   6.536  17.804   1.224  0.0588 -0.0634  0.0337
23719W        W39188  14.371  11.512   1.408 -0.2331  0.1300 -0.2120
23720W        W39189   5.401   6.689   4.313 -0.1531 -0.0729 -0.0599
23721W        W39190   8.298   5.384   3.255 -0.1731  0.0056 -0.0330
23722W        W39191   3.536  13.871   6.294  0.3658 -0.0817 -0.0943
23723W        W39192   4.729  10.923  12.953 -0.0836  0.0453 -0.1283
23724W        W39193   7.343   5.135  14.212 -0.1834 -0.2956 -0.0616
23725W        W39194  17.287  13.177   1.867  0.1019 -0.3228 -0.1416
23726W        W39195   6.817   9.077   4.742  0.0576 -0.0612  0.0154
23727W        W39196  12.705   9.604   4.747  0.0307  0.2285 -0.2895
23728W        W39197  14.647  17.625  10.730  0.0619  0.2411  0.3117
23729W        W39198  10.660   0.480  14.801 -0.0346 -0.1127  0.1079
23730W        W39199   0.600   4.586  12.668  0.5412  0.1366  0.0958
23731W        W39200   7.453   3.836   3.489  0.1680 -0.1610 -0.1691
23732W        W39201  11.234   4.599  12.681  0.1953  0.0020  0.0965
23733W        W39202   6.062   8.046  15.360 -0.3555 -0.1248 -0.2952
23734W        W39203   2.388  12.991  13.240 -0.1530  0.2491 -0.4390
23735W        W39204   1.352  11.470  14.055 -0.3073 -0.0880  0.2112
23736W        W39205  12.514  16.482  12.638 -0.2216 -0.0312 -0.0537
23737W        W39206   7.418  10.567   1.496 -0.0249  0.1885  0.0467
23738W        W39207  11.485  17.486   4.295 -0.4661 -0.1371  0.1567
23739W        W39208   3.324   5.937  13.415 -0.0309 -0.0105 -0.0880
23740W        W39209   4.536   6.995   1.785 -0.0280 -0.0554  0.0931
23741W        W39210  12.880  16.857   4.947 -0.4013  0.1557 -0.0376
23742W        W39211   0.896  16.501  15.955  0.1010  0.0367  0.2755
23743W        W39212  13.481   1.183   0.283  0.1865  0.2759  0.0201
23744W        W39213  14.592  17.878   0.339  0.0009 -0.1538 -0.0177
23745W        W39214   3.474  16.332  14.947 -0.0920 -0.0252  0.1131
23746W        W39215   9.759   8.296   2.941 -0.1602  0.2151  0.1054
23747W        W39216   6.795  11.990  15.962  0.1194 -0.1052 -0.0051
23748W        W39217   3.862  12.011   5.156  0.2098  0.1634 -0.0562
23749W        W39218   2.019  15.472   1.585  0.0154  0.1432  0.3343
23750W        W39219  18.293  11.317   1.871  0.0749 -0.1406  0.0817
23751W        W39220  18.392   5.342  10.556 -0.2761 -0.0457  0.1024
23752W        W39221   2.257  15.406  11.834 -0.0569 -0.0373  0.0644
23753W        W39222   1.083   2.879   0.076  0.1534  0.0289  0.0517
23754W        W39223   7.668   1.501  11.459  0.0010 -0.3455  0.0248
23755W        W39224   3.174  13.355  11.143 -0.0940 -0.3038 -0.0457
23756W        W39225  10.890   8.549  12.183  0.3784  0.0665  0.0211
23757W        W39226  17.598   3.631   0.271  0.0929 -0.0680 -0.2155
23758W        W39227   6.122   4.034  11.813 -0.3790  0.0114  0.2284
23759W        W39228  11.431   9.804   0.112  0.1405 -0.1606 -0.1965
23760W        W39229   8.767  14.798   1.992  0.4135 -0.2291 -0.2891
23761W        W39230  15.908   4.860   3.698  0.0416  0.0195  0.0298
23762W        W39231  13.448   3.365  10.290 -0.0080  0.0834 -0.4360
23763W        W39232  16.627   7.716   3.514  0.3080 -0.1546  0.0580
23764W        W39233   2.482   4.030   2.084 -0.0523  0.1420  0.0519
23765W        W39234  11.956   6.178  12.088 -0.1195  0.0635  0.0685
23766W        W39235  16.357  15.599   1.183 -0.0065 -0.0786  0.0021
23767W        W39236  12.174   7.110  12.281  0.2892 -0.1090 -0.1779
23768W        W39237  13.479  12.233   5.831  0.0505  0.1633  0.0722
23769W        W39238   6.490   4.307  12.795 -0.0089  0.1345  0.0571
23770W        W39239   5.001  10.438  15.372  0.0348  0.0504  0.2731
23771W        W39240  13.289   5.824   5.876 -0.2109 -0.2694  0.5559
23772W        W39241   0.777  11.979  14.614  0.1955 -0.0480  0.3410
23773W        W39242   4.380   8.691  14.999 -0.1840  0.0444  0.0738
23774W        W39243   1.265  10.099  15.683 -0.2046 -0.2118  0.4299
23775W        W39244   6.850  13.075   4.832 -0.0897  0.1497 -0.0648
23776W        W39245   5.427   4.471   2.816  0.0334 -0.0880  0.0189
23777W        W39246   5.930   2.539  14.026 -0.0055  0.0846 -0.2254
23778W        W39247  16.535   3.647   2.128  0.2286  0.2269 -0.0477
23779W        W39248  14.508  18.094  11.360 -0.0192 -0.0184 -0.1086
23780W        W39249   6.712  10.135  13.305  0.1297 -0.2400 -0.1018
23781W        W39250  17.985  18.188  13.519 -0.2256  0.0319  0.0332
23782W        W39251  12.067   6.224   4.542  0.1498  0.0799  0.0047
23783W        W39252   5.825   0.412  14.025 -0.0276 -0.1531  0.2273
23784W        W39253  13.741   2.970   2.607 -0.0062  0.2191 -0.0504
23785W        W39254  15.286  17.885  14.003  0.2560 -0.1052  0.0345
23786W        W39255   2.945  14.626  13.273  0.1404 -0.4185  0.0585
23787W        W39256   5.109   2.237   0.218 -0.0773  0.0105  0.1614
23788W        W39257  17.802  12.355   4.767  0.0021 -0.1766 -0.0131
23789W        W39258   8.570  16.331  13.000 -0.2886  0.3302 -0.2939
23790W        W39259  10.624  14.098  14.695 -0.0803  0.2077 -0.1767
23791W        W39260   6.465   9.576  15.539 -0.0428 -0.3326  0.0798
23792W        W39261   2.289  12.226  12.589 -0.1468 -0.1141  0.1280
23793W        W39262  14.669  13.704   0.919  0.0974  0.1500  0.0374
23794W        W39263  12.333   6.331   1.156  0.0220 -0.1774 -0.0676
23795W        W39264  14.466   3.430   0.600 -0.0087 -0.0763 -0.2618
23796W        W39265   7.759   8.446  15.884 -0.0208 -0.1665 -0.1934
23797W        W39266   9.928   1.630  13.974  0.1102  0.0592 -0.1194
23798W        W39267  11.309   1.109  14.409 -0.0874 -0.1314 -0.1119
23799W        W39268  16.303  15.252  14.244 -0.3844 -0.1167 -0.0430
23800W        W39269   4.683  10.573   2.220  0.0643 -0.0593 -0.0447
23801W        W39270  18.229  10.167  11.626 -0.0352 -0.1428  0.2444
23802W        W39271  16.726  14.860  15.900  0.0404 -0.1853 -0.3651
23803W        W39272   3.310  15.380  14.170 -0.1038 -0.1572 -0.0438
23804W        W39273  14.059  13.109  15.977  0.1435  0.1161 -0.2095
23805W        W39274   7.947   1.112   0.845 -0.2245 -0.1288 -0.4327
23806W        W39275   1.959  10.153  14.991 -0.1447 -0.2022 -0.1175
23807W        W39276   1.572  13.108   1.438  0.0862 -0.4003 -0.1067
23808W        W39277  15.000  12.251  15.299 -0.2258 -0.0186  0.1266
23809W        W39278  12.812  12.079   5.029 -0.3061  0.0417 -0.0237
23810W        W39279   7.237  17.030   0.791 -0.0850 -0.2342 -0.0375
23811W        W39280  13.214   4.557   3.979 -0.0761 -0.3303  0.1320
23812W        W39281   6.972   2.289   5.394 -0.1423  0.3006 -0.3327
23813W        W39282   8.142  14.918  15.902 -0.0757  0.0926 -0.1520
23814W        W39283   6.981   6.992  11.068  0.2136  0.3688 -0.0966
23815W        W39284  17.685   0.436  14.132 -0.0534 -0.0076  0.1143
23816W        W39285   6.292   3.575  11.650  0.2255 -0.0663  0.1593
23817W        W39286  15.524  13.810  13.988 -0.0250  0.0650  0.0341
23818W        W39287  18.275   0.396   3.501 -0.1981  0.1329 -0.0553
23819W        W39288   9.950  16.080   2.301  0.2814  0.0473  0.1463
23820W        W39289   9.204  14.928  10.826  0.1819 -0.2498 -0.0358
23821W        W39290  13.966  17.533   0.809  0.3505 -0.1733  0.1307
23822W        W39291   7.579   5.525   3.738  0.1138 -0.0689  0.1900
23823W        W39292  14.779  10.222  14.988 -0.0399  0.3620 -0.0900
23824W        W39293   6.521   6.592  12.417  0.0162  0.2035 -0.1207
23825W        W39294  10.452   8.600  14.558  0.1974 -0.0441  0.1535
23826W        W39295   2.235  17.734  11.341 -0.2732 -0.0215 -0.2472
23827W        W39296   2.208  12.806  15.644  0.3195 -0.0446 -0.0869
23828W        W39297  13.998   9.588  14.982 -0.0913  0.1248 -0.0371
23829W        W39298  18.375   8.423  14.130 -0.0285 -0.0023  0.2638
23830W        W39299  12.914   8.122  11.250 -0.4753  0.0447  0.2018
23831W        W39300   7.521  15.013   5.094  0.2496 -0.0952  0.0789
23832W        W39301   9.884  17.897   3.914 -0.0330  0.1145 -0.1748
23833W        W39302   5.472   0.419  11.883 -0.1778 -0.2136  0.2307
23834W        W39303  17.055   7.444   3.570  0.3881  0.0191 -0.0347
23835W        W39304  15.731   1.762  15.318  0.2179  0.0114 -0.1413
23836W        W39305   7.486   9.530  11.875  0.0908 -0.2051  0.0327
23837W        W39306   6.898  15.954  10.522  0.0842  0.1362  0.0367
23838W        W39307  11.517   3.638   0.819  0.0223  0.2675  0.2283
23839W        W39308   9.232   1.893   4.847 -0.0705  0.0005  0.0774
23840W        W39309   0.444  13.745   4.389 -0.1865 -0.0846  0.0410
23841W        W39310   8.467   1.032  13.084 -0.1832  0.0492  0.1204
23842W        W39311  10.866   2.362  12.078 -0.0962  0.1763  0.3662
23843W        W39312   7.126  13.524   4.867  0.1651  0.1664 -0.0167
23844W        W39313   1.467   9.474  12.270  0.0314  0.1935  0.1597
23845W        W39314  12.194  17.906   0.119 -0.3000  0.0656  0.0147
23846W        W39315  13.994  11.079   3.882  0.0474  0.1223 -0.2425
23847W        W39316  17.130  15.319  13.687  0.0426  0.1415 -0.0256
23848W        W39317   2.027  11.172  12.505  0.0118  0.0308 -0.0430
23849W        W39318   7.319  10.981   3.778 -0.1767 -0.4088 -0.3588
23850W        W39319   2.255   3.693  12.936  0.1242 -0.0054  0.1067
23851W        W39320   4.642   9.722   1.209  0.0495 -0.1538 -0.0479
23852W        W39321   9.235  17.788  14.397  0.5958  0.1532  0.0799
23853W        W39322  18.302  13.382   4.377  0.1360  0.1979 -0.0290
23854W        W39323  12.543   0.885  12.862 -0.0267  0.1672 -0.1615
23855W        W39324   0.674   7.639   0.199 -0.1674 -0.0418  0.1843
23856W        W39325  11.394  13.324   1.849  0.2417  0.2070 -0.2466
23857W        W39326   5.670  14.315  12.037  0.2377 -0.0336  0.1214
23858W        W39327   2.546   7.283   0.797 -0.2358 -0.2902 -0.0790
23859W        W39328   7.885  13.765  10.637  0.0604 -0.2194  0.0466
23860W        W39329   3.862  15.776   1.658  0.1140  0.0290 -0.2710
23861W        W39330   3.126   2.971   4.916 -0.0298  0.1463  0.4117
23862W        W39331  14.451   8.807  11.190  0.0348 -0.1587 -0.1003
23863W        W39332   9.191  16.189   4.595 -0.3208  0.2593 -0.0558
23864W        W39333   0.819   3.222   6.566  0.0024 -0.2555 -0.2660
23865W        W39334  15.603   8.890  15.533  0.1692  0.0692 -0.1280
23866W        W39335  16.837   4.247   0.217  0.1078  0.0831 -0.1193
23867W        W39336   2.203   6.453   2.776  0.1628 -0.1643  0.0070
23868W        W39337  11.305  14.184  12.935  0.5102  0.1367 -0.0397
23869W        W39338   3.118  13.539   5.526  0.1395 -0.0687  0.1980
23870W        W39339  15.153  14.445   4.538  0.1681 -0.1554  0.0605
23871W        W39340  15.490  15.224   5.819  0.2808  0.2873 -0.0549
23872W        W39341  15.835  11.713   1.956 -0.5937  0.2182 -0.1489
23873W        W39342   3.115   5.270  14.601 -0.1046  0.1107  0.2133
23874W        W39343   9.442   6.879  14.391 -0.0988  0.0564 -0.3675
23875W        W39344  14.555  14.104  11.344  0.0936  0.2612  0.0164
23876W        W39345   3.356  13.849   4.610 -0.0801  0.0217 -0.1039
23877W        W39346   5.785   3.432   1.749  0.0012 -0.2095 -0.1819
23878W        W39347  14.110   4.752  11.210  0.0017  0.0894 -0.3134
23879W        W39348  12.213  12.435  15.383 -0.1633  0.2017 -0.1200
23880W        W39349  17.494  16.848  13.115 -0.0347 -0.1327 -0.0849
23881W        W39350  18.155  15.064   0.154  0.3423  0.0444 -0.0238
23882W        W39351   7.991   6.616  12.325  0.0394 -0.0313 -0.0250
23883W        W39352   8.606  16.160   0.564 -0.1905 -0.0038 -0.2912
23884W        W39353   2.559   6.302   0.115 -0.1410  0.2767 -0.0827
23885W        W39354  18.055  13.049   2.899 -0.0196  0.2450  0.1097
23886W        W39355   9.448  14.196   5.444  0.1014  0.4273 -0.0505
23887W        W39356  17.032   6.385   2.336  0.0260 -0.1071 -0.2970
23888W        W39357   7.184  13.939  15.582 -0.0747 -0.3322  0.0598
23889W        W39358  16.007  15.638  10.049 -0.1205  0.0499  0.1866
23890W        W39359  10.179  13.437  10.618  0.2285  0.0558 -0.3584
23891W        W39360  15.974  13.119  11.781  0.1785 -0.2029 -0.3087
23892W        W39361  11.508   1.929  12.999 -0.1087  0.0713  0.0114
23893W        W39362  14.067  13.861  10.503  0.2446 -0.1185 -0.0749
23894W        W39363  14.117   9.410  13.314 -0.0735 -0.0073 -0.3085
23895W        W39364   3.604   2.464  11.876 -0.1266 -0.3119 -0.0654
23896W        W39365   0.680  11.545  13.330  0.2261  0.2274  0.0638
23897W        W39366   6.032  14.833  12.699  0.2254  0.0450 -0.1187
23898W        W39367   4.772  11.704  12.532 -0.1455  0.1274  0.0317
23899W        W39368  13.364   5.186   3.318  0.0366 -0.0352  0.1962
23900W        W39369   4.037  12.624  13.798 -0.4027  0.0868 -0.2003
23901W        W39370   1.073  13.300   2.329 -0.0304 -0.0451 -0.0158
23902W        W39371  17.959   8.036   0.459  0.1498  0.1948 -0.1287
23903W        W39372   2.752  18.177  14.377  0.3588  0.1250 -0.2219
23904W        W39373  17.520  13.104   3.667 -0.0780 -0.2993  0.0100
23905W        W39374   9.085   8.803   2.946  0.1325 -0.1289  0.1065
23906W        W39375  13.700  12.410   5.051  0.2434 -0.1491 -0.2207
23907W        W39376  13.172  15.283   4.131 -0.2555 -0.0838  0.1876
23908W        W39377   5.503  10.288  10.267 -0.0055 -0.2775 -0.3478
23909W        W39378  13.886   4.206   0.675  0.1212  0.1859 -0.0874
23910W        W39379  10.483   3.057  15.103 -0.3340  0.2882 -0.1561
23911W        W39380   0.170   6.183  15.049 -0.1367  0.1108 -0.1736
23912W        W39381   1.399   8.552  14.842 -0.0296  0.3713  0.0209
23913W        W39382   0.202  12.288   1.878 -0.1100 -0.2029  0.0513
23914W        W39383   7.070   7.073   2.651  0.0315  0.0714  0.0601
23915W        W39384  14.538  12.404   0.207 -0.2538 -0.1166  0.1974
23916W        W39385   2.706   7.167   1.705  0.3773 -0.0235 -0.0289
23917W        W39386  17.002   0.627   3.371  0.0199 -0.0335  0.0471
23918W        W39387  12.635  13.179   0.918 -0.0200 -0.1645 -0.1141
23919W        W39388  12.462   7.933  11.537 -0.2983  0.1247  0.0579
23920W        W39389   5.300  14.100   3.334  0.0724  0.2981  0.0128
23921W        W39390   5.448  17.236  14.750 -0.0805 -0.3533 -0.3048
23922W        W39391   3.933   0.754  13.979 -0.2633  0.0836 -0.0152
23923W        W39392   9.370   4.148   0.819 -0.0785  0.1408  0.4080
23924W        W39393  11.233  12.671  15.552 -0.0512 -0.0926 -0.2893
23925W        W39394   7.608   5.464  14.923 -0.1049  0.0859 -0.1391
23926W        W39395  15.115  15.244  15.575  0.1922  0.1745  0.1416
23927W        W39396   1.952   5.414  12.853 -0.1578 -0.1836  0.0392
23928W        W39397  15.648  13.060  15.159 -0.1399  0.1312 -0.2914
23929W        W39398   3.651   7.350   0.454 -0.2423 -0.1419  0.0352
23930W        W39399   2.882   3.869   1.071  0.2770  0.2117  0.0750
23931W        W39400   0.638  11.050  14.479 -0.1550 -0.1040  0.0680
23932W        W39401  16.279   1.552   0.529 -0.0826 -0.2116  0.2552
23933W        W39402   1.672  12.981   4.479  0.1070  0.1750 -0.0508
23934W        W39403  15.433   2.734   4.885  0.3815 -0.2268  0.0991
23935W        W39404  12.590  13.421   0.452  0.1570 -0.2224 -0.2605
23936W        W39405   0.782   3.944   0.240  0.1153  0.1546  0.0928
23937W        W39406  16.034  18.316   4.424 -0.0090  0.0067  0.3905
23938W        W39407   2.200  12.136  13.672 -0.2784 -0.0055  0.2271
23939W        W39408   9.017   2.493   2.906  0.1562 -0.1263 -0.0731
23940W        W39409  14.578  13.873  10.535  0.0197  0.1261  0.2573
23941W        W39410  17.813   6.049   4.033  0.1710  0.2586  0.3240
23942W        W39411   0.584  11.974   2.726 -0.0845 -0.0778 -0.0307
23943W        W39412  16.475   8.800  11.048 -0.0270  0.1581 -0.1422
23944W        W39413  18.024   1.627  15.767 -0.0428 -0.2081  0.1064
23945W        W39414   5.790  12.132   4.566  0.1100  0.2776  0.0251
23946W        W39415   5.013   2.033  14.610 -0.2139  0.0963 -0.1339
23947W        W39416   2.891   5.596  15.885 -0.1359 -0.3090 -0.0966
23948W        W39417   0.179  14.926  13.997 -0.0332 -0.2549 -0.0841
23949W        W39418  11.286  11.646   2.467 -0.1326 -0.3038  0.1482
23950W        W39419   3.289  17.048   1.761 -0.0599  0.0826  0.1259
23951W        W39420   4.668   5.651  12.198  0.2562  0.5052 -0.4164
23952W        W39421  17.763  18.104   2.923  0.1301  0.0762  0.0770
23953W        W39422   5.822  11.880  11.029 -0.2438  0.0099 -0.5714
23954W        W39423  14.161  18.039   3.414 -0.0338 -0.0610 -0.0383
23955W        W39424  18.262   5.568   5.421  0.0297 -0.1708  0.2399
23956W        W39425   9.319   5.682  14.267 -0.0164 -0.1812  0.2058
23957W        W39426   9.151   7.598  12.350  0.1043 -0.0142  0.1646
23958W        W39427   8.011   8.240  15.509  0.2963  0.1445  0.3559
23959W        W39428   4.381  11.403  12.230  0.1528  0.1814  0.1434
23960W        W39429  13.412   0.816   3.483  0.1722 -0.0161 -0.0886
23961W        W39430  16.118   0.275  10.653  0.0646  0.0060  0.3389
23962W        W39431   9.349   6.537   3.223 -0.2645 -0.0299 -0.0583
23963W        W39432  15.313   3.863   5.164 -0.3656 -0.2720  0.1706
23964W        W39433   2.490   6.773   3.684 -0.1744  0.0956 -0.0416
23965W        W39434  18.293  12.899  13.149  0.0380  0.1143  0.1242
23966W        W39435  18.101   1.600   2.758  0.0080 -0.0366 -0.2861
23967W        W39436   2.393  12.014  11.285  0.0223 -0.1099 -0.1410
23968W        W39437   4.258   0.701   5.352 -0.3487 -0.0015  0.1129
23969W        W39438   6.767   7.415   2.958  0.1529  0.1723  0.1745
23970W        W39439   9.703   5.229   4.369  0.1373 -0.0484  0.3995
23971W        W39440   2.903   3.045   5.371  0.0649 -0.2063  0.1796
23972W        W39441   1.116  13.918  12.471  0.2922 -0.1313  0.0021
23973W        W39442  10.285  16.372  11.236  0.0542  0.2173 -0.0324
23974W        W39443   0.129   9.907   0.483 -0.2970  0.0384  0.1842
23975W        W39444   1.847  16.688  15.463  0.0721  0.0123 -0.0203
23976W        W39445   9.761  13.452  10.275 -0.2365  0.0567 -0.0530
23977W        W39446   9.757   9.665  14.228 -0.0236  0.1388  0.0542
23978W        W39447  13.763  12.661   3.524  0.1906 -0.0866 -0.0788
23979W        W39448  17.741  11.501   1.682 -0.1795 -0.0997  0.0093
23980W        W39449   6.851  17.631  13.458 -0.0641 -0.3583 -0.0500
23981W        W39450  15.970   2.926  14.632 -0.0452  0.0494  0.2314
23982W        W39451   3.835  15.208  12.336  0.0521 -0.4179  0.4082
23983W        W39452  10.852   6.974  13.831 -0.1990  0.2432 -0.3253
23984W        W39453  14.704   9.485   1.933 -0.1592 -0.3327  0.1510
23985W        W39454   3.112   0.339   4.617  0.1913 -0.4632  0.1728
23986W        W39455   0.582   6.348  11.970  0.0227 -0.0644 -0.0381
23987W        W39456  10.178  16.643  15.023 -0.0670 -0.1885 -0.0998
23988W        W39457  10.542   7.792  10.572  0.0272 -0.3560 -0.0014
23989W        W39458   9.308  15.924   3.115  0.1114 -0.2429 -0.0014
23990W        W39459   9.944   5.951  13.223 -0.2102  0.0004  0.0904
23991W        W39460  13.351  10.271   2.363  0.0609 -0.1518 -0.0504
23992W        W39461  12.207  12.550   2.335 -0.1159  0.0813 -0.0134
23993W        W39462  10.459   2.345  10.900  0.0043  0.0477 -0.0252
23994W        W39463   0.613  14.323   3.636 -0.0545 -0.2222  0.0966
23995W        W39464  17.452   7.625   2.449 -0.1982  0.0375 -0.2605
23996W        W39465   9.690   7.026  13.053 -0.0087  0.0341  0.4641
23997W        W39466  14.419   9.745  12.122 -0.0014 -0.2879 -0.2169
23998W        W39467  18.365   9.268   2.579 -0.2373 -0.0332  0.0743
23999W        W39468   6.289   3.025   2.862 -0.1025 -0.0806 -0.3559
24000W        W39469   0.518   4.163   5.591 -0.2582  0.0079 -0.4231
24001W        W39470  11.517  11.805  12.491 -0.2312 -0.0679 -0.1642
24002W        W39471   7.997  11.067  14.618  0.0047  0.2779 -0.1981
24003W        W39472  15.787   0.916  13.163  0.0008  0.1625  0.1997
24004W        W39473   2.601  10.389   1.746 -0.0385  0.2529 -0.1656
24005W        W39474   9.111   5.036  11.777 -0.1981 -0.0005 -0.1626
24006W        W39475   6.260  10.010   3.961 -0.0005  0.1361  0.1606
24007W        W39476  11.190   6.241   1.544  0.3575 -0.0869 -0.0169
24008W        W39477   8.380   3.879  12.917  0.4120 -0.1877 -0.0625
24009W        W39478   7.362  11.208   3.311  0.0881  0.1073  0.1764
24010W        W39479  11.029   5.509  11.869 -0.0852 -0.1475  0.1089
24011W        W39480  17.009  17.628   1.567 -0.0256  0.2219  0.0520
24012W        W39481  13.655  13.019   0.836  0.1964  0.0539 -0.4775
24013W        W39482   3.387   9.042   0.850 -0.1593  0.1669 -0.2773
24014W        W39483  12.262  16.546  15.815  0.3379 -0.1926  0.0226
24015W        W39484  13.822   9.497   2.208  0.2713 -0.0783 -0.0780
24016W        W39485  15.129  17.197   4.607 -0.2924 -0.2198 -0.0481
24017W        W39486   0.830  18.192  15.053 -0.1052 -0.0638 -0.0630
24018W        W39487  16.946   0.577   2.847  0.0349 -0.0143 -0.3840
24019W        W39488  12.452   9.897   4.366 -0.1644  0.0806  0.1613
24020W        W39489   2.108  14.042  11.007  0.3356 -0.0798  0.3441
24021W        W39490   7.524  13.673  15.816 -0.0727  0.0379  0.4058
24022W        W39491   8.941  14.204  12.263  0.2065 -0.0670 -0.1401
24023W        W39492   3.635   5.693  13.861 -0.2686  0.3391 -0.0939
24024W        W39493   2.799   6.546  15.755  0.0600 -0.2302 -0.1967
24025W        W39494   3.954  16.963   3.726  0.0026 -0.0064 -0.2899
24026W        W39495  15.379   9.822   2.611 -0.0756 -0.4311  0.0454
24027W        W39496  11.734  13.725  15.586  0.2019  0.0980 -0.2360
24028W        W39497   8.995   7.565   4.171 -0.1990 -0.1722  0.0289
24029W        W39498   3.657  10.766   2.325  0.1497 -0.0094  0.0715
24030W        W39499   7.291  12.976  14.522 -0.2413 -0.1567  0.2326
24031W        W39500  15.342   1.089  11.801 -0.0291 -0.1823 -0.0531
24032W        W39501  17.127  12.671   5.202  0.1051 -0.0134  0.0380
24033W        W39502   0.662   2.502   5.017 -0.1869  0.0935 -0.1494
24034W        W39503   5.600  16.575   4.319 -0.0964  0.0437  0.1534
24035W        W39504   4.514   3.998   5.207 -0.2605 -0.0258 -0.1398
24036W        W39505   2.196  17.421  14.294 -0.0371 -0.0652  0.2496
24037W        W39506  11.710   8.248   0.317 -0.0520 -0.1983 -0.0021
24038W        W39507   0.662  16.855  13.913  0.0239  0.0669 -0.1419
24039W        W39508   8.697  15.014   3.804 -0.3654  0.1122 -0.4356
24040W        W39509  15.619   3.503   0.241 -0.4482 -0.3079  0.1935
24041W        W39510  12.016   8.348  13.044 -0.1680 -0.0230  0.3662
24042W        W39511  13.878  11.778   3.391  0.1839 -0.1487  0.3476
24043W        W39512   6.751  14.500  10.632  0.1037 -0.1252  0.0710
24044W        W39513   3.251   2.315   0.331  0.0015 -0.1617 -0.1983
24045W        W39514  13.567  15.504  13.190 -0.1149 -0.0997  0.0919
24046W        W39515  15.259   2.455   1.520  0.0303 -0.0943  0.0126
24047W        W39516   0.585   5.111  14.070  0.0349  0.1323 -0.0089
24048W        W39517  15.356  10.305   3.238  0.0030  0.1439  0.0900
24049W        W39518  10.196   2.713   0.189  0.0966 -0.1131  0.0694
24050W        W39519   7.945   3.724   3.205  0.0530  0.0664 -0.1453
24051W        W39520   3.763  13.421   1.827 -0.0466  0.0674 -0.2781
24052W        W39521  14.049   7.351  15.949 -0.0218  0.0546  0.3178
24053W        W39522  14.651   9.839  14.482  0.1809  0.0037 -0.0285
24054W        W39523   6.949   5.454   4.925 -0.1883 -0.0077  0.2039
24055W        W39524   0.283   2.854   0.475 -0.2721  0.0898 -0.0842
24056W        W39525   0.430  10.233  13.797  0.0648 -0.0020 -0.1473
24057W        W39526  16.844   2.172   0.562  0.0384  0.1093 -0.3337
24058W        W39527  11.605   1.208  13.919  0.2501  0.3866  0.3308
24059W        W39528  14.277   6.881   1.536 -0.0904 -0.1505 -0.0993
24060W        W39529   3.704   4.599  13.458  0.0660  0.2410  0.1344
24061W        W39530   7.389  10.813   2.689 -0.1195 -0.0709  0.0275
24062W        W39531  11.296  16.294   4.867 -0.1044 -0.0850  0.3709
24063W        W39532   6.544  12.845   5.369  0.0359 -0.2745 -0.0009
24064W        W39533   6.968   4.545   5.932  0.0009 -0.0366 -0.2081
24065W        W39534   9.021   9.987  13.365  0.0263 -0.2021 -0.0781
24066W        W39535   2.601  13.027  13.690  0.2764 -0.0539  0.0417
24067W        W39536   6.887  16.867  11.156 -0.1635  0.0007  0.0191
24068W        W39537   3.849  17.037   1.595 -0.5154 -0.0922 -0.0925
24069W        W39538  14.712  13.666  10.994  0.0497 -0.1018  0.0645
24070W        W39539   2.254  14.223   1.936 -0.0659 -0.2335 -0.0501
24071W        W39540   4.236   2.529  13.639  0.0918 -0.1229 -0.3160
24072W        W39541   4.378   0.243   5.489  0.0963  0.4493  0.1899
24073W        W39542   2.101   0.418  13.907  0.3631  0.0729 -0.3234
24074W        W39543  16.877   6.082  14.591  0.3886  0.2882  0.5491
24075W        W39544  11.408   0.032   2.615  0.0216  0.1416 -0.1505
24076W        W39545  17.580  12.574  11.555 -0.0319  0.1215  0.1271
24077W        W39546  10.350   5.174   1.945 -0.1337  0.2736  0.0494
24078W        W39547  17.486  10.824  11.527  0.2188 -0.0660  0.0690
24079W        W39548   3.268  10.418   2.190 -0.0025 -0.0955  0.1217
24080W        W39549   3.141  16.449  15.652  0.0295  0.1647  0.0822
24081W        W39550   4.317   4.225  12.190  0.1658  0.1615 -0.1701
24082W        W39551   4.968   4.561   4.339 -0.1569 -0.4575 -0.2306
24083W        W39552  18.447  10.360   4.486 -0.1293  0.0194 -0.2254
24084W        W39553  14.984   4.381   5.826  0.3012 -0.3181  0.3073
24085W        W39554  13.638   6.501  12.964 -0.2196 -0.0261 -0.1210
24086W        W39555   5.557  17.400  10.471 -0.0505  0.1591 -0.2058
24087W        W39556  11.250  18.195  11.372 -0.0785  0.1774 -0.3329
24088W        W39557   6.114   3.856   1.974 -0.2364 -0.0001 -0.0712
24089W        W39558   3.088  13.670  14.726  0.3075 -0.1602  0.1892
24090W        W39559   5.842   3.101  11.960  0.0955  0.0899 -0.2074
24091W        W39560   2.623   6.185  12.194  0.0631  0.0347  0.5781
24092W        W39561  12.752   0.327  14.861 -0.4389  0.0394 -0.2465
24093W        W39562   4.850   7.256  15.823  0.3315  0.0028 -0.1556
24094W        W39563   8.955  12.529   2.058 -0.1853 -0.0091 -0.2786
24095W        W39564  15.050   8.524  12.300  0.0632 -0.0425 -0.0726
24096W        W39565  11.410   1.881   5.778 -0.0572 -0.1758  0.0806
24097W        W39566   5.335   6.615   0.935  0.3465 -0.0081 -0.2442
24098W        W39567   1.501  17.089  15.594  0.2195 -0.1313  0.0856
24099W        W39568  15.722  10.366  11.334  0.1417 -0.1344  0.3565
24100W        W39569   8.765  13.669   4.202 -0.0795 -0.0304  0.1021
24101W        W39570   0.934   4.792  13.579  0.2240 -0.2176  0.1583
24102W        W39571   8.458  15.718   2.694 -0.1203 -0.1147 -0.3153
24103W        W39572  17.636  11.688  14.835 -0.0449 -0.0093  0.4884
24104W        W39573   4.896   9.710  12.810  0.2975  0.1026  0.0403
24105W        W39574   8.194  12.627  15.357  0.0262 -0.2436  0.2823
24106W        W39575  10.644   7.627  13.845 -0.3726  0.0686 -0.1769
24107W        W39576  14.010  12.737   4.421 -0.2599  0.2762 -0.0374
24108W        W39577   1.843  13.994  13.180 -0.0865  0.1667  0.1953
24109W        W39578  17.362  18.185  14.741  0.1281 -0.1262  0.0192
24110W        W39579   4.992  17.864   1.233 -0.1787  0.2053 -0.1811
24111W        W39580  17.274  12.492  13.677 -0.2113  0.2753 -0.2011
24112W        W39581   0.878   9.861  13.025 -0.0559 -0.0796 -0.0697
24113W        W39582   8.805   7.965   5.230 -0.0655 -0.0224 -0.1270
24114W        W39583  15.292  16.460   1.851  0.1291  0.1281  0.0481
24115W        W39584   2.218   5.781   0.310 -0.2104  0.2446 -0.1855
24116W        W39585   4.808   8.792   2.606 -0.0018  0.0328 -0.3516
24117W        W39586  11.352  15.571   3.210  0.0591  0.2200 -0.2672
24118W        W39587  14.629   8.155   5.473 -0.1556  0.1112 -0.0651
24119W        W39588  15.561  10.596   0.471  0.1116  0.0461 -0.3005
24120W        W39589  13.107   1.448   3.261 -0.0553  0.0201 -0.2242
24121W        W39590  16.651   9.642   5.299 -0.0113  0.2747  0.1737
24122W        W39591   5.319   0.851  13.656  0.0488  0.0097  0.1655
24123W        W39592  13.303   8.161   4.403 -0.0759 -0.1360  0.2090
24124W        W39593  16.588  17.182   0.554 -0.3551  0.1341  0.0300
24125W        W39594  18.237  15.732   4.845 -0.0919  0.1269 -0.1114
24126W        W39595  10.293   7.270   4.937  0.0003  0.0510  0.6708
24127W        W39596   9.865   3.863   0.099  0.4286  0.0318  0.0300
24128W        W39597   5.375  11.950  10.530  0.2186 -0.0325 -0.2567
24129W        W39598   2.073   1.874  11.057 -0.1134  0.0887 -0.1110
24130W        W39599   7.088  17.814   4.369  0.3425  0.0927  0.1273
24131W        W39600   0.686   5.836  12.063  0.0677 -0.1177  0.0091
24132W        W39601   5.945  16.136  12.734 -0.0343 -0.1912  0.2770
24133W        W39602  16.057  12.604   2.206 -0.1110 -0.1988  0.2566
24134W        W39603   4.884   1.751  11.307 -0.2112  0.0014  0.0336
24135W        W39604  10.485   6.327  15.430 -0.1139 -0.0218 -0.0297
24136W        W39605  16.413  13.331   2.977  0.0818  0.0890  0.2313
24137W        W39606   8.135  17.921   1.297 -0.0695  0.1400  0.0568
24138W        W39607  16.642  16.445  15.973 -0.0707 -0.1104 -0.2576
24139W        W39608  16.551  16.451   3.772  0.4188  0.0533 -0.1790
24140W        W39609  10.184  17.803  13.012  0.2430  0.0691 -0.2619
24141W        W39610   1.554  17.661   4.609 -0.3840  0.0762 -0.0854
24142W        W39611   2.639   5.552  11.885 -0.1883  0.2699  0.5914
24143W        W39612   5.876  17.691  15.954  0.1049  0.0328  0.1308
24144W        W39613   6.685  16.195   9.301 -0.2534  0.5519  0.0198
24145W        W39614   7.404   0.912  12.181  0.1127  0.3308 -0.1113
24146W        W39615  16.438   9.985   4.426  0.1580  0.3547  0.0717
24147W        W39616   8.518   5.705   4.660  0.2287  0.1124  0.1607
24148W        W39617  10.288  15.988  11.527 -0.1360  0.0443 -0.1930
24149W        W39618  10.578   9.853   3.226 -0.2246 -0.2113 -0.2751
24150W        W39619   4.377   9.786   1.730 -0.1398 -0.5261 -0.1230
24151W        W39620  16.123   7.783   0.982 -0.0940  0.4147 -0.1084
24152W        W39621   6.661   4.623  15.606  0.1603  0.4957 -0.4695
24153W        W39622   3.123  16.265  14.029 -0.0493  0.1249 -0.0204
24154W        W39623   5.294  16.886  14.314  0.0056  0.0027  0.3011
24155W        W39624  13.296   6.863   0.136 -0.2632  0.2566  0.0160
24156W        W39625   6.148   8.974  15.809  0.0873 -0.2468  0.1868
24157W        W39626   1.243   9.363  14.511 -0.3686  0.3850 -0.0196
24158W        W39627  18.204   6.122  15.808 -0.4712  0.0695 -0.0554
24159W        W39628   1.325   7.938  11.353 -0.2266 -0.0554  0.1963
24160W        W39629   0.573   4.728  15.703  0.2459 -0.2480 -0.0860
24161W        W39630   5.397  12.573  15.188  0.4518 -0.1065  0.0883
24162W        W39631  17.532   0.171   2.985  0.4661  0.2396  0.0465
24163W        W39632   2.907  12.010  11.113  0.2314  0.2398 -0.0796
24164W        W39633   3.496   8.651  14.751 -0.1502  0.4915 -0.1941
24165W        W39634   8.760  14.036  15.696  0.2055 -0.1880  0.0450
24166W        W39635  17.167  17.958   1.979 -0.0447 -0.2702  0.1605
24167W        W39636   5.463  15.025   3.067  0.0801 -0.2342 -0.1080
24168W        W39637   1.685   9.316   5.622 -0.0328  0.0812 -0.0563
24169W        W39638  15.346   9.082  14.605  0.1424 -0.2510  0.0085
24170W        W39639  15.925   9.752  14.262 -0.0352  0.1762 -0.1290
24171W        W39640  11.796   0.126   2.280  0.1865 -0.1849  0.0701
24172W        W39641   5.346  11.439  14.020  0.2186  0.0388  0.2302
24173W        W39642  13.117   9.826   0.678  0.1271 -0.1540  0.1393
24174W        W39643   3.633   7.918  12.570  0.2809  0.0555  0.0292
24175W        W39644   6.940  10.068  11.485  0.2432 -0.0080 -0.0124
24176W        W39645  10.883   4.737   1.233  0.1895 -0.4250 -0.0042
24177W        W39646  15.909   8.939  12.634 -0.2591 -0.2777  0.1262
24178W        W39647  13.071   6.099   3.488 -0.0922  0.1006 -0.4709
24179W        W39648  16.077   2.051  14.484 -0.5877 -0.2530 -0.1955
24180W        W39649   4.090  16.680  14.000 -0.3253  0.0311  0.3287
24181W        W39650  17.492  13.008  13.770 -0.0283 -0.2456  0.4284
24182W        W39651   5.734   8.927  15.507 -0.1701 -0.1503  0.4206
24183W        W39652  13.766  16.620  12.238  0.1418 -0.3460 -0.1431
24184W        W39653   7.957   2.153  12.096 -0.1394 -0.0757  0.1423
24185W        W39654  15.438  13.353  15.836  0.2894  0.2567  0.2084
24186W        W39655   4.014   8.724  11.767 -0.3244 -0.1905 -0.2909
24187W        W39656  12.894   3.208   5.866 -0.1099  0.0752  0.1939
24188W        W39657   6.260  11.846   4.559  0.5432  0.0202 -0.2989
24189W        W39658  12.137   0.271  11.784  0.0534  0.0536 -0.0097
24190W        W39659   3.004   7.390  15.070 -0.1313 -0.0442 -0.1373
24191W        W39660   2.897  13.615  10.794  0.2050 -0.0830 -0.1576
24192W        W39661   4.532   3.865   0.287  0.2146 -0.0556 -0.0307
24193W        W39662   4.658  14.731  11.933  0.0917  0.0777 -0.3436
24194W        W39663  14.454   6.105   4.585 -0.1604  0.1252  0.1624
24195W        W39664  18.176  17.253  13.189  0.0119  0.2498  0.3879
24196W        W39665   3.389   5.332  12.941 -0.0303 -0.0413  0.1789
24197W        W39666   1.388  14.306   3.680 -0.0643 -0.0395 -0.2802
24198W        W39667   4.092   4.923   4.954  0.0935  0.1789 -0.0825
24199W        W39668   9.158  17.459  13.081  0.0196 -0.4120 -0.3021
24200W        W39669  15.999  16.568   4.636 -0.0215  0.3914  0.4144
24201W        W39670  16.290   4.763  11.706  0.0747  0.0285 -0.3604
24202W        W39671   8.111   8.902   2.088 -0.3280  0.2885  0.0092
24203W        W39672  11.569   7.397  15.211 -0.2793 -0.0997  0.0173
24204W        W39673   5.386  11.667   4.496  0.1667 -0.1357 -0.1082
24205W        W39674   9.336   0.109   1.783  0.0380 -0.1835  0.3211
24206W        W39675   1.557   0.405   3.592  0.2252 -0.1559  0.4291
24207W        W39676   1.707   6.063   0.340 -0.1562 -0.0905  0.0482
24208W        W39677   5.228  11.493   2.921  0.1602  0.0358 -0.3502
24209W        W39678   8.470  11.681   1.872 -0.3164 -0.0681  0.1569
24210W        W39679  12.359  10.828   1.516 -0.0158 -0.0514 -0.2330
24211W        W39680  14.801   3.936  12.933  0.0991 -0.1632 -0.0554
24212W        W39681  12.091   2.801   4.875  0.1614 -0.5207  0.0179
24213W        W39682  16.067  16.470  10.981  0.2146 -0.3009  0.0968
24214W        W39683  14.292   0.036  15.183 -0.1594 -0.0276 -0.3613
24215W        W39684  16.083  14.733   2.643 -0.0296  0.1337 -0.1821
24216W        W39685  14.010  10.950  12.416 -0.0743  0.2126  0.0018
24217W        W39686   1.011   2.142   2.558  0.2719  0.0878 -0.0875
24218W        W39687  11.328   4.192   4.307  0.0578  0.3557 -0.5583
24219W        W39688  10.401   9.338  10.006  0.6664 -0.0750  0.0377
24220W        W39689  11.320  18.182  15.150  0.0799 -0.0221 -0.2821
24221W        W39690  13.976   2.214   5.171  0.2075  0.2361 -0.0351
24222W        W39691   6.616   2.540   4.131 -0.1299 -0.2367  0.3309
24223W        W39692  15.864   5.247  14.672  0.2064  0.0695 -0.0131
24224W        W39693   8.814   3.858   1.133  0.0143 -0.0200 -0.1009
24225W        W39694   6.376  11.868  11.826  0.1169  0.0557 -0.1997
24226W        W39695   5.817   5.974   2.065  0.2380 -0.0055 -0.0320
24227W        W39696   4.013   7.623   3.985  0.1297  0.1296 -0.1145
24228W        W39697   0.595   9.858   0.126  0.1910  0.3918 -0.0069
24229W        W39698   7.668   6.318   1.115 -0.2336  0.1168  0.1877
24230W        W39699   3.535   8.279   2.456 -0.3182 -0.0971 -0.2525
24231W        W39700   3.754   5.105  13.252  0.0495  0.1610  0.2724
24232W        W39701   2.504   2.949  10.848  0.0100  0.1334  0.0148
24233W        W39702   6.629  13.625   0.573  0.0106 -0.0877  0.1381
24234W        W39703   6.319   3.276   1.588 -0.2865 -0.1766  0.0995
24235W        W39704   0.020   4.905   2.935  0.0749 -0.2025 -0.3120
24236W        W39705  17.538   2.969  15.443 -0.1777 -0.1968  0.1635
24237W        W39706  13.337   5.894   5.331 -0.0234 -0.1308  0.2623
24238W        W39707  12.363  12.888  11.511 -0.1032  0.0784 -0.1931
24239W        W39708   5.686   2.353   2.803 -0.2145  0.0440  0.4677
24240W        W39709  13.510  16.773   4.277 -0.2542  0.0631  0.3423
24241W        W39710  12.961   5.140   4.159 -0.0351  0.0776 -0.1197
24242W        W39711  12.419  12.392   4.487  0.2555  0.2765  0.0876
24243W        W39712  17.098  12.659  13.110 -0.1271  0.3522 -0.2662
24244W        W39713  15.328  12.055   1.276  0.1247 -0.0055 -0.1697
24245W        W39714   0.433   6.370   0.518  0.0215 -0.1223  0.0161
24246W        W39715   0.302  18.331   2.934 -0.0389 -0.1586  0.1136
24247W        W39716  14.308  16.704   1.880  0.2166  0.0293 -0.1239
24248W        W39717   2.328   6.079   3.520  0.1091  0.1136  0.0097
24249W        W39718  13.709   5.221   2.738  0.3872  0.0637  0.4028
24250W        W39719  15.297  18.050  15.773 -0.0402  0.2613 -0.0944
24251W        W39720  13.856  17.126   1.262 -0.0747 -0.0320 -0.1611
24252W        W39721  13.734  12.405  13.971  0.1120 -0.1045 -0.1257
24253W        W39722   8.876   8.474  12.667  0.4007 -0.1628 -0.0765
24254W        W39723   3.261  12.496  14.119  0.0724 -0.1365 -0.2562
24255W        W39724   1.608   4.713   4.897  0.0015 -0.1210 -0.1280
24256W        W39725  11.725  15.856   2.698  0.2097 -0.4292  0.3031
24257W        W39726  15.427  16.513  14.720 -0.2289  0.1643 -0.1397
24258W        W39727   7.949   2.844  15.125 -0.0240 -0.1544 -0.1310
24259W        W39728  11.936   3.881  13.024  0.4405 -0.2348 -0.0556
24260W        W39729   1.856  15.596  12.179  0.1633  0.0022  0.0990
24261W        W39730  15.042  17.089   5.080 -0.0886  0.4016 -0.0414
24262W        W39731  14.916   9.166  12.655 -0.0356  0.1699 -0.2034
24263W        W39732  12.836  16.214  13.938 -0.0268  0.1915  0.2409
24264W        W39733   4.591  15.099   3.345  0.0706  0.2031  0.0406
24265W        W39734   8.377   2.083  11.496  0.3078  0.1996 -0.1229
24266W        W39735  16.982   9.109   4.611  0.2666 -0.2370  0.3873
24267W        W39736  15.388   6.662   4.889 -0.1985 -0.2485 -0.0329
24268W        W39737  12.108  12.119   1.731  0.0680 -0.3926  0.2310
24269W        W39738   7.461   4.855  13.448 -0.0397 -0.2573 -0.2423
24270W        W39739   8.010   5.736  14.990 -0.0846  0.2612 -0.0281
24271W        W39740  16.918  12.783   1.737 -0.1184 -0.2481  0.0476
24272W        W39741   6.816   5.865   1.482  0.0411 -0.0714  0.1496
24273W        W39742   2.660   2.131   0.190 -0.2088 -0.0605  0.0973
24274W        W39743  13.440   4.272  12.718  0.1399  0.1011 -0.3267
24275W        W39744  12.943  15.948  12.990  0.1488  0.1885  0.2468
24276W        W39745   0.492  15.050   2.353 -0.1298  0.0825  0.0526
24277W        W39746   3.391  16.493  11.140  0.4640 -0.1114 -0.0405
24278W        W39747   2.642   3.123  15.463  0.1490 -0.0153 -0.0714
24279W        W39748  15.086   0.953   5.424 -0.2849 -0.1568  0.0875
24280W        W39749   6.312   6.018  14.508 -0.1983  0.3661  0.0444
24281W        W39750  11.421  15.303   3.749  0.2923 -0.3434 -0.1285
24282W        W39751   7.187  16.045   3.680 -0.0919  0.2017  0.3824
24283W        W39752  13.952  12.563  15.051  0.0521  0.0070 -0.1834
24284W        W39753   9.691   1.237  10.292 -0.1210  0.3542 -0.0195
24285W        W39754   6.963   7.889  12.440 -0.1827  0.2523 -0.2962
24286W        W39755   1.107  11.984   2.801 -0.1501 -0.1607  0.1064
24287W        W39756   5.031  10.679   0.543 -0.2909 -0.0669  0.0573
24288W        W39757   6.960   2.183   4.200 -0.0211 -0.0499 -0.2618
24289W        W39758   9.656   6.118   3.262  0.1122 -0.2506  0.1562
24290W        W39759  16.203  16.031   5.168 -0.1040  0.3165 -0.2302
24291W        W39760  15.964   9.648   1.160  0.2013 -0.2508 -0.0451
24292W        W39761   4.514   8.651   2.211  0.2068 -0.1261 -0.4565
24293W        W39762   0.177  12.254   2.803  0.3377 -0.4476  0.1159
24294W        W39763   9.595   5.586  11.217 -0.5416  0.5134 -0.0035
24295W        W39764  13.712   8.431   0.899  0.3338 -0.1760 -0.3442
24296W        W39765   7.910  18.296   3.678 -0.1881 -0.0741  0.0189
24297W        W39766   4.878  15.525   1.028  0.2711 -0.2966 -0.1321
24298W        W39767  12.273  10.734  11.179 -0.0110 -0.0238  0.0321
24299W        W39768   3.941   2.028   4.397  0.1276  0.0360  0.0701
24300W        W39769   2.404  16.604  15.174  0.2007  0.2723 -0.0722
24301W        W39770   8.712  17.681   1.793 -0.0670 -0.0446 -0.2766
24302W        W39771   1.599   1.178   0.476 -0.2383 -0.1528 -0.3496
24303W        W39772   4.276  14.977  15.398 -0.3372 -0.0583  0.1543
24304W        W39773  11.890  13.846  12.327 -0.2989 -0.0112  0.2189
24305W        W39774   4.219  11.461   3.917  0.4076  0.0022  0.0453
24306W        W39775   2.689  10.695  12.439  0.1110  0.0237 -0.0616
24307W        W39776  10.540   6.694   1.335 -0.0430 -0.2129 -0.0295
24308W        W39777   2.674   2.754  15.068 -0.5118 -0.1614 -0.0846
24309W        W39778  18.413  16.501   0.330 -0.2349  0.2650  0.0985
24310W        W39779   7.137  11.307   5.155 -0.1097  0.5939  0.3607
24311W        W39780   0.714  11.764  12.457 -0.2834  0.2203  0.2851
24312W        W39781   5.349   5.379   1.828  0.0135 -0.1293 -0.1083
24313W        W39782  15.704   8.970  12.073 -0.0472 -0.2471  0.3249
24314W        W39783   0.773   3.088   3.947 -0.1838  0.0515 -0.0186
24315W        W39784  10.679   8.340  15.015  0.0814  0.1306 -0.0075
24316W        W39785   0.903   4.055  15.768  0.2225 -0.2290 -0.2046
24317W        W39786  12.847   3.328   3.142  0.1649 -0.2289  0.3184
24318W        W39787   3.287  16.626  11.652  0.0541 -0.0091 -0.4713
24319W        W39788  16.614  15.458   4.574  0.1800  0.2642  0.0898
24320W        W39789   2.907  13.770   3.532  0.1224 -0.2246 -0.0108
24321W        W39790   5.689  10.607  10.559 -0.1770 -0.1685 -0.0693
24322W        W39791  12.146   5.199  14.248 -0.0070 -0.1653 -0.0742
24323W        W39792   7.961   6.976   2.198  0.3400  0.3001 -0.0003
24324W        W39793  16.129   5.362   3.618 -0.0039  0.1098 -0.0832
24325W        W39794   3.636   4.464   6.347  0.1323 -0.2119  0.0568
24326W        W39795   8.513  16.086  14.123  0.0091 -0.2648 -0.2023
24327W        W39796   4.444  10.058   0.803  0.2468  0.0503  0.0720
24328W        W39797   2.884   3.203   0.214  0.3453 -0.2460  0.0858
24329W        W39798  16.665  16.603   2.886  0.0945  0.1284  0.1704
24330W        W39799   1.476   6.610   4.114 -0.3107  0.0471  0.0247
24331W        W39800  10.446   7.247  14.131  0.0250  0.3579  0.3574
24332W        W39801  17.974  10.430   1.122 -0.0020 -0.1752 -0.0005
24333W        W39802   3.917  16.354   0.686 -0.0942 -0.3174  0.0021
24334W        W39803  14.852  10.711  14.869  0.4291 -0.0745  0.3623
24335W        W39804  11.580   2.501  16.007  0.0010 -0.1972 -0.0545
24336W        W39805   0.261   9.346   5.792 -0.0427  0.0965 -0.0553
24337W        W39806   7.604   6.686   4.420  0.1190 -0.3656 -0.2707
24338W        W39807   6.421   3.369   1.040 -0.1553  0.0064  0.2577
24339W        W39808   7.555  16.268  15.003  0.1601 -0.4046  0.0466
24340W        W39809   4.284   1.481  12.064  0.0668  0.0259 -0.0521
24341W        W39810  16.331   9.466   3.337  0.1573  0.1815 -0.0914
24342W        W39811  16.915   7.918  13.521  0.0373 -0.3346 -0.0864
24343W        W39812  10.006   9.766   2.598 -0.1794  0.0475 -0.1638
24344W        W39813   2.351   1.802  14.317  0.1541 -0.0874  0.1883
24345W        W39814   3.289  17.429   0.390 -0.0712 -0.1633 -0.0380
24346W        W39815   1.557  11.808  12.247  0.1118  0.1349  0.0890
24347W        W39816   4.114   4.515   6.248 -0.2473  0.2285 -0.0702
24348W        W39817   3.602   1.304  11.109 -0.0845  0.3056  0.1126
24349W        W39818   1.525   9.506  10.882 -0.0411  0.2672 -0.2742
24350W        W39819   8.079  17.604   4.404  0.0227  0.0805  0.0666
24351W        W39820  14.259   8.616   2.493  0.3445  0.1952 -0.1877
24352W        W39821   3.233   6.974   2.551  0.2128 -0.1838  0.1726
24353W        W39822  17.621   9.047   0.609  0.0252 -0.2720  0.1382
24354W        W39823  14.266  11.818  12.873 -0.3860  0.0756 -0.2569
24355W        W39824  17.842   2.538   2.002 -0.0754  0.0439 -0.0533
24356W        W39825   3.453  14.540  15.387 -0.4091  0.0079 -0.1955
24357W        W39826   8.219   0.961   5.184 -0.0480 -0.0632 -0.0161
24358W        W39827   1.419   0.390   4.992  0.0232 -0.1029 -0.1244
24359W        W39828  10.766  16.687   3.140  0.0276 -0.1250  0.1015
24360W        W39829  17.259   3.370  13.895  0.2870 -0.1403  0.2179
24361W        W39830   5.959  13.188   1.032 -0.0785 -0.0565  0.2317
24362W        W39831  18.446  10.242  14.033 -0.1991  0.0081 -0.0856
24363W        W39832  17.125   9.100   0.631 -0.1675  0.1251 -0.4669
24364W        W39833  16.651   4.494   0.656 -0.4865  0.0582 -0.0034
24365W        W39834   9.908  17.484  12.780 -0.1531 -0.2795  0.0152
24366W        W39835  14.194   2.832   3.402  0.0215 -0.2017  0.2862
24367W        W39836  10.447  14.732  13.486  0.0730 -0.3157  0.0665
24368W        W39837   9.391   8.576  13.640 -0.2689  0.0751 -0.0254
24369W        W39838   1.064  14.426   0.982 -0.1412 -0.0134  0.0915
24370W        W39839   4.713   3.002  12.293  0.3323 -0.0182 -0.1047
24371W        W39840   7.452   3.472  11.248  0.1940 -0.0584 -0.1108
24372W        W39841   7.548  13.851   0.325  0.4681 -0.2855 -0.2349
24373W        W39842  17.761  11.461   5.847 -0.2537  0.0173 -0.3305
24374W        W39843   0.310   5.095   2.514 -0.0427 -0.1514  0.0492
24375W        W39844  12.283   2.617  11.024  0.0091 -0.0676  0.2834
24376W        W39845   9.537   4.228   0.339  0.1729 -0.3836  0.0018
24377W        W39846   8.977  14.344   1.336  0.1226 -0.0090 -0.2382
24378W        W39847   4.561   3.688   2.367 -0.0878  0.0096 -0.2701
24379W        W39848  15.530   6.008   1.180 -0.3216 -0.1138 -0.1866
24380W        W39849   0.136  15.370  12.200 -0.1557  0.2483  0.1004
24381W        W39850   0.811   4.402  13.283 -0.0740  0.1686  0.2497
24382W        W39851  16.244   7.325  10.508 -0.2602 -0.2785  0.0422
24383W        W39852   9.076   6.110  15.998  0.0583 -0.1049 -0.1446
24384W        W39853  16.216  18.148  11.689 -0.2896 -0.1391 -0.1199
24385W        W39854   1.672   3.352  15.752 -0.0227  0.1036 -0.1025
24386W        W39855  11.538   8.055  13.085  0.0092  0.0371 -0.1445
24387W        W39856   7.838  15.119  12.983 -0.1449 -0.0783 -0.0827
24388W        W39857  10.482  17.957  14.675  0.0865  0.0004  0.2670
24389W        W39858   4.953  10.091  13.525  0.1734 -0.1205 -0.0063
24390W        W39859  12.157   2.172   3.804 -0.0086  0.0693 -0.0052
24391W        W39860   2.396   0.750   4.750  0.0127  0.0884 -0.2967
24392W        W39861  11.956  14.153  15.415 -0.2456 -0.1737  0.1626
24393W        W39862   0.160   1.934   4.477  0.1586 -0.0909 -0.0691
24394W        W39863   3.104  14.278   0.862 -0.0077 -0.0567  0.1721
24395W        W39864   4.821   4.999  12.620  0.1220 -0.0993 -0.2381
24396W        W39865  12.467   5.466   3.316 -0.0196  0.2923 -0.3908
24397W        W39866   6.900  15.831   2.006  0.1482  0.0268  0.2666
24398W        W39867   2.859   3.896   2.949 -0.0477  0.1398 -0.1783
24399W        W39868  11.253  10.751  14.119  0.3808 -0.0708  0.1245
24400W        W39869   5.059  12.234   0.486  0.0776 -0.5933  0.1183
24401W        W39870  11.513   9.253  14.516 -0.2412  0.0770 -0.2135
24402W        W39871  10.890   6.558  11.461  0.1756 -0.0223  0.0271
24403W        W39872   3.681  13.813  14.824 -0.0830 -0.0899  0.2333
24404W        W39873   9.081   5.871   4.668 -0.1019 -0.1275 -0.3197
24405W        W39874  10.291   6.723   2.094 -0.3877 -0.1700  0.4645
24406W        W39875   1.491   5.637   4.897  0.0137 -0.0193 -0.0883
24407W        W39876   9.937  16.444   3.368  0.1373  0.0718  0.1265
24408W        W39877  11.017  16.711  13.981  0.1737  0.0648  0.0319
24409W        W39878   3.666   4.895  11.456 -0.0739 -0.0444 -0.0135
24410W        W39879  10.267   3.866   2.812  0.1535 -0.1526  0.2012
24411W        W39880  17.894  12.189  14.851 -0.2615 -0.0071 -0.2827
24412W        W39881  14.116  16.518  14.012  0.0524 -0.0987  0.2613
24413W        W39882   1.402   7.932  11.912  0.0125 -0.3821  0.3760
24414W        W39883  10.267   0.580  12.674 -0.3252  0.0289  0.2745
24415W        W39884   5.216  12.514  12.591  0.1893  0.0681  0.0594
24416W        W39885   1.487  12.643   5.078 -0.0151 -0.2664 -0.1032
24417W        W39886   6.156   8.197  14.273  0.0251  0.0261  0.0751
24418W        W39887  11.479  11.754  14.725 -0.2148  0.2104  0.0787
24419W        W39888  16.103   7.498  12.706  0.1257 -0.0076 -0.0944
24420W        W39889   6.799   4.686   6.458 -0.2002 -0.1024  0.2942
24421W        W39890   8.651  11.317   4.013  0.1092  0.0175 -0.0996
24422W        W39891  13.482   0.086  11.319  0.0107  0.0824  0.1096
24423W        W39892  12.157  13.402  14.970  0.4097  0.2329 -0.0002
24424W        W39893   9.502  10.023   3.079 -0.1400 -0.0130 -0.1735
24425W        W39894   4.037  12.758  15.939 -0.2604 -0.1204 -0.0803
24426W        W39895   4.199  17.545  15.325  0.0455 -0.2109 -0.0229
24427W        W39896  11.638   9.689   1.020  0.0465  0.1183 -0.3890
24428W        W39897  10.694  10.783   4.831  0.0236 -0.1582 -0.0448
24429W        W39898   6.139   6.574   5.693 -0.2199  0.0970 -0.0745
24430W        W39899  10.177  17.442  10.697  0.0040 -0.0822 -0.3524
24431W        W39900  15.124  14.727  12.753 -0.3518 -0.0915 -0.0125
24432W        W39901   1.377   7.638   0.623 -0.0214  0.1284  0.4175
24433W        W39902  10.108   6.379   0.444 -0.0108  0.0713 -0.2190
24434W        W39903   9.303  18.133  11.553  0.1043  0.2874 -0.1561
24435W        W39904  12.792  10.408  14.689 -0.0375  0.1278 -0.0689
24436W        W39905  10.282  14.083  16.026 -0.2898 -0.0285 -0.0788
24437W        W39906  17.542   8.790  11.231 -0.1102  0.0993 -0.2393
24438W        W39907  16.698  15.201   1.215 -0.1895 -0.0494 -0.2416
24439W        W39908   5.124   5.806  12.081 -0.3864 -0.1551 -0.0970
24440W        W39909  11.221   0.805   2.309 -0.0642  0.1179 -0.0703
24441W        W39910  14.967   1.616   1.082 -0.2480  0.2299 -0.0828
24442W        W39911   4.262   3.364   2.108  0.0532 -0.1393 -0.0458
24443W        W39912  11.752  18.154   2.563  0.0447  0.2335 -0.1631
24444W        W39913  11.635  16.617   4.530 -0.1333  0.1279  0.2695
24445W        W39914   0.310  16.630  14.262  0.1371 -0.1497  0.2269
24446W        W39915  10.267  13.604  15.171  0.5190  0.0167  0.1360
24447W        W39916   9.393   9.099   3.176 -0.1077 -0.0257  0.1285
24448W        W39917  12.601   5.433   4.736 -0.1400 -0.0274 -0.0468
24449W        W39918   6.751   6.753   0.258 -0.3353 -0.2368 -0.2520
24450W        W39919  14.839  16.541   4.358  0.1463  0.1858 -0.0878
24451W        W39920   5.269  10.999   3.766  0.1880 -0.1554 -0.0171
24452W        W39921  16.771   4.068   1.214 -0.0804 -0.0624  0.0431
24453W        W39922  12.773   3.856  14.761  0.1018 -0.0785 -0.0605
24454W        W39923  12.221  14.654   0.513  0.0541 -0.1699  0.0292
24455W        W39924   8.885  10.749   1.934  0.1824  0.0489  0.4250
24456W        W39925  14.122  15.196  15.766 -0.0932  0.1251  0.3756
24457W        W39926  17.466   6.241  10.587 -0.0378 -0.2733  0.3704
24458W        W39927   2.371  15.060   2.984  0.3534 -0.0219  0.0453
24459W        W39928   4.722   0.175  12.948 -0.0006  0.0264  0.0255
24460W        W39929  14.398   2.684  11.559 -0.1137  0.2462  0.0733
24461W        W39930   1.241   1.607  11.068 -0.1466 -0.1611  0.2160
24462W        W39931   4.025   4.236  15.652 -0.0382 -0.1616  0.2815
24463W        W39932   1.414  17.986   3.784 -0.0095 -0.0831  0.1211
24464W        W39933   3.528  15.332  16.015  0.2729  0.0795  0.3004
24465W        W39934  18.272   5.561  15.657  0.1251  0.2910 -0.3166
24466W        W39935  15.600   9.303  11.601 -0.2130 -0.0384 -0.2211
24467W        W39936   2.922  17.806   1.326  0.0177  0.2194 -0.0884
24468W        W39937   0.910   0.218   0.938 -0.2744  0.1307 -0.0532
24469W        W39938  16.607   8.483  13.314 -0.0456 -0.3658 -0.0679
24470W        W39939  17.843   5.996   5.086  0.1210  0.2884 -0.3141
24471W        W39940   8.426   1.541  15.201  0.0274  0.1197  0.3342
24472W        W39941   1.821   6.249   3.386  0.0967  0.1027  0.1510
24473W        W39942  16.791  14.587   4.149 -0.1386 -0.1640  0.0453
24474W        W39943   3.859  15.306  14.321  0.0924  0.3531 -0.1488
24475W        W39944  13.166   5.248  14.406  0.3026 -0.1292 -0.2364
24476W        W39945   1.107   7.508  11.234  0.3381  0.0061  0.0359
24477W        W39946   5.067   4.915   2.020  0.0234  0.1176  0.2803
24478W        W39947  12.078   7.396  11.007 -0.1780 -0.3308 -0.2869
24479W        W39948   3.755   6.655   0.588 -0.2751 -0.1678  0.3044
24480W        W39949  11.914   6.942  10.963 -0.0534 -0.1330  0.1292
24481W        W39950  15.899   2.897   0.904 -0.1238 -0.1952  0.1687
24482W        W39951  17.676   5.329  15.543 -0.1583 -0.0542  0.0414
24483W        W39952   7.612   1.860   5.043  0.3597  0.4594 -0.2618
24484W        W39953  12.136   0.809   1.926  0.1987 -0.2724 -0.1138
24485W        W39954  15.861  12.985  12.737 -0.0103  0.2167  0.1423
24486W        W39955   7.635   5.354  11.818 -0.2526  0.0824 -0.0614
24487W        W39956  10.697   1.991  13.292 -0.1247 -0.0884 -0.1584
24488W        W39957  17.942   1.982   1.972 -0.0094  0.0537 -0.1290
24489W        W39958  14.260   7.939   3.486  0.0021  0.1479  0.0761
24490W        W39959   7.155  13.968   1.041  0.1689  0.0910 -0.0573
24491W        W39960  13.320  16.022   3.717 -0.1568  0.0442 -0.0028
24492W        W39961   8.188   0.817   3.049  0.0116  0.2744  0.0873
24493W        W39962   3.035   3.942  13.782 -0.1282 -0.1321  0.1652
24494W        W39963  10.332  18.002   2.017  0.1253 -0.0290  0.4414
24495W        W39964  17.801   9.237   1.285 -0.2055  0.4526 -0.0179
24496W        W39965   9.135   6.128  13.175  0.0446  0.2617 -0.0627
24497W        W39966   8.647  17.458   1.349 -0.1579  0.1013 -0.1916
24498W        W39967   7.937   6.565   0.766 -0.1442  0.1135  0.0129
24499W        W39968   5.963  18.094   0.285 -0.0334 -0.0852 -0.0927
24500W        W39969   9.175  15.083  15.018  0.0274 -0.1733 -0.2973
24501W        W39970  10.212   0.845  14.967  0.2140 -0.0901 -0.0498
24502W        W39971  16.348   3.895  15.353  0.0360 -0.0562  0.0361
24503W        W39972  11.225   2.690  13.234 -0.1229  0.1163  0.1707
24504W        W39973   2.152  13.971  11.513 -0.1676 -0.0657 -0.0924
24505W        W39974   4.611   8.975   3.615 -0.0183 -0.0207 -0.1110
24506W        W39975   9.267  14.867  13.695  0.4478  0.1987 -0.0919
24507W        W39976   4.306   2.696  15.852 -0.1407 -0.1399  0.2586
24508W        W39977  14.139   8.514   0.579  0.3371  0.1536 -0.0403
24509W        W39978  16.034   4.482   0.647 -0.0728 -0.1109  0.4176
24510W        W39979   9.041   0.279  15.052 -0.1275 -0.3696 -0.2206
24511W        W39980  13.205  14.486  12.158  0.3600 -0.0839 -0.1719
24512W        W39981  17.504   5.105  11.000 -0.0228 -0.2076  0.1506
24513W        W39982   8.541   4.073  13.939  0.1923 -0.0948  0.1165
24514W        W39983  17.470  11.096   0.218 -0.1890 -0.1925 -0.3616
24515W        W39984   3.732  17.800   4.237  0.0868 -0.2783  0.0336
24516W        W39985   6.984  14.270  12.598  0.3030 -0.0039 -0.0303
24517W        W39986  18.071   3.551   1.066  0.0617 -0.0820  0.1470
24518W        W39987  18.156   7.807  12.005 -0.4993 -0.1559  0.1207
24519W        W39988   1.639   0.476  13.509 -0.0750  0.1094  0.0142
24520W        W39989   7.204  17.124   3.110 -0.0064  0.2205  0.3998
24521W        W39990  11.389  18.048   5.752  0.0753  0.1566  0.1693
24522W        W39991  13.889   9.947  13.490 -0.0968 -0.0772  0.1317
24523W        W39992   6.403   7.600   5.598  0.1476  0.1409  0.2101
24524W        W39993  15.432   7.021   2.915 -0.2820 -0.2289 -0.0962
24525W        W39994   2.459   7.661   1.121  0.1605  0.2146  0.0965
24526W        W39995   6.381   3.488   2.538  0.0361 -0.1752 -0.2321
24527W        W39996  16.654  12.846  11.490 -0.1754 -0.1702 -0.0187
24528W        W39997   3.441  12.036  14.976  0.0131 -0.3135 -0.0544
24529W        W39998  13.176   3.012  12.837  0.0477 -0.0246 -0.1097
24530W        W39999   8.877  14.804   0.472  0.2058  0.0621 -0.1693
24531W        W40000   2.869  15.922   0.912 -0.1136 -0.2524 -0.1699
24532W        W40001  11.090   6.558   0.608 -0.2554 -0.2293  0.0656
24533W        W40002   5.673   3.859   3.359  0.1014 -0.2138  0.2980
24534W        W40003   2.661   3.248   3.718 -0.1635  0.0251 -0.2651
24535W        W40004  14.766  10.726  14.191 -0.0487  0.2145 -0.0946
24536W        W40005  17.870   6.659  15.341  0.0750 -0.0738 -0.1239
24537W        W40006   2.920   8.432  10.871  0.0608  0.2105  0.3891
24538W        W40007   0.397  12.217  12.594 -0.0062  0.1547 -0.0787
24539W        W40008   0.411   3.497  14.709 -0.2232 -0.3288 -0.2813
24540W        W40009   7.083   8.096   4.779 -0.2113  0.1082  0.0440
24541W        W40010   3.920  14.873   3.027  0.1338 -0.0051  0.1698
24542W        W40011   6.498   9.159   6.710  0.3576 -0.0124  0.0575
24543W        W40012   8.967   6.724   4.310 -0.2488 -0.0836  0.2156
24544W        W40013  17.455  15.336  14.189  0.3102  0.0778  0.0247
24545W        W40014   1.693   8.100  12.387 -0.0735  0.0937 -0.0543
24546W        W40015   8.820  17.176   3.344 -0.2587  0.1037 -0.1038
24547W        W40016   2.164   6.028  13.978  0.3941 -0.3922 -0.2390
24548W        W40017  17.471   4.164   2.621 -0.1080  0.2586  0.0680
24549W        W40018  12.440  14.428   5.025  0.0441 -0.0486 -0.0266
24550W        W40019  13.176   7.973   3.992 -0.0129  0.1689  0.1530
24551W        W40020   7.016   3.973  15.488  0.1847 -0.1550  0.0111
24552W        W40021   6.028   7.288  12.538  0.1731  0.2420  0.0314
24553W        W40022  12.263   2.379   5.015 -0.1902  0.1610 -0.0037
24554W        W40023   9.987   9.246   3.180 -0.1159  0.0999  0.3433
24555W        W40024  10.395  14.524  14.940  0.0209  0.0505  0.2924
24556W        W40025   5.621   1.952   4.647 -0.0272 -0.0440 -0.2263
24557W        W40026  15.303   3.342  12.327 -0.1241  0.0668 -0.0151
24558W        W40027   8.640   3.274   3.428 -0.2222  0.0472 -0.0832
24559W        W40028  16.384   3.956   0.819 -0.0380  0.0744  0.0520
24560W        W40029  16.454  11.152  12.270 -0.2173 -0.0850 -0.0415
24561W        W40030  13.921   4.997   2.288 -0.1977  0.1406 -0.2209
24562W        W40031   4.947   8.120   1.452 -0.3002  0.0583  0.3654
24563W        W40032  12.617   0.823  15.180  0.0941 -0.2448 -0.0847
24564W        W40033   3.658   0.318   0.036  0.0911 -0.1084  0.1473
24565W        W40034  16.598  18.053  13.394 -0.1041 -0.1563 -0.2347
24566W        W40035  17.054  14.080  11.529 -0.3805 -0.0576 -0.0554
24567W        W40036   0.616   7.600  13.442  0.0472  0.2598  0.2930
24568W        W40037  16.915   8.142  13.002 -0.4554 -0.0757 -0.3563
24569W        W40038   7.234   9.884   5.213  0.0432 -0.2056 -0.0471
24570W        W40039  16.084  17.162  14.174 -0.3545  0.3160 -0.0974
24571W        W40040   0.980   8.298   1.522 -0.1382 -0.0982 -0.0884
24572W        W40041   5.880  12.370   2.014  0.0037 -0.2595  0.0058
24573W        W40042   9.756  13.404  12.596  0.0860  0.2313  0.1523
24574W        W40043   2.474   4.738   1.270 -0.1144  0.2954 -0.1954
24575W        W40044   1.959   6.701   1.179 -0.3137  0.1206  0.0084
24576W        W40045   5.181   0.517  13.262  0.0315  0.0151  0.0286
24577W        W40046  12.198   9.687   4.761  0.0104 -0.0340  0.0721
24578W        W40047   3.303   7.228  12.894 -0.0601  0.0615 -0.0777
24579W        W40048  16.924   2.196   2.122  0.0137  0.1525  0.3325
24580W        W40049   3.287   0.579  14.491 -0.0203  0.0059 -0.2111
24581W        W40050   7.125   6.172   2.239  0.0357  0.1668  0.2449
24582W        W40051   8.207   7.657  11.564 -0.0346  0.0594 -0.0736
24583W        W40052  16.217  13.269   4.894 -0.0666 -0.0650  0.1500
24584W        W40053  13.606  15.823  14.530 -0.0834  0.1064  0.1622
24585W        W40054  13.889   0.409   0.741  0.2820  0.1869  0.1015
24586W        W40055   8.380   6.676   2.190  0.0090 -0.1592  0.0415
24587W        W40056  17.451  10.527  10.579  0.3101  0.0410  0.0302
24588W        W40057   8.825   3.738  13.306  0.0462  0.1013  0.0186
24589W        W40058   2.372   1.264   0.007 -0.0274  0.0161 -0.2969
24590W        W40059   6.203   5.829   1.773  0.1242  0.0597 -0.1287
24591W        W40060   4.610   3.106   4.455  0.1460 -0.0123 -0.0843
24592W        W40061   5.260  13.423   5.713  0.3036  0.0953 -0.1596
24593W        W40062  16.751  14.326  13.890  0.1724 -0.0651 -0.1452
24594W        W40063  12.156  15.651  12.907 -0.2173  0.1064 -0.0048
24595W        W40064   5.325   9.173   0.655 -0.1009 -0.2538 -0.1479
24596W        W40065  15.911   7.667  11.787  0.3359  0.4113 -0.0447
24597W        W40066  14.207   2.980   0.403 -0.1588 -0.3733 -0.2474
24598W        W40067   4.405   0.754  14.258 -0.0687 -0.0407 -0.3539
24599W        W40068  15.184  13.939   1.696  0.0375  0.2299 -0.2419
24600W        W40069  13.428  14.347   4.754 -0.1177  0.2041 -0.1810
24601W        W40070  15.812   0.461  13.328 -0.2357 -0.0489 -0.3458
24602W        W40071  11.809  18.065  11.264  0.1313  0.0125  0.3318
24603W        W40072  15.114  16.884  11.815  0.2539  0.2378  0.0308
24604W        W40073  10.826  16.717   0.488  0.1577  0.1122 -0.2248
24605W        W40074  14.625  13.832   2.616  0.1599 -0.0850  0.1355
24606W        W40075  16.396   9.966   6.034 -0.0782  0.3322  0.0546
24607W        W40076  16.186   9.648   4.833  0.3502 -0.1403 -0.0385
24608W        W40077   9.975   0.890   0.264  0.1295 -0.2616 -0.1502
24609W        W40078   6.907  11.247   4.684 -0.0617  0.1112 -0.0478
24610W        W40079  14.265  12.432  14.213 -0.1630 -0.0933 -0.0781
24611W        W40080  12.017  11.969  11.819  0.1945  0.1894  0.2329
24612W        W40081  11.420  10.912  13.136 -0.1340  0.2035 -0.0585
24613W        W40082  11.449   1.590  14.278  0.1519 -0.0152  0.2148
24614W        W40083  10.313   6.263   5.215  0.1371  0.2341 -0.0473
24615W        W40084   8.824   5.114  15.323 -0.0912 -0.1415 -0.3422
24616W        W40085   9.356  12.246   1.430 -0.0931 -0.0371 -0.0937
24617W        W40086   2.450  17.397   1.510 -0.4211 -0.0813 -0.3341
24618W        W40087   0.085  16.980  14.670  0.0007 -0.1352  0.0364
24619W        W40088   1.031   7.580   1.922 -0.0715 -0.1157  0.0975
24620W        W40089   5.586   2.799   4.575  0.0988 -0.0081 -0.1480
24621W        W40090  11.633   9.763  13.307 -0.0485 -0.0252 -0.1527
24622W        W40091  17.620  16.971  13.834  0.2179  0.1962  0.3674
24623W        W40092   1.949  11.421   0.956  0.0217 -0.0916  0.3165
24624W        W40093   4.708  11.653   2.136  0.0580 -0.0886 -0.3333
24625W        W40094  17.519   0.943   4.997 -0.1626 -0.0147  0.0244
24626W        W40095   5.063   7.427  13.086  0.4995 -0.2422  0.1042
24627W        W40096  17.287  17.207   3.119  0.0056  0.1372  0.0342
24628W        W40097   3.675  10.422  15.524  0.2154 -0.1001  0.2693
24629W        W40098   1.686  11.055   2.914  0.1519  0.0195  0.2210
24630W        W40099   6.909  17.583  12.505 -0.0426  0.0215  0.0097
24631W        W40100   2.274  10.260  15.843  0.2136  0.2334  0.0780
24632W        W40101   4.533   6.913   0.022 -0.0954  0.0629 -0.2036
24633W        W40102  16.341  13.415   0.210 -0.1674  0.1600  0.1299
24634W        W40103  18.098   3.246   4.932  0.3786  0.0215  0.1679
24635W        W40104   8.509  12.098   2.164 -0.2888 -0.2099 -0.3894
24636W        W40105   0.271  11.106  13.102  0.2548  0.1381 -0.2497
24637W        W40106   3.165  12.152   5.167 -0.2430 -0.2886 -0.2404
24638W        W40107   2.375  18.352   0.615 -0.0346  0.0795  0.0889
24639W        W40108   8.191   7.414  15.094  0.2044 -0.1100 -0.1933
24640W        W40109   8.364   9.886  12.584  0.2164  0.1427 -0.0707
24641W        W40110   4.408   2.275   4.982 -0.0129  0.2435 -0.0821
24642W        W40111   1.178  16.756   4.099  0.2289  0.0515 -0.2210
24643W        W40112   5.316  16.209   3.810 -0.0436  0.1616  0.3839
24644W        W40113   1.470   8.498  12.615  0.1230 -0.0744 -0.1167
24645W        W40114  11.211  10.537   5.809  0.3404 -0.2459 -0.1498
24646W        W40115  16.253   7.909  10.641  0.0495  0.3434  0.0280
24647W        W40116   6.685   2.186  14.505 -0.0307 -0.0597  0.0126
24648W        W40117  15.027  11.915   0.891 -0.0299 -0.0355 -0.2322
24649W        W40118   6.988  16.603  15.658 -0.1487 -0.2142  0.1731
24650W        W40119   9.935   0.066  14.632  0.1771 -0.4053  0.0550
24651W        W40120   4.779  10.257  12.137  0.4788 -0.1256  0.0746
24652W        W40121  13.032  15.729  15.195 -0.1675 -0.0695 -0.3273
24653W        W40122   4.971   8.198   4.421  0.0292 -0.2333 -0.2013
24654W        W40123   8.443   1.090  12.560  0.1197 -0.2172  0.0703
24655W        W40124  11.673   8.278  14.538  0.0949 -0.0715  0.0917
24656W        W40125   3.575  18.186   3.874 -0.1792  0.0550  0.0236
24657W        W40126   9.549   7.352   5.161  0.2540 -0.0364  0.1060
24658W        W40127  10.076  11.371  14.524 -0.1229 -0.1705 -0.0272
24659W        W40128   3.630  11.518  10.972 -0.2734  0.2780  0.5651
24660W        W40129   6.099  16.203  11.423  0.2020 -0.3227  0.3174
24661W        W40130   6.972   9.793  15.639  0.1265 -0.2760 -0.1913
24662W        W40131  14.075   8.745   1.062  0.0621 -0.0345  0.0285
24663W        W40132  16.499  13.444   0.760 -0.0002  0.2734 -0.0601
24664W        W40133  10.144  15.755  14.415 -0.0889 -0.3501 -0.2223
24665W        W40134   7.146  13.833  13.524  0.1907 -0.4935  0.1299
24666W        W40135   8.160   2.429   4.626  0.0018 -0.0145  0.1683
24667W        W40136   8.236  12.913   4.182 -0.0268 -0.0375  0.3637
24668W        W40137   2.870  16.756  15.316 -0.3647 -0.1153  0.0649
24669W        W40138  10.560   5.447   4.702  0.1832 -0.0058  0.3634
24670W        W40139   6.488  16.902   4.728 -0.0212  0.2865 -0.0399
24671W        W40140  18.030   6.268   5.462 -0.0694 -0.2441  0.1705
24672W        W40141  12.036   9.877   1.237 -0.0210  0.2582  0.0395
24673W        W40142   3.600   1.833  14.750 -0.1923 -0.0017  0.0509
24674W        W40143  10.646   6.959   0.846  0.1368 -0.1780  0.3246
24675W        W40144   9.483  14.296  11.078  0.3480  0.1333  0.1022
24676W        W40145   4.032   8.744   0.059  0.2255 -0.2082 -0.3410
24677W        W40146  12.459  16.757   5.156 -0.0673  0.2186 -0.0336
24678W        W40147   0.933  10.580   0.420 -0.1483 -0.2264  0.0366
24679W        W40148   5.018  10.205   4.335 -0.0881 -0.0112  0.2980
24680W        W40149  10.572   5.526  11.686 -0.1490 -0.1131  0.1359
24681W        W40150   6.523   6.448  14.226  0.0247 -0.1221  0.1691
24682W        W40151   5.615  13.112   1.419 -0.0298  0.1974 -0.1274
24683W        W40152   4.583  15.042  11.212  0.0270  0.1216 -0.0497
24684W        W40153  15.936  17.471  12.875 -0.0893 -0.2986 -0.0103
24685W        W40154  17.158   3.302  15.907 -0.1646 -0.3974 -0.0941
24686W        W40155  14.723  16.968   5.437 -0.1637 -0.1671  0.4307
24687W        W40156   6.946   3.892   3.728  0.1184  0.2765 -0.0805
24688W        W40157   8.269  11.978   4.939 -0.1512 -0.1021  0.2454
24689W        W40158   1.527  10.834   3.552 -0.1342 -0.1964  0.0565
24690W        W40159   6.418  15.944   3.573  0.0557 -0.3423 -0.0396
24691W        W40160  12.537  10.810   0.266  0.0286  0.1343 -0.0380
24692W        W40161  18.021   3.126  11.847 -0.2274 -0.0283  0.0290
24693W        W40162  16.807   0.785   4.282 -0.1853  0.0452 -0.2615
24694W        W40163   2.230   9.903  11.846 -0.3769 -0.3868 -0.0840
24695W        W40164   7.670  14.197  10.482  0.1758  0.1197  0.1252
24696W        W40165  11.004   8.598  15.341 -0.1221 -0.1713  0.2456
24697W        W40166   8.960   1.969   0.298  0.1113  0.4313  0.1939
24698W        W40167   0.319   6.806   2.724  0.0700  0.0822 -0.0814
24699W        W40168   1.490  11.237   5.009 -0.3050  0.0673  0.1486
24700W        W40169   6.498  16.272  12.836  0.0823 -0.1570 -0.1677
24701W        W40170  10.699   2.891  14.585  0.2681 -0.1022 -0.0554
24702W        W40171   9.136  17.484  12.207 -0.1013  0.1480 -0.0072
24703W        W40172  14.984   9.056   5.865  0.0977 -0.3219 -0.1550
24704W        W40173  16.992  15.444  15.948  0.1249  0.0723 -0.0350
24705W        W40174  11.390   4.541   0.748  0.3591 -0.0198 -0.0089
24706W        W40175   1.436   3.677  12.292 -0.0517 -0.7699  0.1969
24707W        W40176   4.869  16.789  11.561  0.1986 -0.1826  0.0586
24708W        W40177  15.620   5.572   2.786  0.0131 -0.3787 -0.1178
24709W        W40178  16.626  16.928  12.956  0.1756  0.0283  0.2386
24710W        W40179  13.205  12.549  13.281 -0.3041 -0.2864  0.0084
24711W        W40180  10.413  10.354   1.512  0.0950 -0.0555 -0.5269
24712W        W40181  14.487   7.603  15.909  0.0972 -0.2804  0.1659
24713W        W40182   7.767   5.162  15.766  0.0191  0.3279 -0.0809
24714W        W40183   5.111   4.046  14.166  0.1254  0.1772  0.0025
24715W        W40184  15.966   6.872  11.902  0.0525  0.1987  0.0807
24716W        W40185  16.085   7.379  15.549  0.2823 -0.1977 -0.2261
24717W        W40186   7.015  18.429   3.409 -0.2600 -0.3221  0.0209
24718W        W40187   0.266   9.031   1.373  0.2393  0.2038 -0.2042
24719W        W40188   7.300  18.083  12.511 -0.1924  0.1948  0.0457
24720W        W40189  13.658   4.823   0.583  0.1519  0.0550 -0.2973
24721W        W40190   1.524   2.820   3.259  0.1273 -0.0059  0.0610
24722W        W40191   4.721  15.589   4.069  0.0459  0.0132  0.2955
24723W        W40192  12.747   3.625   2.139  0.0648  0.0161 -0.3442
24724W        W40193  16.756   9.122   4.143  0.0938 -0.0520 -0.2390
24725W        W40194   2.380  17.919  13.106 -0.1719  0.2972  0.3237
24726W        W40195   8.260   0.740   0.994 -0.1181 -0.2635 -0.3377
24727W        W40196  18.158   9.214  12.033 -0.1823  0.1677  0.1141
24728W        W40197   7.068  14.800   1.275  0.2685 -0.3255  0.0317
24729W        W40198   4.308   4.664   1.295 -0.0053 -0.2327 -0.1773
24730W        W40199   6.232   8.019  11.923 -0.0113  0.3102  0.0248
24731W        W40200  12.197  13.476   0.723  0.0109  0.1514 -0.1057
24732W        W40201  11.410   1.541   0.624 -0.2048  0.2056  0.1835
24733W        W40202   8.277   7.932  14.608  0.0874  0.1200  0.1374
24734W        W40203   9.740   4.742  13.246  0.0355 -0.2114  0.0619
24735W        W40204   3.503  13.399   0.183  0.1292  0.0868 -0.1375
24736W        W40205   8.577   3.567  13.748  0.0083  0.2331 -0.0065
24737W        W40206  17.128  16.967  14.104  0.3317  0.0711  0.1026
24738W        W40207  13.209   4.141  14.209 -0.4163  0.0906 -0.0569
24739W        W40208   2.194   7.814   2.888 -0.3830 -0.3061 -0.0472
24740W        W40209  10.298  10.313   4.024 -0.1857  0.0546  0.2479
24741W        W40210  11.629  11.195  15.634 -0.0023 -0.0672  0.1492
24742W        W40211   6.893  15.989   4.488 -0.1111 -0.0397 -0.0905
24743W        W40212  16.269  14.411  15.213 -0.1672  0.0736  0.1448
24744W        W40213  13.447   9.671   4.578  0.1009 -0.1041  0.1164
24745W        W40214  11.604   6.503  12.207  0.3526  0.1207  0.2315
24746W        W40215  15.009  15.017  13.654  0.1442  0.0227  0.1737
24747W        W40216  12.275   1.997  11.893 -0.0237 -0.1620  0.1933
24748W        W40217  17.332  12.411  15.235 -0.3079  0.1318  0.0706
24749W        W40218  11.821   0.202   0.517 -0.0855  0.1252 -0.0181
24750W        W40219  12.459  16.823   0.161 -0.0716  0.2658 -0.0484
24751W        W40220  16.229  11.586  14.339 -0.0986  0.0750 -0.1507
24752W        W40221  10.620  16.850   3.799 -0.2418 -0.1479  0.3455
24753W        W40222   8.834   5.690  15.252  0.2679 -0.1528  0.0838
24754W        W40223   2.270  17.254   2.582 -0.2836  0.1285  0.1611
24755W        W40224  10.514  15.838   4.616  0.0257  0.1281  0.2400
24756W        W40225  17.940  12.256   1.010 -0.2112 -0.0656 -0.0038
24757W        W40226   0.978   8.590  15.078  0.0425 -0.2513  0.1549
24758W        W40227   7.343   5.917   0.237 -0.1962 -0.6245  0.1760
24759W        W40228  13.614  10.014   0.617 -0.2866  0.2303 -0.0767
24760W        W40229  10.635  11.408  11.099 -0.3479  0.0316  0.0048
24761W        W40230  16.697   8.400   3.445 -0.0664  0.0448 -0.3698
24762W        W40231  14.334  16.422   3.234  0.1675  0.2486  0.1213
24763W        W40232  13.366  13.293  14.988 -0.1118  0.1517 -0.0703
24764W        W40233   0.504  14.586  11.668  0.1115 -0.1142  0.0573
24765W        W40234   7.672   2.611  15.515 -0.0052  0.4260 -0.4095
24766W        W40235   4.424   1.140   5.573  0.0779 -0.2097  0.0253
24767W        W40236  15.341   8.122  12.386 -0.0724  0.0981 -0.0443
24768W        W40237   9.102   6.756  12.722 -0.0340  0.0855  0.3859
24769W        W40238   8.161   5.603  13.951 -0.3763 -0.0222  0.3246
24770W        W40239   3.057  10.804   3.499 -0.1302 -0.0697  0.2292
24771W        W40240  10.109   6.462  13.682 -0.1800  0.3858  0.2067
24772W        W40241   6.490   3.572   0.119  0.1082  0.3679 -0.2263
24773W        W40242  13.354  15.469  12.352 -0.2359 -0.1465 -0.2106
24774W        W40243  13.656  15.152   1.414  0.0968  0.3011 -0.1533
24775W        W40244  16.623   3.589   1.138  0.0222  0.1221 -0.0248
24776W        W40245   3.996  10.540  12.648 -0.2423 -0.1517 -0.0176
24777W        W40246   9.763  16.524  15.607 -0.1058 -0.2383 -0.1864
24778W        W40247  11.152   7.401  12.552 -0.0995 -0.2311 -0.1833
24779W        W40248   8.675   5.533  13.976 -0.1986 -0.0027  0.0714
24780W        W40249   7.071  14.527   2.076 -0.0716  0.1275 -0.1391
24781W        W40250  10.847   4.081  15.412  0.2228  0.1812 -0.1388
24782W        W40251  16.919  15.386   2.592  0.4000  0.0925  0.3687
24783W        W40252  10.124  15.195   0.409  0.0601 -0.1581 -0.2767
24784W        W40253   7.133   6.435  12.221  0.2513 -0.1795 -0.1449
24785W        W40254  14.769   4.393  13.528 -0.3886 -0.0386 -0.1848
24786W        W40255   3.048  15.010  12.243  0.0407  0.1211 -0.0716
24787W        W40256   2.046   6.947  14.399 -0.1169 -0.2625  0.1849
24788W        W40257  16.948  17.169  13.690 -0.1880  0.0980  0.1812
24789W        W40258  16.357   2.416  11.501 -0.2259 -0.1832  0.1952
24790W        W40259  16.608  11.805  15.234  0.2014 -0.0790  0.1639
24791W        W40260  15.629   4.600   4.536 -0.1471  0.0375  0.1192
24792W        W40261   3.417  16.817  12.342  0.0268 -0.0669  0.1223
24793W        W40262   2.857   7.255  13.868 -0.0156 -0.1206  0.0861
24794W        W40263  11.166  14.280  11.176  0.1522  0.1397 -0.0690
24795W        W40264  12.342  14.445  11.881 -0.0026  0.1431  0.0354
24796W        W40265  17.897   1.325  15.289 -0.1615 -0.0598  0.1735
24797W        W40266   6.706   5.951   3.366  0.1129  0.1349  0.0653
24798W        W40267   5.507   3.113   4.994  0.1326 -0.1531  0.0521
24799W        W40268   6.821   5.207   2.843  0.0464 -0.0687 -0.0623
24800W        W40269  16.280   2.677  13.608  0.1812 -0.3244 -0.0056
24801W        W40270   0.336  12.416  14.746 -0.0692  0.1397 -0.2624
24802W        W40271  16.479  15.415  12.011 -0.0970 -0.3013 -0.1008
24803W        W40272   0.841   0.119  12.380 -0.0677 -0.4458  0.1560
24804W        W40273   7.046   3.993   4.237  0.2053 -0.2588 -0.0252
24805W        W40274   1.223   8.935  11.447  0.0856  0.3184  0.1118
24806W        W40275  12.791   3.078   3.981 -0.0856 -0.3645 -0.1489
24807W        W40276  12.538  11.270   0.030  0.0340 -0.2742 -0.0849
24808W        W40277   1.898   1.565   4.881  0.3378  0.0637  0.0885
24809W        W40278   5.178   1.060   0.798  0.0297  0.1720  0.2073
24810W        W40279  11.764  15.653   0.807  0.1338  0.0369 -0.0429
24811W        W40280   9.566  13.105  13.912  0.1855  0.2373 -0.1689
24812W        W40281  17.499  11.374  15.250 -0.4349  0.1998 -0.0396
24813W        W40282  14.546   6.479   3.663  0.2416  0.5374  0.0105
24814W        W40283   8.789  15.703  11.834 -0.2542 -0.2295 -0.2009
24815W        W40284   0.982   5.713  11.615 -0.2544  0.1762  0.2676
24816W        W40285   7.477   6.143  12.224 -0.1013 -0.0050  0.2403
24817W        W40286   3.171  13.700   0.990  0.2759 -0.0100 -0.2398
24818W        W40287  13.769  13.191   5.874  0.0810  0.2282 -0.0760
24819W        W40288  13.319   8.320   5.303  0.1810  0.3246 -0.2178
24820W        W40289  11.301  14.434   1.178  0.0064 -0.1066 -0.1015
24821W        W40290   8.123  17.817  14.468  0.2753 -0.1369  0.0334
24822W        W40291  11.981  10.702  11.592  0.3492  0.1471  0.2294
24823W        W40292  12.242   5.578   1.393  0.3005  0.0174  0.0159
24824W        W40293  13.295  13.481  13.600 -0.1008 -0.1716  0.1345
24825W        W40294  11.171  16.179  14.169  0.0983 -0.0328  0.0040
24826W        W40295   0.623  10.667  13.958 -0.0054  0.0281 -0.4797
24827W        W40296   3.665   7.442   2.554  0.3249 -0.0132  0.1236
24828W        W40297  11.901   5.092   1.503 -0.1519  0.2150  0.2541
24829W        W40298   3.295   4.898  13.265  0.1665  0.2112  0.0145
24830W        W40299   6.373   5.064  15.564 -0.1634 -0.2020  0.1181
24831W        W40300   3.859   6.585  13.509 -0.0246  0.0901  0.2492
24832W        W40301  17.683   0.481  15.361  0.4040 -0.1913 -0.2845
24833W        W40302  12.665   4.342  13.139 -0.1253 -0.0963  0.3573
24834W        W40303   9.297  16.344  12.463  0.0216 -0.0304 -0.1176
24835W        W40304  17.364  17.812   2.403  0.3561  0.1773  0.0761
24836W        W40305   6.914  18.391   4.444 -0.2832 -0.1324 -0.4012
24837W        W40306   6.531   5.493   3.208  0.2047  0.3049 -0.0735
24838W        W40307  15.225   3.293   1.040  0.0231 -0.3805 -0.3981
24839W        W40308   5.184  14.669   1.162 -0.1328  0.3398 -0.1542
24840W        W40309   8.930  12.399   4.237  0.1753  0.0864 -0.2610
24841W        W40310   2.749   3.379   0.992 -0.0445  0.1690 -0.2822
24842W        W40311   1.539  12.086   4.124  0.0202  0.2702  0.3367
24843W        W40312   1.867   3.884   2.692  0.1175  0.1135  0.0820
24844W        W40313  12.991  10.326   3.617 -0.1467  0.0542 -0.1929
24845W        W40314   1.071   2.214  14.730  0.0315 -0.1591  0.2740
24846W        W40315  10.418   3.442  13.485  0.3542  0.2510 -0.0647
24847W        W40316  11.327  10.738  14.971 -0.1298 -0.0702  0.2054
24848W        W40317  11.401   8.833   5.803 -0.0056 -0.1919 -0.4022
24849W        W40318   0.507   9.181   4.825  0.2253  0.1546  0.1638
24850W        W40319   7.747   9.835  13.428 -0.0203 -0.0069  0.0215
24851W        W40320  14.296  18.078   2.052  0.4708  0.1142  0.0751
24852W        W40321  13.077  18.004   3.682 -0.0020 -0.0578 -0.2056
24853W        W40322   1.878  17.747   4.974  0.1542  0.0839  0.3395
24854W        W40323  12.038   7.991   4.565  0.2890 -0.0615 -0.3250
24855W        W40324   8.035  11.094   2.712 -0.0811  0.1311 -0.0828
24856W        W40325  14.499  16.063   0.206  0.1014  0.0457 -0.0631
24857W        W40326   5.939   1.141  10.640  0.0308  0.1489 -0.0850
24858W        W40327   8.355  18.354  14.403 -0.0934 -0.3976 -0.2693
24859W        W40328   4.225   1.040   2.967  0.0492  0.3113 -0.2930
24860W        W40329  13.977   3.413   0.529  0.0252  0.0921 -0.0414
24861W        W40330  10.913   5.793   4.849 -0.2629  0.2035  0.2107
24862W        W40331   8.985  15.907  11.333  0.0476 -0.0512  0.4348
24863W        W40332  18.084  14.683   2.102  0.0196  0.0811 -0.0008
24864W        W40333  10.785  17.691   0.300 -0.0078  0.1723 -0.0577
24865W        W40334  13.647   2.897   0.608  0.2059  0.0564 -0.2488
24866W        W40335  16.972  11.966  13.600 -0.2582  0.2815  0.0091
24867W        W40336   5.296  17.352   3.546  0.0241 -0.1140 -0.0091
24868W        W40337   2.476   5.612   5.522  0.1230 -0.1193 -0.3636
24869W        W40338  11.062  10.581  10.450 -0.3741  0.3386  0.1383
24870W        W40339   8.946   0.634   2.527 -0.2013  0.1578  0.0931
24871W        W40340  16.709   7.783   0.811  0.1277  0.0317  0.1002
24872W        W40341  10.743  10.309  10.935 -0.0154  0.3067 -0.2593
24873W        W40342  10.646   6.343  15.907 -0.1744  0.0005  0.0968
24874W        W40343  15.502   5.760  12.546 -0.0418  0.1585 -0.0147
24875W        W40344  10.246  10.853  13.671 -0.1551 -0.1464  0.0761
24876W        W40345   8.310   2.515   0.909 -0.0124 -0.1859  0.0806
24877W        W40346   8.660  16.127   4.709  0.0524  0.0028 -0.0535
24878W        W40347  14.622   8.583  13.256  0.0198  0.1309 -0.0054
24879W        W40348  12.140   9.238   5.630  0.0365  0.2196  0.2317
24880W        W40349   2.528   2.524   2.565 -0.0041  0.3432 -0.1101
24881W        W40350  14.626  16.960  12.612 -0.4257  0.3236 -0.1901
24882W        W40351  10.813   9.758  11.462 -0.1702 -0.0316 -0.1895
24883W        W40352  15.107  12.514  12.526  0.0135 -0.1151  0.2791
24884W        W40353  11.467  16.288   1.119  0.3393  0.2339 -0.1773
24885W        W40354  11.556   8.506   2.714 -0.0084  0.2091  0.3973
24886W        W40355   2.674   5.471  13.986 -0.2076 -0.1796  0.1817
24887W        W40356   8.875  17.159   4.304  0.0954 -0.5265  0.1142
24888W        W40357   7.951  15.928  14.844  0.0405  0.0073  0.0256
24889W        W40358  13.076   0.790  14.098  0.0537 -0.2283  0.0668
24890W        W40359   4.945  11.940   1.740  0.0649 -0.0729  0.2474
24891W        W40360  15.278  17.317  12.173  0.0208 -0.3618 -0.0122
24892W        W40361   6.874   9.710  13.113 -0.2398  0.0432  0.3170
24893W        W40362   8.990   8.747   0.354 -0.1284  0.0112 -0.3067
24894W        W40363  12.834  13.286  14.906 -0.0681  0.2130  0.0183
24895W        W40364   9.969   8.450   4.626  0.0216 -0.1894  0.0953
24896W        W40365  11.225  16.810   3.652 -0.1346 -0.1249  0.2671
24897W        W40366   6.742  16.780  15.188  0.0921 -0.3496 -0.1392
24898W        W40367   1.870  16.052   0.302 -0.2602  0.0188  0.0007
24899W        W40368   0.740   2.637  14.876 -0.0864  0.2459 -0.0368
24900W        W40369   9.400  14.731  10.341 -0.0083 -0.0720  0.2174
24901W        W40370   0.077  15.502   4.514 -0.1337  0.0173 -0.1536
24902W        W40371  16.235   0.194  13.632  0.0686  0.0163 -0.2180
24903W        W40372   3.545   4.040  15.853  0.3980 -0.3629  0.4334
24904W        W40373   8.848   3.253   5.553 -0.1246 -0.1300 -0.1961
24905W        W40374   4.609   7.038  15.412  0.0425 -0.1364 -0.2402
24906W        W40375   9.920   5.046   5.768 -0.0768  0.0920  0.2172
24907W        W40376  13.662  13.368   2.699 -0.0902 -0.1110  0.3277
24908W        W40377  10.042   8.487  11.137  0.2429 -0.1225  0.0777
24909W        W40378   4.498   1.990  15.410  0.3237  0.0805 -0.2683
24910W        W40379   5.133  16.120  12.258 -0.0837  0.1240  0.1176
24911W        W40380   6.030  13.446  13.129  0.1274 -0.1619 -0.1464
24912W        W40381   5.967   8.015   0.597 -0.0700  0.2215 -0.2963
24913W        W40382   2.399   0.995  12.153  0.1595 -0.1107 -0.0042
24914W        W40383  11.743  14.020   1.335 -0.3714 -0.2120 -0.0241
24915W        W40384   6.147   9.193   3.158 -0.2314  0.1101  0.0375
24916W        W40385  11.688  10.336   1.382  0.2138  0.3286  0.1425
24917W        W40386   0.979   3.084  10.864  0.0053  0.2371 -0.2187
24918W        W40387  14.160   4.456  14.453 -0.0594  0.0360  0.1892
24919W        W40388   7.230   4.923  11.036 -0.1152 -0.0373  0.1936
24920W        W40389  14.653  16.869   6.242 -0.0861 -0.1163  0.1315
24921W        W40390  16.028  11.182   4.570  0.1998 -0.0052 -0.0844
24922W        W40391   7.641   9.579   5.142  0.0464 -0.0415 -0.3409
24923W        W40392   4.495  14.554  15.489 -0.2733 -0.1984  0.2324
24924W        W40393   3.393   4.668   5.605 -0.0266  0.0672 -0.4276
24925W        W40394  17.950  15.511   0.355  0.0294 -0.1797 -0.0554
24926W        W40395  14.789  11.774   3.284 -0.0477  0.3653  0.1527
24927W        W40396  11.878   8.550  14.203 -0.1655 -0.1012 -0.0932
24928W        W40397  11.362  13.041   1.457 -0.3546 -0.1797 -0.1027
24929W        W40398  13.431   9.276  12.911  0.1334 -0.3449  0.0053
24930W        W40399   0.483   8.898  14.173 -0.1612  0.2868 -0.2338
24931W        W40400  18.075  17.895   4.335  0.0472  0.0360  0.2259
24932W        W40401  15.359   2.223   2.971 -0.2346 -0.1301  0.2610
24933W        W40402   7.252   9.210   0.176  0.0626 -0.0531 -0.0184
24934W        W40403  10.716   0.544   1.565  0.1865 -0.0384  0.4633
24935W        W40404   9.986  17.679   1.873  0.1102 -0.0976 -0.1618
24936W        W40405   9.260  13.215  15.943 -0.0373  0.0107 -0.0464
24937W        W40406  18.338  17.436   0.406 -0.1245  0.0073  0.0208
24938W        W40407  12.365   3.607   0.088  0.0178  0.2010 -0.0992
24939W        W40408   6.499   8.589  15.900 -0.0846  0.0375  0.0826
24940W        W40409   9.303   5.189  11.366  0.2331 -0.0447  0.2203
24941W        W40410  13.469   2.142   1.743 -0.0495  0.0742 -0.0950
24942W        W40411   9.494  14.831  14.306 -0.0793 -0.3516  0.1825
24943W        W40412  11.608   4.065  11.268 -0.3014 -0.0469 -0.0682
24944W        W40413  11.960   3.519   0.371  0.0195  0.0025  0.0268
24945W        W40414   7.197   5.485  12.764  0.0994 -0.2142  0.0744
24946W        W40415  16.486   9.018   0.427 -0.0893  0.2459  0.1009
24947W        W40416  11.746  16.634   2.392  0.0422  0.1770 -0.1156
24948W        W40417  13.011  15.110   0.516  0.2902  0.1087  0.0069
24949W        W40418  11.944  11.636   1.591 -0.2212 -0.1900  0.0626
24950W        W40419   6.530   7.354  11.383  0.2408 -0.3364 -0.2885
24951W        W40420  10.547   6.154   6.091  0.1628  0.0153 -0.2231
24952W        W40421   0.951   0.234   5.136 -0.0296 -0.0172  0.0399
24953W        W40422  14.567   4.344   5.237 -0.0034 -0.3574 -0.1125
24954W        W40423  17.546  16.942  14.363 -0.0463 -0.1796 -0.2369
24955W        W40424  10.732   0.477   0.678 -0.2502  0.3686 -0.1646
24956W        W40425  17.516  14.416  15.875 -0.2672  0.0478  0.3881
24957W        W40426  17.615   6.638  14.889  0.0921  0.0221  0.3145
24958W        W40427  13.911   1.258  15.124  0.0541  0.0492 -0.0522
24959W        W40428  12.830  11.373   3.487  0.3444 -0.1678 -0.1796
24960W        W40429  14.571  15.547   4.223 -0.0941  0.2642 -0.0353
24961W        W40430   5.756   3.251  14.336  0.0319  0.2820 -0.2352
24962W        W40431  11.809   8.620   0.641 -0.1598 -0.0191 -0.0010
24963W        W40432  17.400   2.521  15.685  0.2751  0.0768 -0.2858
24964W        W40433  15.516  10.253   1.748 -0.0507 -0.2993 -0.0543
24965W        W40434  17.448   4.481  10.383 -0.4398 -0.1136 -0.2363
24966W        W40435  14.857   0.656  13.126 -0.1765 -0.0113  0.0935
24967W        W40436  17.589  14.415   4.430  0.1350 -0.0019 -0.3119
24968W        W40437   6.871   0.789  11.478  0.4794 -0.0866 -0.2769
24969W        W40438   3.396   7.407  15.440 -0.2019  0.5069 -0.0490
24970W        W40439   2.298  15.156   5.092  0.0039  0.1113  0.0384
24971W        W40440   3.331   3.011   1.579 -0.2441 -0.2502  0.1293
24972W        W40441  12.371   1.628  11.569  0.0415  0.0911  0.1873
24973W        W40442  14.984   9.639  14.845 -0.2900 -0.1377 -0.0355
24974W        W40443   1.826  17.412   0.261 -0.0159  0.1028  0.0794
24975W        W40444  12.531  13.494   1.309  0.1336  0.0834  0.0681
24976W        W40445  12.072   5.193  15.739  0.0094  0.0985  0.3848
24977W        W40446   8.393   4.969  13.278 -0.2711  0.1368  0.0309
24978W        W40447  15.316  17.764  11.818  0.1900 -0.0950 -0.3872
24979W        W40448  16.880   8.712   5.086 -0.1122  0.2188  0.0826
24980W        W40449  17.045  14.146  15.356 -0.0363  0.0195  0.0886
24981W        W40450   2.539   9.853   3.380  0.1510  0.4808 -0.1986
24982W        W40451  15.838  14.164  14.170  0.3227  0.1361  0.0271
24983W        W40452   4.938  16.016  12.741 -0.1329 -0.3314 -0.0145
24984W        W40453  10.030   5.277   1.562  0.0069 -0.0072  0.0738
24985W        W40454  17.614   2.484  11.911 -0.0329 -0.1556  0.0840
24986W        W40455   4.435   2.661   9.827 -0.1631 -0.1649  0.3362
24987W        W40456  16.143   8.742  14.327 -0.3668 -0.1961 -0.0964
24988W        W40457  11.670   2.580   3.127  0.0044 -0.2460 -0.0421
24989W        W40458   5.784  13.079  13.390 -0.1359  0.0251 -0.0547
24990W        W40459   5.694   5.632  15.616  0.3632 -0.1282  0.0452
24991W        W40460  13.249  11.308  12.242  0.3139 -0.1682  0.0660
24992W        W40461   7.420   9.587  13.070 -0.0761 -0.1338  0.2102
24993W        W40462   8.377  13.207   5.657 -0.0011 -0.0419  0.1490
24994W        W40463   6.611  12.846   1.826  0.3406  0.0940  0.0278
24995W        W40464  12.204   8.617  12.601 -0.1300  0.1283 -0.2430
24996W        W40465  14.424   3.457   2.056  0.1805  0.1465 -0.1006
24997W        W40466  10.634   1.889   5.110  0.0608 -0.1482  0.3484
24998W        W40467   5.649  10.367  11.014 -0.1171 -0.3586 -0.3297
24999W        W40468   6.704  17.623   3.622  0.3016 -0.0252  0.0784
25000W        W40469   2.854  10.117  13.140  0.3590 -0.1456 -0.1348
25001W        W40470   6.478   7.752  14.464  0.0083  0.3331 -0.0790
25002W        W40471   6.896  10.055   2.005 -0.3866 -0.1604 -0.1170
25003W        W40472  10.375   8.827   1.889  0.1523 -0.1862 -0.1424
25004W        W40473  15.263   2.488  11.192  0.1979  0.0334  0.2110
25005W        W40474  16.229   7.003   2.158 -0.1717  0.1337  0.1242
25006W        W40475   0.713  14.158   2.482 -0.1289 -0.0372  0.0341
25007W        W40476   4.145   4.617   0.405 -0.2048  0.2154 -0.0212
25008W        W40477  10.312  12.485   5.081  0.0094 -0.0302 -0.1827
25009W        W40478  14.441  16.623   0.903  0.4255 -0.1791 -0.0473
25010W        W40479   3.103  15.180   1.930  0.3404  0.1333 -0.0419
25011W        W40480   3.566  15.318   1.618 -0.2115 -0.0036 -0.3964
25012W        W40481   3.002  14.411   2.601 -0.1148 -0.0959 -0.0589
25013W        W40482   5.438  13.328   1.023 -0.2473 -0.0405 -0.1022
25014W        W40483   6.099  16.301  13.264 -0.2656 -0.0230  0.1971
25015W        W40484   3.868  14.232   2.330 -0.0426 -0.1120 -0.2649
25016W        W40485   8.039   9.286  15.738 -0.1783  0.2318  0.1679
25017W        W40486   1.894   6.730   3.580  0.3336  0.0311 -0.1642
25018W        W40487   5.905   1.988   1.924  0.2182  0.1292 -0.0943
25019W        W40488  14.504  18.005  14.272  0.0179 -0.0382  0.1638
25020W        W40489  12.920  12.869  15.700 -0.1356  0.2338  0.0198
25021W        W40490  11.736   9.909   3.873  0.0939 -0.1349  0.4990
25022W        W40491   0.837  10.568  14.509  0.0568 -0.1222 -0.3817
25023W        W40492  14.340   1.280  16.017  0.0386 -0.1182  0.5403
25024W        W40493   2.636   9.340   4.562 -0.3287  0.4004 -0.0053
25025W        W40494   2.527   9.886   0.148 -0.0904  0.2430  0.2316
25026W        W40495   5.004   5.238   1.515  0.2970 -0.3433  0.0909
25027W        W40496   1.536  17.702   5.962  0.0247  0.0909 -0.0276
25028W        W40497  15.794   4.527  11.469  0.0920 -0.0215 -0.2517
25029W        W40498  12.862   1.846   1.897 -0.4076 -0.0540  0.2250
25030W        W40499  17.190   8.301   1.618 -0.0343  0.1592  0.1185
25031W        W40500  13.925  16.692   3.919  0.0801 -0.3914  0.0631
25032W        W40501  12.452  17.929   3.562  0.4607  0.1588  0.2963
25033W        W40502  10.971   7.288  15.207  0.0702  0.0504 -0.4115
25034W        W40503   6.149  14.496  14.167 -0.1173 -0.0234 -0.3299
25035W        W40504  10.491  18.462  10.894 -0.2683  0.0235  0.0898
25036W        W40505   1.595   1.132  12.771  0.0918 -0.0898  0.2876
25037W        W40506  11.149  15.841  14.515 -0.1280  0.3143  0.0247
25038W        W40507  16.203  13.140  15.231  0.0028  0.1278 -0.0251
25039W        W40508   1.275  15.897   4.206  0.1817  0.0156  0.0535
25040W        W40509  17.700   1.790  15.417 -0.1731  0.0233 -0.0351
25041W        W40510  14.117  15.123   9.888 -0.0666  0.0846  0.3682
25042W        W40511   3.569   5.814  12.933 -0.3863  0.0806 -0.1493
25043W        W40512  12.232  11.772  14.917 -0.0870  0.1510  0.0020
25044W        W40513  12.469   0.961  12.344 -0.1143 -0.1273 -0.2116
25045W        W40514   7.423   3.497   3.039  0.1545 -0.0984  0.2040
25046W        W40515   1.540  11.563  13.537  0.1256  0.3536 -0.1024
25047W        W40516   0.482  10.096  12.865  0.3975 -0.1383  0.3759
25048W        W40517   7.012   8.909   3.315 -0.0768 -0.3541  0.1061
25049W        W40518   8.578   6.890  15.259  0.1109  0.1005  0.1870
25050W        W40519  15.245  10.874  14.497  0.0143  0.2572  0.2439
25051W        W40520  17.742  14.570   5.581  0.0868 -0.0885 -0.2529
25052W        W40521   1.738  10.012  15.707 -0.2086 -0.3095  0.3612
25053W        W40522  11.928  10.257   1.976  0.1995 -0.3361  0.3396
25054W        W40523  18.357   0.831   2.483 -0.1820 -0.0047 -0.0928
25055W        W40524   5.312  11.460  13.259 -0.1682 -0.0859 -0.0170
25056W        W40525   1.860  13.190  15.372  0.5057 -0.3668  0.0711
25057W        W40526   9.136  15.337  12.658 -0.1366  0.1844 -0.0312
25058W        W40527   1.671  11.087   1.164  0.0783  0.0147 -0.2899
25059W        W40528   6.198  12.585  14.485 -0.2855  0.0995  0.1456
25060W        W40529  12.836   7.594  11.468  0.2570 -0.3935 -0.0057
25061W        W40530  12.264  17.363  14.573  0.0983 -0.0238 -0.1293
25062W        W40531   8.431  13.585   0.090  0.0870  0.1684  0.0892
25063W        W40532  15.405  17.773   3.270 -0.0039  0.0560 -0.2266
25064W        W40533   8.708  14.905  11.413  0.2261  0.0115  0.1793
25065W        W40534   0.589  17.573  11.746 -0.0881 -0.0623 -0.0799
25066W        W40535   0.194  12.734  12.723 -0.0577 -0.1162  0.0976
25067W        W40536   2.952   5.351   2.152  0.0726 -0.2723 -0.1830
25068W        W40537  14.208   7.049   4.469 -0.0452  0.2411 -0.5018
25069W        W40538   8.346   5.030  13.826 -0.0436 -0.2350  0.1365
25070W        W40539   1.718  11.373   3.502  0.0744  0.0234 -0.1309
25071W        W40540   5.373  10.024   3.488 -0.1316 -0.0470 -0.3465
25072W        W40541   3.208   1.964  15.521 -0.2773  0.2763 -0.0587
25073W        W40542  11.490  12.087  13.015 -0.0721 -0.3372  0.0907
25074W        W40543  17.447   0.326   1.105 -0.1527 -0.4283 -0.1223
25075W        W40544  14.339  12.425   1.216  0.0202 -0.1039  0.4060
25076W        W40545   5.446   4.529   2.029  0.1250  0.4578  0.1416
25077W        W40546   3.656   7.243   4.056  0.0233 -0.1260  0.1824
25078W        W40547   8.216   0.974   0.505  0.1266 -0.1557 -0.2332
25079W        W40548   0.494   7.461   0.790  0.2370 -0.1662  0.0412
25080W        W40549  12.430   3.938  10.299 -0.2768 -0.0739  0.0429
25081W        W40550  11.023  10.199  13.510  0.1841  0.3501 -0.0225
25082W        W40551   7.716   9.369  15.345 -0.1136 -0.4097 -0.2430
25083W        W40552   6.258  17.658   3.977  0.0336  0.1434  0.0306
25084W        W40553  15.550  17.516   4.388  0.0327  0.1168  0.1181
25085W        W40554   8.747  16.215  11.805 -0.1410 -0.1697 -0.0651
25086W        W40555   4.435  14.008   1.470 -0.1077  0.0460  0.0817
25087W        W40556   6.497   7.151  12.228  0.0856  0.3119 -0.2684
25088W        W40557   3.635   2.986   5.220  0.1959  0.2153  0.0311
25089W        W40558  17.623  17.565  15.398  0.1416  0.1274  0.0899
25090W        W40559   8.471   8.785   0.504  0.2986  0.0334  0.1007
25091W        W40560  14.196  11.354  14.503  0.1200  0.0131  0.0649
25092W        W40561   2.188   8.657  14.354  0.4791  0.3537  0.1216
25093W        W40562   6.333   1.537   2.357  0.0040 -0.0319  0.3160
25094W        W40563  17.117  10.750   2.318  0.0751  0.1996 -0.0985
25095W        W40564  14.105  10.521  15.532 -0.1748 -0.0767  0.1043
25096W        W40565   8.706   4.065  11.813 -0.0304  0.0992 -0.2570
25097W        W40566  18.402   7.694  12.618  0.0042  0.0377  0.0815
25098W        W40567  14.323  17.455   0.502  0.1038 -0.0028  0.0405
25099W        W40568  16.142  12.609   4.466  0.0401  0.3293 -0.0361
25100W        W40569   4.513   2.661  11.376 -0.0469  0.0308 -0.0187
25101W        W40570   7.709   1.025   4.043  0.1762 -0.0402  0.0143
25102W        W40571   0.052   6.329  11.938  0.1094  0.1902  0.1988
25103W        W40572   0.591  12.161  12.052  0.0836  0.1079 -0.2752
25104W        W40573   2.395  16.798   0.118 -0.0001 -0.6773 -0.2417
25105W        W40574  12.795  13.688  15.319  0.4594  0.2809 -0.1208
25106W        W40575   4.450   6.546   2.783  0.1390  0.0997  0.2041
25107W        W40576   9.893  14.553   3.907  0.0071 -0.0915  0.0013
25108W        W40577  17.471   1.275  10.725 -0.0769  0.2534  0.0042
25109W        W40578  15.399   7.106  14.933 -0.2147  0.1701  0.0572
25110W        W40579  10.590   8.385  10.149 -0.2534 -0.0488 -0.2352
25111W        W40580  11.312  15.761  12.992  0.2225 -0.1006 -0.4364
25112W        W40581   2.103  15.523   2.783  0.2956 -0.1941 -0.4051
25113W        W40582  13.721   5.913  12.172  0.0047  0.0287  0.3279
25114W        W40583   0.571  12.988  14.484  0.0489 -0.1282 -0.0889
25115W        W40584  16.488  10.943  11.804 -0.0755  0.1265 -0.2813
25116W        W40585   6.973   2.745  15.079 -0.3782  0.1180 -0.2057
25117W        W40586  10.419  16.962  15.279  0.1014  0.0476 -0.3288
25118W        W40587   3.807   8.447   5.268 -0.2981 -0.0259  0.1492
25119W        W40588  12.622   8.996   5.416 -0.1623  0.0469 -0.1566
25120W        W40589   2.127  16.764  12.100  0.2033 -0.1579 -0.1701
25121W        W40590   6.444  17.539  15.746 -0.0170  0.0572  0.0771
25122W        W40591   4.057  11.650   3.435 -0.1820 -0.1029  0.0292
25123W        W40592   3.908  13.046  14.171 -0.1317  0.1216  0.0503
25124W        W40593   8.135  11.817  11.921 -0.2676  0.2483  0.0385
25125W        W40594  17.793  18.448   1.354 -0.0421  0.2524 -0.0106
25126W        W40595  10.866  14.750   3.893 -0.2895 -0.1598 -0.1047
25127W        W40596   5.537  13.949   2.088  0.0624 -0.0970  0.1202
25128W        W40597  17.967   6.671   2.538  0.0089 -0.2336  0.0811
25129W        W40598   5.138  11.959  13.819 -0.0165  0.1833  0.0374
25130W        W40599   8.160  12.781  14.452  0.0173 -0.1636  0.1636
25131W        W40600   5.475  13.389  14.403 -0.2930  0.0075 -0.1587
25132W        W40601  13.671  14.623   1.375  0.2198  0.2386  0.3224
25133W        W40602  10.372  16.308   2.488 -0.0596 -0.1297 -0.1427
25134W        W40603   4.495  16.133   3.551  0.2277 -0.4599 -0.0729
25135W        W40604   4.522  11.726   4.832  0.0805  0.1779  0.1605
25136W        W40605  16.272  17.756  13.153 -0.0091 -0.1312  0.1196
25137W        W40606  13.874   4.968  15.017  0.3205 -0.2994  0.1793
25138W        W40607  11.653   4.732   1.686 -0.0505  0.2150 -0.2804
25139W        W40608  14.371   9.153   3.272  0.1302 -0.0644  0.1174
25140W        W40609   4.832   0.897   5.474  0.0245  0.0800 -0.2089
25141W        W40610  10.469  13.520  12.836  0.0373  0.3223  0.0238
25142W        W40611  15.122   8.954  15.504 -0.1309  0.1843 -0.0122
25143W        W40612   0.201   0.921  15.388  0.0724 -0.0338  0.0837
25144W        W40613   1.684  16.276  10.763  0.3510 -0.1059  0.0950
25145W        W40614   2.474  17.567  13.505 -0.1019  0.2096 -0.0444
25146W        W40615   0.704   8.632   0.613  0.0782 -0.3178  0.3421
25147W        W40616   3.522  17.242   2.809  0.0998 -0.0755  0.0199
25148W        W40617   8.479   3.260   0.388  0.3308  0.0464 -0.0069
25149W        W40618  11.032  17.339   4.634  0.0346  0.2128 -0.0254
25150W        W40619   4.410   4.601   3.090  0.0271  0.1181 -0.2102
25151W        W40620   2.660  16.416   3.663  0.0752 -0.1198 -0.3077
25152W        W40621   6.101  16.144  15.252 -0.3955 -0.3705  0.3718
25153W        W40622   8.374   0.500   0.555 -0.2448  0.1008  0.3412
25154W        W40623   4.694   0.489  11.709  0.1764 -0.4061  0.0813
25155W        W40624  16.910   8.769  15.100  0.5905  0.2217  0.0338
25156W        W40625   3.253   4.142   5.726  0.0807  0.0383  0.0450
25157W        W40626   7.732  17.044  11.844  0.0093 -0.1959 -0.1387
25158W        W40627  16.811  15.922   2.499 -0.0710 -0.0972 -0.1682
25159W        W40628   9.716   1.436   5.780  0.0644  0.3302 -0.1437
25160W        W40629   3.692  17.791   2.898  0.1298 -0.0515  0.1615
25161W        W40630  13.846  12.020  14.258 -0.1558  0.3710  0.0497
25162W        W40631   0.296  18.160   1.675  0.2223 -0.1805  0.0689
25163W        W40632  11.234   6.653  11.819  0.1160  0.0673 -0.0734
25164W        W40633   7.790   7.140  15.992 -0.0164  0.1909 -0.1035
25165W        W40634  14.093   2.487   1.399 -0.2658  0.1156 -0.1488
25166W        W40635   1.614  12.261  15.042 -0.2867  0.0785  0.0339
25167W        W40636   0.413   9.475   1.066  0.1212  0.2146 -0.0399
25168W        W40637  10.661  14.632  15.858 -0.0651  0.4285 -0.1013
25169W        W40638   0.360   1.664  14.360  0.1910 -0.5239 -0.2946
25170W        W40639   6.065   7.058  12.066  0.1128  0.1419 -0.0707
25171W        W40640   1.014  17.700   3.796 -0.1967 -0.0501  0.3842
25172W        W40641  10.914  13.108  15.428 -0.2612 -0.0732 -0.0725
25173W        W40642  17.352   4.565   0.014  0.2182  0.0538 -0.0056
25174W        W40643  16.747   6.595  15.317  0.2356  0.0288  0.1802
25175W        W40644   8.616  10.227   0.585 -0.1381  0.0536  0.3926
25176W        W40645   8.348  14.715  11.674  0.0141  0.0472 -0.0162
25177W        W40646  10.597   9.784  12.299  0.3324  0.0255 -0.1533
25178W        W40647  18.167   5.500  11.403 -0.2960  0.0040  0.0631
25179W        W40648   1.797   9.164  15.423 -0.0989  0.0003 -0.1004
25180W        W40649  13.534  11.283  15.609  0.2001  0.0292 -0.1358
25181W        W40650  10.091  12.451  11.093  0.3262  0.0299 -0.1260
25182W        W40651   9.948  15.525   0.976 -0.1296  0.1736 -0.1939
25183W        W40652   7.982   1.253  15.287 -0.1237 -0.3159  0.0371
25184W        W40653   5.418  11.112   5.714 -0.0335  0.0396 -0.0322
25185W        W40654  16.553  18.217  14.694 -0.2040 -0.2672 -0.3440
25186W        W40655   9.543  18.277  14.750 -0.2340  0.0632 -0.1090
25187W        W40656  13.457   7.715   1.373  0.1532  0.0713 -0.0580
25188W        W40657   1.609   0.285   3.087  0.0521  0.2580  0.0953
25189W        W40658   4.130  11.095  14.413  0.2255 -0.0283 -0.1040
25190W        W40659  13.215   9.754   3.193  0.1238  0.0250 -0.0421
25191W        W40660   1.435   2.766  13.592  0.0079  0.1953 -0.0490
25192W        W40661  16.020  13.346   1.799 -0.0327 -0.0749  0.0095
25193W        W40662   4.508   2.143  13.377 -0.2576 -0.3925  0.0772
25194W        W40663   0.936   0.004  13.297 -0.1174 -0.2160  0.1556
25195W        W40664  11.575   5.997  12.468  0.2800  0.2741 -0.0914
25196W        W40665   5.449  10.186   4.049 -0.0948  0.0954  0.1453
25197W        W40666   3.857   0.229  13.891 -0.0146 -0.2313 -0.0730
25198W        W40667  15.430   9.378   2.359 -0.0333  0.0278  0.1783
25199W        W40668   3.645   3.885   2.636 -0.2730  0.0062 -0.2924
25200W        W40669  15.373   8.940   2.817  0.3708  0.1184 -0.0323
25201W        W40670  12.332   0.988   3.468  0.2187  0.1383  0.1308
25202W        W40671   7.316   9.844  15.242  0.0267  0.0420 -0.1308
25203W        W40672  14.821  12.432  11.755  0.2110 -0.1650 -0.1965
25204W        W40673  15.624   5.680  13.690  0.1565  0.3668 -0.3473
25205W        W40674  10.132   9.756  12.550  0.3334 -0.1419 -0.0844
25206W        W40675   5.450  13.265   3.655  0.0042 -0.1875  0.2498
25207W        W40676  12.824  12.550   0.528 -0.0230 -0.0437 -0.1401
25208W        W40677  12.520   6.236   4.350  0.1111 -0.1384  0.0377
25209W        W40678   5.910   0.673   2.729  0.1683 -0.1045  0.1091
25210W        W40679   8.043  18.101   0.677  0.1310  0.2214  0.1149
25211W        W40680   6.094   2.555   4.708  0.2615  0.2210  0.0864
25212W        W40681   9.562   9.127   3.711 -0.1791  0.3609 -0.3352
25213W        W40682   5.008   8.034  13.095 -0.0636  0.0386 -0.0813
25214W        W40683   7.438   6.684   5.426  0.0269  0.1502 -0.3386
25215W        W40684  14.437  15.396  12.083  0.1338 -0.0493  0.0536
25216W        W40685   7.263   3.513  15.552  0.2654  0.1548 -0.0665
25217W        W40686  11.313   8.894   3.509 -0.0478 -0.1578  0.1074
25218W        W40687  12.366   2.389   5.501  0.0233  0.1438 -0.2480
25219W        W40688  12.006   1.541   3.039 -0.1790 -0.0817  0.1849
25220W        W40689   7.917   9.592  12.897  0.1457 -0.1644  0.2175
25221W        W40690   1.362   9.735   0.135  0.0443  0.0642  0.0439
25222W        W40691   6.619   8.453   0.396  0.1379 -0.1967 -0.0087
25223W        W40692  11.935   7.974  14.190  0.0207 -0.0680 -0.1620
25224W        W40693  12.976  17.811   2.035 -0.0217  0.0447 -0.1127
25225W        W40694   6.983  11.093   0.157  0.2112  0.1319 -0.4839
25226W        W40695  16.736   4.871   5.163  0.1084  0.1444 -0.0518
25227W        W40696  15.351   5.536   3.288 -0.0644  0.1416 -0.4350
25228W        W40697   7.877  17.807  13.442  0.2608 -0.0754 -0.2983
25229W        W40698   7.187   7.640   3.898  0.0416  0.0264  0.0705
25230W        W40699  16.690   7.758   0.051  0.3606 -0.0048 -0.0634
25231W        W40700  17.340  11.781  11.020  0.2193 -0.1510  0.0959
25232W        W40701   8.127   9.418  12.459 -0.0979  0.2879 -0.1111
25233W        W40702  18.450  10.233   3.407  0.2064  0.3348 -0.2695
25234W        W40703   9.190   6.126   3.469 -0.2223 -0.0245 -0.2325
25235W        W40704   5.492   4.394   3.278 -0.2655 -0.0143  0.2223
25236W        W40705   8.249   3.390  14.413  0.0996  0.2050 -0.2695
25237W        W40706   1.041  12.104  14.176  0.0683  0.1096 -0.0180
25238W        W40707   2.811   1.427   2.606  0.0323 -0.0788 -0.0077
25239W        W40708  11.080  10.541   3.917 -0.0430  0.0218  0.0293
25240W        W40709   4.466   0.407  11.298 -0.1203 -0.0291  0.1640
25241W        W40710  13.492   2.693  15.973 -0.1791 -0.0410  0.0654
25242W        W40711  16.038   7.588   2.978 -0.1504  0.1478  0.2028
25243W        W40712  18.410   2.130  14.483  0.3964 -0.2074  0.2353
25244W        W40713   6.567   9.623   0.823  0.3276  0.1078 -0.1192
25245W        W40714  10.268  18.218  13.799  0.0331  0.0038 -0.2957
25246W        W40715   1.897   6.555  14.698 -0.3850  0.0067  0.1355
25247W        W40716   8.143  11.554  13.853 -0.0681  0.1902 -0.1291
25248W        W40717   2.585  17.334   3.413 -0.0795 -0.2325 -0.1400
25249W        W40718   0.171  11.462  15.369  0.0702  0.1939  0.0478
25250W        W40719   0.391  14.517  12.786 -0.2305 -0.2537  0.0712
25251W        W40720  17.716   4.608   3.380 -0.3028 -0.2744 -0.0428
25252W        W40721   7.389  16.648   0.444 -0.0330 -0.2910 -0.2762
25253W        W40722   1.018  18.438   4.392 -0.2166  0.0044  0.0989
25254W        W40723   3.842  11.190  13.820 -0.1397  0.2658  0.0043
25255W        W40724  17.361   5.889  14.907  0.1585 -0.3536  0.0303
25256W        W40725  13.981   4.539   5.642 -0.0495 -0.1925  0.2306
25257W        W40726  11.696  13.635  11.671  0.0122 -0.0488  0.0340
25258W        W40727   2.609  13.494   2.733  0.0431 -0.2209  0.1052
25259W        W40728  12.350  12.985  11.999 -0.0263  0.2872 -0.1163
25260W        W40729   9.149   6.391   0.395 -0.1330  0.1238  0.1821
25261W        W40730  12.981   0.617   4.692  0.1265 -0.1809  0.1709
25262W        W40731   8.816  15.345   2.650  0.0001 -0.0543  0.0746
25263W        W40732  18.442  15.522   0.193 -0.3308  0.1612 -0.1068
25264W        W40733  17.841  18.359  13.961  0.0309  0.1466  0.1194
25265W        W40734   4.463   7.884   2.294  0.0080  0.0265 -0.2161
25266W        W40735   2.752  17.628  12.996 -0.1536 -0.1236  0.0946
25267W        W40736   5.129   5.961  13.544 -0.1439 -0.1863 -0.1016
25268W        W40737   3.595  13.312   5.356 -0.0922  0.3370  0.1194
25269W        W40738  17.310   2.927  13.624  0.1001  0.2285  0.1027
25270W        W40739  15.116  10.602   0.965  0.2437 -0.0525 -0.2340
25271W        W40740  14.807   1.720  13.166  0.2341  0.1816  0.1060
25272W        W40741   9.934  10.730   2.128 -0.2366 -0.0144 -0.1989
25273W        W40742   2.953   7.832   4.711  0.4520  0.2174  0.0828
25274W        W40743  12.825  10.711  11.200  0.1325  0.0580  0.1140
25275W        W40744   7.937   9.995   2.850 -0.1513  0.1211  0.1086
25276W        W40745   6.431   8.829   5.537 -0.1114 -0.1632  0.0914
25277W        W40746   7.887  15.566   2.597 -0.1662  0.2750 -0.0714
25278W        W40747   4.110  17.647  11.662 -0.4184  0.1530 -0.2964
25279W        W40748   3.197   4.271  14.822 -0.0772 -0.2066  0.2718
25280W        W40749  16.600  14.875   2.280 -0.0044  0.0848  0.0613
25281W        W40750   5.012   5.740   1.685 -0.0613  0.0123 -0.0317
25282W        W40751  18.074  16.242   0.752  0.1637  0.0145 -0.0289
25283W        W40752  18.428   2.629  15.944 -0.1492  0.2523 -0.0294
25284W        W40753  16.252  10.634  10.699  0.1066 -0.0810  0.0425
25285W        W40754  15.283   9.401  12.000  0.0676  0.0672 -0.0799
25286W        W40755   0.276   2.396  13.224  0.1287 -0.0785  0.2227
25287W        W40756  14.689   5.010   3.197  0.1232  0.1775  0.0640
25288W        W40757   6.830   2.989   3.036 -0.0451 -0.0359  0.2363
25289W        W40758   0.483   0.386  14.765 -0.2927 -0.2068 -0.1052
25290W        W40759   2.799  11.007   4.728  0.0698 -0.2368 -0.0122
25291W        W40760  12.112   0.680   2.829 -0.0796  0.0171 -0.0192
25292W        W40761   3.189  10.946  11.722 -0.3413 -0.1191  0.0841
25293W        W40762   6.260  10.491  12.091  0.0083  0.2557 -0.2211
25294W        W40763  10.259   6.576   3.619 -0.1515 -0.0864  0.0880
25295W        W40764   2.191  10.679  12.486  0.0350  0.2163  0.2265
25296W        W40765  16.605   1.533  10.997  0.4919  0.2195 -0.0788
25297W        W40766  10.315   7.937   1.726 -0.0308  0.0943  0.1362
25298W        W40767   3.401   4.671   0.997 -0.0476  0.2379 -0.0508
25299W        W40768   8.176  16.149   4.513  0.0304  0.1171 -0.0348
25300W        W40769  12.892   6.707  12.629  0.0205  0.2086 -0.0192
25301W        W40770   8.216   2.856   2.720  0.1001  0.0558 -0.2235
25302W        W40771  16.640   9.276  13.652  0.1542  0.1040 -0.2432
25303W        W40772  16.094  12.664   9.986 -0.0448 -0.0705  0.0422
25304W        W40773  13.961  10.485  13.584 -0.1338  0.2047 -0.1394
25305W        W40774   1.402  15.474  14.097  0.1476  0.0021 -0.2281
25306W        W40775   9.978  15.011   1.102  0.0632 -0.2726  0.3688
25307W        W40776   0.242   1.727   4.023 -0.0926 -0.1566 -0.0291
25308W        W40777   2.612   9.702   1.639 -0.0408 -0.0826 -0.0209
25309W        W40778  14.476  10.506  14.581 -0.0781  0.0065  0.2974
25310W        W40779  16.922   9.948  11.188 -0.1441 -0.0063  0.3856
25311W        W40780   4.653   1.308   2.888 -0.2244 -0.1019 -0.0142
25312W        W40781  11.711   5.584   5.412  0.0732 -0.0542  0.1756
25313W        W40782  10.959  10.483   5.163  0.0287 -0.1745  0.2949
25314W        W40783   3.218  18.179  14.528  0.1696  0.0298  0.1401
25315W        W40784   6.806  15.786   9.675  0.2909 -0.2089  0.4040
25316W        W40785  10.456  13.257  13.322 -0.1216 -0.0721  0.1785
25317W        W40786  11.290   8.914   2.432  0.0639  0.3033 -0.0225
25318W        W40787  15.856   8.021   4.801 -0.0897 -0.5190  0.0395
25319W        W40788   3.092   2.342  15.899  0.2778 -0.2347 -0.1581
25320W        W40789  11.680  14.117  15.930  0.0879  0.2973  0.0001
25321W        W40790   4.280   0.450   0.525  0.2084 -0.4091  0.4998
25322W        W40791  14.205   3.695  13.441  0.3406  0.0305  0.0448
25323W        W40792   6.066  12.141  14.143  0.2184  0.0327  0.0054
25324W        W40793   8.048  17.452   3.001  0.0537 -0.2598  0.0773
25325W        W40794   4.886  17.036   0.755 -0.0176  0.0982  0.0717
25326W        W40795   1.931   4.812   1.285 -0.2187  0.3089  0.5468
25327W        W40796   4.460  17.766   1.162  0.3491  0.0382  0.0703
25328W        W40797   4.298  13.970  14.331  0.1598  0.0371  0.0470
25329W        W40798   7.526  13.133   0.953 -0.1218 -0.2161 -0.0130
25330W        W40799  11.964  18.359  10.907  0.0051 -0.1700  0.1016
25331W        W40800  12.677   7.447  15.718 -0.2913  0.2435  0.0962
25332W        W40801   6.707  13.830   5.062  0.0836  0.2074 -0.0251
25333W        W40802   1.038   3.281   0.479 -0.0560 -0.0133  0.0069
25334W        W40803   2.605  12.465   5.394 -0.2485 -0.1557 -0.2859
25335W        W40804  10.554  16.782  11.290  0.1132 -0.0444 -0.0537
25336W        W40805  16.359   1.257   3.599 -0.2558  0.1577  0.1472
25337W        W40806  18.264  16.126   4.055 -0.0363  0.3551  0.1468
25338W        W40807  15.849   5.077  11.362 -0.0564 -0.0900  0.3608
25339W        W40808  12.911   4.341   0.437 -0.2337 -0.0584  0.0926
25340W        W40809   7.925  15.251  10.932  0.0047 -0.0044 -0.2225
25341W        W40810  12.341   4.744  13.515  0.1783  0.0757  0.0401
25342W        W40811   5.122  18.305   0.987  0.0258  0.1141  0.0662
25343W        W40812  15.874  15.639   5.109 -0.0360 -0.0673  0.0654
25344W        W40813   8.356   3.105   0.946  0.1399  0.1102 -0.2080
25345W        W40814   5.864  11.891  15.757 -0.0110  0.0216 -0.5543
25346W        W40815   3.775  10.405  14.938  0.2248 -0.2449 -0.3078
25347W        W40816   9.061  16.961  12.379 -0.0849  0.0040 -0.2069
25348W        W40817   4.729   7.786   4.779  0.1751  0.0110 -0.1393
25349W        W40818  12.093  16.865  15.088  0.1698 -0.0496  0.1287
25350W        W40819   8.302   6.228   2.930 -0.0833  0.0123 -0.2946
25351W        W40820   0.407  15.006  14.478 -0.1896 -0.1465  0.0535
25352W        W40821  13.270   2.373   2.936  0.0805 -0.0167  0.1693
25353W        W40822   4.635  11.212  15.227 -0.0520  0.0648  0.0452
25354W        W40823   3.849   2.646  12.284 -0.1213  0.0725  0.2918
25355W        W40824   6.580  12.025   4.210  0.0455  0.1434 -0.4624
25356W        W40825  12.449  17.329  13.300  0.0979  0.4611 -0.0678
25357W        W40826   3.942  17.835  13.863 -0.5032  0.3188 -0.0231
25358W        W40827   8.403   4.119   5.983  0.1217 -0.2057 -0.1970
25359W        W40828   3.584   1.234   4.302 -0.0723  0.1105  0.0198
25360W        W40829  16.348   0.577   4.150 -0.0950  0.3897 -0.3947
25361W        W40830  14.667  12.145  13.069  0.2588  0.0618  0.2478
25362W        W40831   8.963   9.299   0.037  0.1990  0.1332 -0.1572
25363W        W40832  13.901   3.535  15.866  0.3128  0.1027 -0.1124
25364W        W40833  15.998  14.654   1.640  0.2378  0.0743 -0.0328
25365W        W40834   2.398  14.764   0.320  0.1052  0.1195  0.2010
25366W        W40835   1.834  10.332   5.939 -0.1578  0.1849 -0.1394
25367W        W40836   0.264   5.753  14.814  0.0784 -0.0772  0.0857
25368W        W40837   9.670   1.896  11.950 -0.0155 -0.0519  0.0876
25369W        W40838  11.779   8.998  13.408  0.2806  0.1430 -0.2550
25370W        W40839   7.701   7.042  14.481  0.1237 -0.2372  0.0172
25371W        W40840  17.288   6.783  12.301 -0.2777  0.1294 -0.3217
25372W        W40841   4.026   7.809  14.581 -0.1110 -0.1057 -0.1363
25373W        W40842   7.779   1.661  13.225  0.0104 -0.0130  0.1491
25374W        W40843   7.406  12.083  14.135 -0.0088  0.1687  0.2969
25375W        W40844   6.743  15.299  15.971  0.4488  0.1273  0.0955
25376W        W40845  18.281  11.129  12.159  0.1884  0.3069 -0.0753
25377W        W40846  10.957   6.265  13.606 -0.1482 -0.0077  0.0396
25378W        W40847  11.625  11.727  13.371 -0.2029 -0.1845  0.3977
25379W        W40848  17.520  18.170  13.090  0.2816 -0.5142  0.1836
25380W        W40849   0.657  12.221   1.596 -0.3273 -0.0946 -0.0172
25381W        W40850  17.477   3.156   0.286 -0.0702 -0.2237  0.2574
25382W        W40851  16.433  10.920   4.620 -0.3148 -0.2031 -0.0508
25383W        W40852   7.400  15.377  15.349 -0.0629 -0.0137 -0.2645
25384W        W40853   4.616   3.042  15.918  0.1378 -0.0703  0.3113
25385W        W40854   1.238  15.946  11.066 -0.0641 -0.1481  0.0747
25386W        W40855   2.090  11.287   4.069  0.1338  0.0505  0.0866
25387W        W40856   4.672   7.123  13.139  0.0916  0.1753  0.2964
25388W        W40857   1.435   6.431  11.680 -0.1562  0.0008 -0.1328
25389W        W40858   9.862  16.414  12.516  0.0541  0.1297 -0.0410
25390W        W40859   8.417   8.553  10.317  0.0690 -0.2904  0.2594
25391W        W40860  10.124   7.527  13.873  0.1057  0.2555 -0.0226
25392W        W40861   5.573  12.777   3.884 -0.1799  0.1008 -0.0133
25393W        W40862  16.285   4.421   6.213 -0.2737 -0.2259 -0.2653
25394W        W40863   2.787   4.612   0.244  0.1889 -0.0695  0.0569
25395W        W40864   6.045  12.421  11.009  0.2263  0.3098 -0.0205
25396W        W40865  13.596  10.725  15.551  0.0226 -0.0414 -0.3058
25397W        W40866  10.444   0.400  15.327  0.0617  0.2053  0.2637
25398W        W40867   7.623   3.152   3.434  0.2331 -0.1760  0.3893
25399W        W40868  15.358   9.923  13.444  0.2348 -0.0125 -0.1018
25400W        W40869   2.669  11.656   0.008  0.3254  0.2094  0.2049
25401W        W40870   7.560   4.925   3.081 -0.1501  0.1628  0.2406
25402W        W40871   5.174   2.561   4.785 -0.1886  0.1153 -0.1193
25403W        W40872   6.488  10.405   3.831  0.1450 -0.1873 -0.0961
25404W        W40873   5.362   0.455  12.384  0.1496 -0.0733  0.0468
25405W        W40874  17.710  10.016  12.949 -0.3978  0.0500 -0.0439
25406W        W40875  14.157  14.382   3.495 -0.2447  0.2486  0.0952
25407W        W40876   1.648  16.062   0.841  0.0041  0.4429 -0.1676
25408W        W40877  17.619   4.873  15.366 -0.1427  0.0519 -0.1638
25409W        W40878  11.039   4.508   1.617  0.1461 -0.2079 -0.1820
25410W        W40879   5.895   5.084  12.504 -0.1619 -0.2494 -0.2588
25411W        W40880  14.554   9.198   5.235  0.2650 -0.0991  0.2144
25412W        W40881   5.049   5.712   3.581  0.0697 -0.2059  0.2333
25413W        W40882   6.542  16.734  12.541  0.0168  0.1293  0.0397
25414W        W40883   6.025  17.517  12.783 -0.1372 -0.1665  0.0054
25415W        W40884   2.657   1.399  11.941 -0.3230 -0.1704 -0.2407
25416W        W40885  12.937   9.429   1.458  0.2732 -0.0045  0.0215
25417W        W40886   9.545   9.425   2.293  0.0926 -0.2586  0.0387
25418W        W40887   4.831   6.729  12.506 -0.0400  0.0048  0.0996
25419W        W40888  10.533  14.214   0.766 -0.0001 -0.0588 -0.1769
25420W        W40889   0.096   5.862   0.798  0.2332 -0.2048  0.1118
25421W        W40890  17.311   5.533  15.864  0.0070  0.0669  0.1786
25422W        W40891   3.104  11.980  12.171 -0.0640  0.0450 -0.0234
25423W        W40892   0.264   4.314   4.336 -0.2715 -0.0087 -0.0911
25424W        W40893  18.367   7.948   0.831  0.0153  0.2664  0.2697
25425W        W40894   5.118   8.447  11.273 -0.1228 -0.3979 -0.0177
25426W        W40895  12.790   8.799   0.689 -0.1471  0.0207  0.1666
25427W        W40896  15.303  13.812  11.760 -0.1156 -0.1724 -0.1510
25428W        W40897  10.799  10.960  15.733  0.1727  0.3976 -0.0172
25429W        W40898   5.545  13.504   0.096  0.0358  0.0215 -0.0726
25430W        W40899  17.480   6.305  12.482  0.1129  0.0068  0.0064
25431W        W40900   6.118  16.082   2.255  0.0564  0.1239 -0.1419
25432W        W40901   4.831  14.173   2.840 -0.0652 -0.0711  0.1285
25433W        W40902   3.816   6.067  13.355  0.0450  0.0460 -0.2642
25434W        W40903   1.382   4.902   0.564  0.2229  0.2435  0.0347
25435W        W40904  15.248  10.155  13.000 -0.0548  0.0630 -0.1817
25436W        W40905  18.276  12.024   3.105 -0.3321 -0.0533 -0.2766
25437W        W40906  14.942   8.675   2.018  0.0629 -0.0704  0.3156
25438W        W40907   8.482   4.474   3.136  0.1264 -0.2603  0.0254
25439W        W40908  14.517   4.694  10.414 -0.2267  0.1376  0.2575
25440W        W40909   6.746   9.238  13.714  0.1688 -0.2324 -0.1209
25441W        W40910  11.332   4.546  11.470 -0.1967  0.5203  0.0930
25442W        W40911   5.424  13.395  12.088 -0.0652 -0.0842  0.0050
25443W        W40912  15.480  16.441  12.484 -0.1504 -0.3489 -0.0740
25444W        W40913  14.177  11.599   0.212  0.0712 -0.1027 -0.0515
25445W        W40914   9.618  10.897   5.107  0.1019 -0.1719 -0.3509
25446W        W40915   0.731   5.763   4.440  0.0228  0.0156 -0.0704
25447W        W40916  12.854  11.470  11.306  0.0573 -0.0204 -0.1755
25448W        W40917   0.664   1.139  13.142 -0.3463  0.1393  0.0414
25449W        W40918   2.070  14.625   4.240 -0.1993  0.1623  0.0425
25450W        W40919  13.423   4.388   0.616 -0.0644  0.1867  0.3708
25451W        W40920   4.220  14.033   4.814 -0.0291 -0.1476  0.3343
25452W        W40921  18.022   5.142  12.306 -0.3951  0.0286 -0.0692
25453W        W40922   3.554   5.444   3.856  0.1893  0.0707 -0.1479
25454W        W40923  10.640   1.072   5.473  0.1199 -0.1708 -0.2795
25455W        W40924   8.882  10.586   0.371  0.0944  0.0681  0.2667
25456W        W40925   7.167   9.346  13.443 -0.0240  0.1356 -0.0236
25457W        W40926   3.997   6.625   3.119 -0.3889  0.3404 -0.0743
25458W        W40927  10.896  11.442   4.190  0.0776  0.0667 -0.3512
25459W        W40928   8.795  16.664  12.675 -0.1859  0.1246  0.0188
25460W        W40929   4.849   5.747  15.529  0.0765 -0.2104 -0.0043
25461W        W40930  17.189   1.743  13.291 -0.0713 -0.1173 -0.0382
25462W        W40931   9.313   0.834  12.453 -0.3161 -0.0496  0.2331
25463W        W40932  11.907   6.048  10.147 -0.2676 -0.2458  0.2551
25464W        W40933   8.175  17.432  10.310  0.2883  0.2021 -0.2027
25465W        W40934   1.207   2.069  10.780 -0.3966 -0.0628  0.2026
25466W        W40935   0.917   1.714  13.046 -0.0339  0.1648  0.0502
25467W        W40936   9.312   0.833  15.616  0.2956  0.1685  0.2476
25468W        W40937   5.548   6.591  14.154  0.2673  0.0697  0.2287
25469W        W40938   1.751  13.712   5.202 -0.2064  0.3415  0.0408
25470W        W40939   9.052   1.643   2.813  0.1606  0.0341 -0.1393
25471W        W40940   6.506  14.224   2.689  0.1912 -0.1293 -0.0163
25472W        W40941   8.339  16.614   0.088  0.0760 -0.0205  0.1476
25473W        W40942  14.145   2.713  13.107  0.2731  0.2689 -0.0646
25474W        W40943   4.120   8.601   5.707 -0.1690  0.0834  0.4046
25475W        W40944   8.895   2.260   1.847 -0.2990  0.0184  0.0215
25476W        W40945  12.992   3.271  15.320 -0.1674 -0.1961 -0.1356
25477W        W40946   8.926   6.573   2.361  0.0693  0.1039 -0.2762
25478W        W40947  16.188   9.414   0.277 -0.0582 -0.0450  0.1545
25479W        W40948   0.090   9.979  15.360 -0.1427 -0.3042 -0.0746
25480W        W40949  15.102   6.742  11.878 -0.0360  0.0149 -0.1416
25481W        W40950   1.941  12.871  11.146  0.2782 -0.1726  0.3504
25482W        W40951   9.503   3.820  14.749  0.0106 -0.0916  0.1723
25483W        W40952   6.852  15.706   3.653  0.1031  0.2969 -0.4392
25484W        W40953  14.874   1.535  15.291 -0.0542 -0.2305  0.2049
25485W        W40954   4.352  11.023   4.009 -0.2229  0.2986 -0.1592
25486W        W40955   1.710  14.794   9.894  0.1738 -0.0242  0.0843
25487W        W40956  18.191   3.876   3.766 -0.0103  0.1929  0.1412
25488W        W40957   1.706   0.723   1.148  0.0944 -0.0604 -0.3695
25489W        W40958   0.688  16.981   2.633 -0.0935  0.0927 -0.2908
25490W        W40959   1.402   2.875   0.468 -0.1140 -0.1735  0.2007
25491W        W40960  18.181  10.676  11.385  0.1250  0.2022  0.0992
25492W        W40961   7.505  16.059  14.026 -0.0217  0.1950 -0.1957
25493W        W40962   1.350  17.785   2.853 -0.2248  0.3046  0.1067
25494W        W40963   2.155   3.964   0.310 -0.0303 -0.0330  0.1846
25495W        W40964  10.647  18.279   1.582 -0.0731 -0.1476  0.1176
25496W        W40965   5.127  17.849  13.964 -0.1564  0.1350  0.1753
25497W        W40966   9.129  16.541  13.900  0.2043  0.2773 -0.2405
25498W        W40967  12.833  16.666   1.366  0.0695 -0.1388  0.1490
25499W        W40968  16.510   3.063   3.993 -0.0193 -0.0495  0.0388
25500W        W40969   2.211   6.257   1.058  0.3274 -0.2255 -0.0582
25501W        W40970  12.186   7.455   2.355  0.2219  0.1782  0.4220
25502W        W40971   4.604  14.770  12.470  0.1465  0.2510  0.1005
25503W        W40972   3.296   0.135  13.791  0.1077 -0.2471  0.1487
25504W        W40973   8.129   4.130   9.834 -0.0322 -0.0582 -0.0729
25505W        W40974  15.447   8.012  13.893  0.0188 -0.2588  0.0897
25506W        W40975   8.162   5.631   4.329 -0.2247 -0.0138 -0.1928
25507W        W40976  14.267   6.264  10.864  0.1496 -0.0511  0.0917
25508W        W40977   3.630  17.973   3.352 -0.0433  0.2058 -0.0626
25509W        W40978   9.073  16.715   3.520 -0.0918 -0.0924 -0.2259
25510W        W40979   9.264   1.739   4.317  0.2564  0.2485  0.1434
25511W        W40980   5.961   0.978   1.692 -0.1253 -0.1955  0.5537
25512W        W40981   9.306  15.951  10.077 -0.1065  0.2530 -0.3022
25513W        W40982  14.182   5.902   2.435 -0.1476 -0.0815  0.3171
25514W        W40983   6.332   7.468   3.251  0.1747 -0.1098 -0.1527
25515W        W40984   9.072   2.365  13.687 -0.0168 -0.0289  0.2001
25516W        W40985  11.098   6.418   2.500  0.1574  0.1712  0.0485
25517W        W40986  14.302   6.733  13.777  0.2283  0.0709  0.1513
25518W        W40987   7.983   8.937  11.485  0.1797  0.1398 -0.2672
25519W        W40988   7.253   6.524   1.331  0.1629  0.1361 -0.1820
25520W        W40989  12.592  17.680  14.866  0.1791  0.3155  0.0522
25521W        W40990  16.993   0.528   4.987  0.1313 -0.0115  0.0847
25522W        W40991   6.290  11.487   4.151 -0.1767 -0.3505 -0.2137
25523W        W40992   6.870   3.193   4.202  0.0919 -0.1608 -0.1145
25524W        W40993   3.432   8.993   1.362  0.3325 -0.0942  0.1006
25525W        W40994   4.825   6.170  11.877  0.1468  0.0356 -0.2116
25526W        W40995  11.084   9.630  15.083 -0.0413 -0.2037 -0.2168
25527W        W40996   1.973  14.606  15.050  0.2729 -0.0188  0.0902
25528W        W40997   1.813  10.339   3.155  0.2487  0.1860 -0.1493
25529W        W40998   8.404  10.116   3.396 -0.2610  0.0411  0.3960
25530W        W40999  15.624  16.626   1.480  0.0679 -0.4307 -0.0300
25531W        W41000  16.742  17.763  11.303 -0.0831 -0.1669  0.1279
25532W        W41001  17.034  12.026  15.481  0.2244 -0.0417 -0.1110
25533W        W41002   0.978   1.979   1.140  0.0589 -0.0822  0.1234
25534W        W41003   7.865  15.184   1.709  0.0628  0.1744 -0.1455
25535W        W41004  15.047   4.922  14.637  0.0870 -0.3589  0.1311
25536W        W41005   2.541  14.361  11.626  0.0565  0.0377  0.0792
25537W        W41006   0.640  13.448   5.709  0.2221  0.1754  0.1312
25538W        W41007   1.277  17.804  12.775  0.0025  0.0186 -0.4267
25539W        W41008  14.959   1.199   0.631  0.3194 -0.2117  0.3490
25540W        W41009   1.838   9.678  15.228  0.1582  0.1971  0.1817
25541W        W41010   6.658   7.956   5.039  0.1228 -0.0922  0.2449
25542W        W41011   1.172   1.480   0.613  0.0642 -0.0093  0.4124
25543W        W41012   1.813   3.029   4.289 -0.3067 -0.2952 -0.1023
25544W        W41013  10.759   3.815   2.159 -0.0907  0.0215 -0.0540
25545W        W41014  12.785  18.311  15.088 -0.0624 -0.3291 -0.4207
25546W        W41015   3.807  11.117  14.867  0.0845  0.0961 -0.1349
25547W        W41016   0.455   8.741  15.891  0.0233 -0.1345 -0.4230
25548W        W41017   4.879   4.218   4.846  0.1514 -0.3917 -0.3249
25549W        W41018   2.737  14.844   1.700  0.1583  0.0178 -0.4877
25550W        W41019  17.318  10.864   1.857 -0.1613 -0.2848 -0.2319
25551W        W41020  13.965  18.386  12.101 -0.3374 -0.2599  0.2878
25552W        W41021  14.184   2.785  15.970 -0.1553  0.2392 -0.2795
25553W        W41022  15.737   0.051  13.699 -0.0171  0.1994  0.3101
25554W        W41023  11.258  16.213   2.266 -0.0971  0.2963 -0.1130
25555W        W41024  12.215  18.258   3.102 -0.1565 -0.0602 -0.3012
25556W        W41025  10.325  15.640   2.395 -0.4553 -0.1272  0.0383
25557W        W41026  16.314   1.058   0.486 -0.0104  0.0156  0.0887
25558W        W41027  10.477   2.433   1.837  0.2286  0.3121  0.0957
25559W        W41028  11.487  11.188   4.651  0.0592 -0.1768 -0.0594
25560W        W41029   4.057   9.278  12.650  0.0784 -0.1794  0.2818
25561W        W41030   7.254   1.146  11.537 -0.1928 -0.1995 -0.0799
25562W        W41031   2.836  10.611   0.897 -0.1010  0.0188 -0.0430
25563W        W41032  15.693   9.769   1.539 -0.0078 -0.0789  0.2877
25564W        W41033   2.266  18.164  11.715 -0.4180  0.3375  0.4424
25565W        W41034   0.641   7.937   3.840  0.0131 -0.2327  0.3423
25566W        W41035  12.227   0.407  11.135  0.1795  0.0965  0.0618
25567W        W41036   6.055   5.812   0.180 -0.0368  0.1521  0.0985
25568W        W41037   9.449   6.516  11.526 -0.0667 -0.1471 -0.3030
25569W        W41038   3.675  12.936   2.282 -0.1789 -0.3547 -0.0500
25570W        W41039  11.853   4.824  14.385  0.4151 -0.3950  0.3136
25571W        W41040   2.781   8.530   3.118  0.2088  0.2668  0.0796
25572W        W41041   1.992   4.030   2.212  0.0584 -0.2550 -0.0851
25573W        W41042  15.352   9.771   3.162  0.4045 -0.2619 -0.2437
25574W        W41043  12.954   3.931   0.108 -0.0918  0.1676  0.1283
25575W        W41044   8.703  12.529  11.301  0.2370  0.0913 -0.0377
25576W        W41045   3.873   0.490   5.613  0.2240  0.0983 -0.0513
25577W        W41046  12.676   2.796  13.299 -0.0268  0.2073  0.0479
25578W        W41047  10.951  11.033  11.013  0.0720 -0.0793 -0.2100
25579W        W41048   1.490  12.330  13.892 -0.2059 -0.1101 -0.0196
25580W        W41049  11.944   6.342  13.530 -0.0598 -0.3096  0.1589
25581W        W41050   6.483   0.001   0.646  0.1322  0.0076 -0.0747
25582W        W41051   1.436   7.398   3.024 -0.4443 -0.1966 -0.2933
25583W        W41052  15.749  16.652   2.451  0.0619  0.0315  0.0288
25584W        W41053  16.106  12.916  12.270  0.0434 -0.1449  0.2812
25585W        W41054  12.898  18.293  12.969 -0.0808  0.1987  0.0925
25586W        W41055  17.356   9.494   4.788  0.1902  0.1725  0.2696
25587W        W41056   3.134   6.311  13.743  0.1868  0.0323 -0.3131
25588W        W41057  12.037  16.609   4.852 -0.0632 -0.3668 -0.0324
25589W        W41058   1.304  16.425   5.049  0.1015  0.0474  0.1615
25590W        W41059   1.487  18.005   1.910  0.0286  0.0645  0.1043
25591W        W41060  14.285  17.627  11.535 -0.1664  0.0789  0.0938
25592W        W41061  12.171  17.412   5.301  0.2360  0.4333  0.0388
25593W        W41062   2.582   0.725   2.047 -0.2109  0.0239 -0.2122
25594W        W41063   8.205   1.867   5.100 -0.0125 -0.0740  0.4185
25595W        W41064  14.294   3.246  13.909 -0.0475 -0.0756 -0.0586
25596W        W41065  10.460  11.185  14.925 -0.0887  0.1529 -0.3454
25597W        W41066  14.354  16.800   3.593 -0.0590 -0.1048  0.1799
25598W        W41067   7.790  10.853   4.063 -0.0046 -0.1417 -0.3764
25599W        W41068   6.485  12.409   0.855  0.0531 -0.0354 -0.0236
25600W        W41069   4.446   1.937  14.188  0.1307  0.0924 -0.0716
25601W        W41070  16.663   6.325   2.704  0.1454  0.0262  0.0828
25602W        W41071  12.964   4.040  15.151 -0.0912 -0.0840  0.0399
25603W        W41072   7.667  13.446   9.585  0.2416  0.0960  0.1961
25604W        W41073   1.122  11.203   5.390 -0.0166  0.0493  0.2233
25605W        W41074  10.150  15.645   3.181  0.1223 -0.0347 -0.0014
25606W        W41075   8.622  10.712   4.535  0.1856 -0.1296 -0.1435
25607W        W41076  15.848   7.846   2.619  0.3452  0.0825  0.4579
25608W        W41077   4.249   5.025  12.688  0.5493 -0.2485 -0.0399
25609W        W41078   2.517  16.218  10.420 -0.5143 -0.1753  0.1240
25610W        W41079   8.078   2.395  15.374  0.1489  0.2066 -0.0963
25611W        W41080  12.860   4.929  15.378  0.1099 -0.1987 -0.0469
25612W        W41081   5.051   4.517   6.259  0.0077  0.1615  0.0823
25613W        W41082  16.938  11.200  12.491 -0.1274 -0.1166 -0.2516
25614W        W41083  17.603   3.959   2.144  0.2261 -0.2395  0.1220
25615W        W41084   7.786   7.505   3.329  0.0036 -0.1452 -0.3379
25616W        W41085  11.671   0.520   3.168  0.0012  0.0671  0.0158
25617W        W41086  13.032   7.854   0.661 -0.4838  0.1578 -0.1144
25618W        W41087   3.367   6.051   2.694  0.2006 -0.2255 -0.0403
25619W        W41088  13.831   6.785  13.756  0.1561 -0.0152  0.1481
25620W        W41089  10.731   2.574   2.305  0.1595 -0.0908  0.1216
25621W        W41090   5.158   8.841  12.275  0.0868  0.2134 -0.2323
25622W        W41091   4.951   6.975   5.072 -0.0414 -0.2192  0.0231
25623W        W41092   5.641  13.234  11.026 -0.0691  0.1252 -0.1450
25624W        W41093   8.401  10.114   4.495 -0.1746  0.0565 -0.1608
25625W        W41094   4.310   5.810  14.628 -0.2543  0.1286  0.1364
25626W        W41095   7.237  16.772   1.904 -0.2799 -0.0519  0.0365
25627W        W41096  12.064   1.444  15.000  0.0836  0.0861 -0.1495
25628W        W41097   0.812  13.587   2.030  0.1254 -0.0098  0.0260
25629W        W41098  17.273   6.597   0.719  0.0681 -0.0263 -0.0950
25630W        W41099  11.469  17.598  11.854  0.2354  0.2233  0.1259
25631W        W41100   8.421   9.227   5.047 -0.0186 -0.0376  0.1337
25632W        W41101   5.646  16.801  13.906  0.2888  0.1826 -0.2783
25633W        W41102   4.650   5.322  14.796  0.3087  0.1158 -0.0061
25634W        W41103   6.341   9.721   5.488  0.0377 -0.2001 -0.1619
25635W        W41104  17.847   2.563   1.154 -0.0666  0.2796  0.2942
25636W        W41105  12.845   1.899  13.696 -0.1169  0.2024  0.1918
25637W        W41106   9.775   3.895  10.268 -0.0374  0.1063 -0.0064
25638W        W41107   8.850  14.498   4.627  0.0692  0.2846 -0.0362
25639W        W41108   7.535  12.337  13.703  0.0700 -0.0309  0.1074
25640W        W41109   6.198  12.875  11.318  0.0977 -0.1217  0.1681
25641W        W41110  15.911   5.583   1.504 -0.3210  0.1055 -0.0652
25642W        W41111  16.384  15.471  15.202 -0.0885 -0.2887  0.2440
25643W        W41112   3.287   0.965   5.035 -0.0612 -0.0835 -0.0836
25644W        W41113  16.212   6.453  12.721  0.0708  0.0651 -0.1298
25645W        W41114   0.254  14.517   0.479  0.0296  0.2559  0.0910
25646W        W41115   0.375   2.822  13.460  0.2495 -0.1741  0.0271
25647W        W41116  13.600   5.985   0.792 -0.1248  0.3005 -0.0242
25648W        W41117   0.746  17.933  15.944  0.0153  0.1263 -0.0573
25649W        W41118  17.058  12.566   1.288 -0.0805  0.1631 -0.0221
25650W        W41119   8.643   8.804   5.432  0.0346 -0.1094 -0.1625
25651W        W41120   7.632  18.228   0.394 -0.0448 -0.1847  0.2748
25652W        W41121   7.723  12.502   2.044  0.1621  0.2538 -0.1858
25653W        W41122  10.153   6.777   9.843 -0.0442  0.2012  0.0510
25654W        W41123  11.018   9.422   4.167  0.1609  0.1257  0.0463
25655W        W41124   3.563   1.374   5.132  0.3944  0.0266 -0.1707
25656W        W41125  10.181   1.649   3.892 -0.0698 -0.2861 -0.0630
25657W        W41126  17.320   3.060   3.349  0.0139  0.0784  0.0376
25658W        W41127   5.117  14.095  12.843  0.0588  0.0617 -0.0794
25659W        W41128  12.664  17.039  11.304 -0.0456  0.0274 -0.0511
25660W        W41129  16.903  12.828  12.146 -0.0469  0.0312 -0.2276
25661W        W41130   5.375   5.341  11.561 -0.0732 -0.2082  0.0445
25662W        W41131  15.305  18.178  11.379 -0.3075 -0.0186  0.0888
25663W        W41132   9.824  16.527  14.618  0.2895 -0.0278 -0.0733
25664W        W41133   5.316  16.121  15.780  0.0981 -0.2460 -0.1002
25665W        W41134   8.546   5.117   4.493  0.0285 -0.0432  0.0639
25666W        W41135   0.545  13.294  12.622  0.2490  0.1189  0.0935
25667W        W41136  17.484  17.284  13.441  0.0732  0.0765  0.1959
25668W        W41137   0.093   8.143  14.696 -0.0385 -0.1283  0.0242
25669W        W41138  14.317  11.511  10.261  0.2050  0.2476  0.3460
25670W        W41139   8.425   1.805   3.742  0.0533  0.1088 -0.1575
25671W        W41140  18.049  11.295   1.326 -0.3271  0.1046 -0.1588
25672W        W41141   9.650   4.662   1.578 -0.0102  0.0409 -0.1507
25673W        W41142  17.143   0.845   2.483 -0.1381 -0.1159  0.1204
25674W        W41143   7.507   8.158   3.405  0.0824 -0.2556 -0.1683
25675W        W41144   9.780   3.339   0.838  0.1149  0.2322  0.2857
25676W        W41145  13.644   4.503   1.377 -0.0985  0.0371  0.0275
25677W        W41146   3.869  18.186  10.417  0.2259 -0.3403  0.0387
25678W        W41147   0.160  17.753   2.530 -0.1519  0.0728 -0.1175
25679W        W41148   2.458  13.475   3.980 -0.0691  0.0405  0.3152
25680W        W41149   5.681   5.557  12.336 -0.0997 -0.2061  0.1421
25681W        W41150   6.474   8.022  12.435  0.2243  0.1755  0.1391
25682W        W41151   1.276   0.196  11.663  0.3774  0.0775 -0.1400
25683W        W41152  13.038   2.341   3.402  0.0499  0.2151  0.0616
25684W        W41153   2.311   7.948  11.242  0.4486  0.1881  0.3136
25685W        W41154   4.830   9.885   1.930 -0.3169 -0.1060  0.0509
25686W        W41155   1.486   3.415  14.231  0.1993 -0.0823  0.1792
25687W        W41156  14.549   0.771   0.770 -0.0846 -0.1288 -0.1285
25688W        W41157  10.498  15.797   1.556 -0.0740 -0.1235 -0.0177
25689W        W41158  11.774  17.126   4.447 -0.3651 -0.0132 -0.2336
25690W        W41159  13.578   3.683  11.987 -0.1661 -0.0090 -0.3623
25691W        W41160   0.508  17.851   4.111 -0.1605  0.3178 -0.0308
25692W        W41161  14.987   8.181   5.109 -0.1092 -0.0314  0.2115
25693W        W41162  12.952   0.314  10.672  0.1523  0.2073  0.2531
25694W        W41163   8.490   8.176  13.373 -0.0553 -0.0620  0.1749
25695W        W41164   2.885  16.584  11.346 -0.0434  0.1549  0.0388
25696W        W41165   5.232   9.537   1.350  0.0438  0.1959 -0.1629
25697W        W41166  18.142   0.300   0.686  0.0659 -0.0403  0.0330
25698W        W41167   9.212   3.220   4.979 -0.0472  0.1001 -0.0787
25699W        W41168  10.168   5.513   3.830 -0.0436  0.3841  0.1637
25700W        W41169   1.199   6.018  11.952  0.0622  0.0100 -0.0064
25701W        W41170   2.438   3.772   0.769 -0.0917  0.0480 -0.1828
25702W        W41171  13.580   6.347  13.523 -0.1573 -0.0505 -0.1629
25703W        W41172   8.387  13.094  15.390  0.0376  0.2362 -0.0368
25704W        W41173   2.897   9.374   0.846  0.0777  0.0931  0.0261
25705W        W41174  16.938   0.154  12.850 -0.1519 -0.1408  0.0048
25706W        W41175  17.601   4.073  13.494 -0.0456 -0.0554 -0.0367
25707W        W41176  13.565  12.573  11.073 -0.3123  0.2055  0.0670
25708W        W41177  13.304  16.807   0.643  0.0402  0.0144 -0.1482
25709W        W41178   9.897   3.321   4.718 -0.1378 -0.1411 -0.4350
25710W        W41179   1.465   8.070   2.321  0.1349  0.0160  0.1727
25711W        W41180  16.417  11.573   4.874 -0.0413 -0.3811  0.3477
25712W        W41181   1.482   5.473   3.426  0.3184  0.3820 -0.0185
25713W        W41182  12.885   6.318  14.665  0.2847 -0.0947 -0.1230
25714W        W41183   9.988   6.823  11.508  0.0285  0.1683  0.0470
25715W        W41184   8.445  16.975  10.689 -0.2006  0.2537  0.5086
25716W        W41185  16.989  11.457  11.980 -0.1072  0.3505  0.4848
25717W        W41186  11.718  11.458   0.613 -0.2083  0.0904 -0.0378
25718W        W41187  16.775  12.969  12.947  0.2036  0.1768 -0.1298
25719W        W41188   1.149  10.696   2.244 -0.2070  0.0134 -0.1397
25720W        W41189  11.105   9.790   1.908  0.0689  0.1611  0.1619
25721W        W41190  14.632   3.463  12.714  0.3354 -0.1566  0.3859
25722W        W41191  18.411   5.920  12.690 -0.0582  0.0558  0.1118
25723W        W41192   3.279   7.217  10.938  0.0276 -0.3120 -0.1628
25724W        W41193   0.055  10.771   3.479 -0.0440  0.1934  0.0034
25725W        W41194   6.751   8.237   1.744  0.2590 -0.0845  0.0191
25726W        W41195   4.414   6.903   5.727 -0.1506 -0.0025 -0.0424
25727W        W41196  16.060  15.324   5.485 -0.1113 -0.0923 -0.0305
25728W        W41197   5.853  16.471   1.568 -0.2311 -0.2091  0.0489
25729W        W41198   1.890   4.492   1.929 -0.3657  0.1831 -0.2916
25730W        W41199   1.976   1.031  14.669 -0.1229  0.0635  0.0868
25731W        W41200  12.252   9.250  15.530  0.3866 -0.1599 -0.1132
25732W        W41201  15.849   0.393   2.548 -0.0561 -0.1103 -0.1417
25733W        W41202   0.295   1.323   0.497  0.0112  0.1698  0.0168
25734W        W41203  11.562  18.270  15.692 -0.0281 -0.0562  0.0890
25735W        W41204   7.927  14.238  11.459  0.1367  0.0060  0.0002
25736W        W41205  16.606   0.372   3.141  0.0780 -0.0237 -0.2399
25737W        W41206  11.858   0.493  14.532 -0.0647 -0.1864  0.0876
25738W        W41207   3.692  11.876  14.406 -0.0026  0.2573  0.2216
25739W        W41208   4.889   4.832  13.691 -0.0416 -0.4039  0.0748
25740W        W41209   9.963   4.110  13.806 -0.0936 -0.1314 -0.2772
25741W        W41210   8.839  15.390   3.565 -0.0233  0.2065 -0.1832
25742W        W41211   0.282   3.221   2.742  0.0598  0.5131 -0.3420
25743W        W41212  11.600  12.127  13.712 -0.0458  0.0345  0.1054
25744W        W41213   0.188   8.446   3.236 -0.2034 -0.2864 -0.1619
25745W        W41214  14.731  15.921  10.883 -0.1003  0.0417 -0.1846
25746W        W41215   9.672   4.947   2.788 -0.3048 -0.3880  0.0417
25747W        W41216   6.068   5.663  14.765  0.1104  0.0297 -0.0513
25748W        W41217   2.727  13.809  11.755 -0.3750 -0.1093 -0.0995
25749W        W41218  10.362   9.506  13.637 -0.2411 -0.0557  0.1166
25750W        W41219  14.129  13.428  11.063  0.2070  0.3202 -0.1246
25751W        W41220   8.520  17.893  11.666  0.2435 -0.1457  0.2907
25752W        W41221  17.483  13.851  14.516 -0.0570  0.2043  0.0643
25753W        W41222   2.216  18.373   3.731  0.0764 -0.2780 -0.0087
25754W        W41223   3.480  16.895   1.329 -0.3031 -0.2459 -0.1203
25755W        W41224  16.617   0.941  13.874  0.0901  0.0828 -0.2352
25756W        W41225   4.007  16.049  15.823 -0.1318  0.1594  0.0400
25757W        W41226   1.632  13.753  14.121 -0.0739 -0.2315 -0.1956
25758W        W41227  10.855  16.777  11.724  0.0400 -0.1898 -0.0502
25759W        W41228   1.531   4.949   2.108  0.0938  0.0276 -0.0613
25760W        W41229  13.259   4.744   1.599 -0.0678 -0.2312  0.1743
25761W        W41230   9.418  16.436  14.291  0.2523  0.2435 -0.0042
25762W        W41231   5.743   8.888   0.067 -0.0209  0.3360 -0.2496
25763W        W41232   2.732  13.972  15.959  0.0619 -0.0644 -0.2381
25764W        W41233   0.363  14.358  15.965 -0.2312  0.1567 -0.0317
25765W        W41234  10.648   0.084  13.764 -0.1844 -0.0145  0.3582
25766W        W41235   2.244   5.865  10.791  0.0248 -0.1301  0.0011
25767W        W41236   2.416   2.686  13.236 -0.1536  0.1397  0.0744
25768W        W41237   6.792  13.798   1.411  0.0237 -0.0511  0.0480
25769W        W41238   2.233   3.220  13.795  0.1585  0.2082  0.2254
25770W        W41239   6.447   0.195   3.905  0.0527  0.0247 -0.0248
25771W        W41240  13.215   7.290  13.400  0.0331  0.1089 -0.1829
25772W        W41241   4.411  17.455  11.170 -0.2501 -0.1786 -0.1226
25773W        W41242   0.770   8.806   1.506 -0.0325  0.2750 -0.0936
25774W        W41243  10.295   0.563   1.969 -0.0502 -0.1766  0.1270
25775W        W41244   3.048  13.486   4.488 -0.0369  0.2969  0.0405
25776W        W41245   9.128  14.704  14.683  0.3101  0.0798 -0.0888
25777W        W41246  14.008  15.845   0.311  0.0253 -0.2092 -0.2321
25778W        W41247   1.205   2.754  12.247  0.0942 -0.2667  0.1134
25779W        W41248  13.844  17.317  13.508  0.0641  0.2235  0.1247
25780W        W41249   2.100  15.738   3.953 -0.0895 -0.0152  0.0160
25781W        W41250   0.194   4.922  15.089 -0.3498  0.0516 -0.0215
25782W        W41251  17.579  17.405  14.515 -0.2614 -0.2325 -0.2426
25783W        W41252   2.459  13.106   0.590 -0.2688 -0.0041 -0.0044
25784W        W41253   6.325   0.268   2.428  0.0118 -0.0650 -0.4658
25785W        W41254  14.737  13.603  11.559  0.0686  0.0263 -0.1188
25786W        W41255   8.232   7.131  13.669 -0.1034  0.1146  0.3461
25787W        W41256  18.446   0.328  14.683 -0.2693  0.0088  0.0893
25788W        W41257   9.904   0.274  11.924  0.1386  0.0727  0.0554
25789W        W41258   9.057   9.221   0.910 -0.4444  0.0171 -0.2193
25790W        W41259   1.715   4.175  14.285 -0.0924  0.3907  0.0793
25791W        W41260   7.272   9.537   3.650  0.1841  0.1015 -0.2547
25792W        W41261   1.545   1.397   1.165  0.0271  0.0854 -0.0136
25793W        W41262  15.248   4.826   5.210 -0.3328 -0.2832 -0.1087
25794W        W41263   4.464  10.850   6.317  0.0584  0.0826  0.2755
25795W        W41264   3.875  13.570   4.988 -0.2175 -0.3050  0.3182
25796W        W41265   8.227   3.749  14.091 -0.1150 -0.0498  0.6348
25797W        W41266  13.956  13.780   1.368 -0.0799 -0.3467 -0.0074
25798W        W41267  16.151   2.702  15.121  0.2363  0.0854 -0.5763
25799W        W41268  17.873   1.097   3.222 -0.2397  0.1366  0.1440
25800W        W41269   7.125  17.816   5.599 -0.2155 -0.0422  0.2426
25801W        W41270   6.165  10.891  13.391  0.0845 -0.1107  0.2177
25802W        W41271   3.181   4.987  11.800  0.0341 -0.0717  0.0101
25803W        W41272  16.306  16.279  11.426 -0.2265  0.1545 -0.0326
25804W        W41273   3.272  11.524  12.322 -0.1863 -0.1645 -0.0251
25805W        W41274   5.025  13.576  15.442  0.2237 -0.0468 -0.1514
25806W        W41275   8.927  13.067  15.611 -0.0161  0.0399  0.2764
25807W        W41276   8.338   5.862  12.594  0.3294 -0.3855 -0.1592
25808W        W41277  16.571   9.174  15.197 -0.3395 -0.0474  0.0477
25809W        W41278   7.393   0.874  13.370  0.1837  0.1265 -0.0267
25810W        W41279   7.305   8.307  11.759  0.0798  0.0331  0.3502
25811W        W41280   7.427   6.730   0.925 -0.0418 -0.3918 -0.0214
25812W        W41281  16.709   7.617   5.835 -0.3658  0.1071  0.3012
25813W        W41282  18.398  17.022  10.933 -0.1450 -0.1373  0.0145
25814W        W41283   8.640   7.976  14.212  0.2762  0.0408 -0.0033
25815W        W41284   7.392   7.427  14.429 -0.1414  0.0958  0.1519
25816W        W41285  17.225   9.032   4.173 -0.1000 -0.0670  0.1985
25817W        W41286   7.044   9.858  14.756  0.0660 -0.1623  0.4496
25818W        W41287  16.849   9.395   0.096  0.2509 -0.0110 -0.0190
25819W        W41288   0.019   8.938   5.559  0.0743  0.3518 -0.0680
25820W        W41289   9.341   3.869   0.088 -0.1929 -0.0306 -0.1309
25821W        W41290  15.381   7.880   4.757  0.1053 -0.0580 -0.2415
25822W        W41291  17.149   0.090   0.730 -0.1152  0.0968 -0.0821
25823W        W41292  14.813  10.507  13.013  0.1446 -0.1111 -0.1094
25824W        W41293  11.304  16.615   0.081 -0.0576  0.1087 -0.1719
25825W        W41294   9.911  16.804   2.479  0.1304  0.1502 -0.2306
25826W        W41295  13.112   3.122  13.325 -0.0363  0.3148  0.0134
25827W        W41296  14.099  11.889   4.330  0.1685 -0.0875 -0.2733
25828W        W41297  15.391  18.413  14.726  0.4535 -0.1380 -0.4111
25829W        W41298   4.617   3.786  11.457 -0.1346 -0.2487  0.4538
25830W        W41299   7.210   1.865   2.927 -0.0908  0.0509 -0.0377
25831W        W41300   6.149  14.226  13.746  0.1031 -0.1667  0.0889
25832W        W41301   7.878   8.465  11.591 -0.1122 -0.2415 -0.0549
25833W        W41302   4.987   9.205  15.282 -0.1563  0.3273  0.0194
25834W        W41303  10.251   8.542  13.650  0.2120  0.0469  0.0258
25835W        W41304   8.137   3.267  13.935 -0.1385 -0.1123  0.0077
25836W        W41305  12.657  14.605  12.238 -0.1443 -0.0811 -0.2190
25837W        W41306   5.128  13.980  10.914 -0.0220  0.1094 -0.1772
25838W        W41307   8.760  15.475  10.551 -0.4419 -0.1414  0.0085
25839W        W41308  10.357  13.016  10.874 -0.0702  0.0579 -0.2349
25840W        W41309   7.207   0.144   3.988  0.2390  0.1980  0.1000
25841W        W41310   5.128   7.722  15.621  0.0746  0.3595  0.0025
25842W        W41311  14.703   3.728   1.722  0.1007  0.2059  0.1153
25843W        W41312   7.593  12.217  11.025 -0.0089  0.1215 -0.1408
25844W        W41313  13.464   4.090  13.799  0.3292  0.4483  0.0026
25845W        W41314  14.909   1.554   5.816  0.2202  0.2162  0.0384
25846W        W41315  12.237   7.120  14.446  0.1031  0.1148  0.0331
25847W        W41316  17.172   8.596   4.521  0.0862 -0.3772 -0.0449
25848W        W41317   7.386  11.740   5.116  0.1691  0.1171  0.1645
25849W        W41318   6.891  15.369  15.102 -0.2271  0.0305  0.1904
25850W        W41319  15.022  15.151  10.825 -0.0978  0.2340  0.2046
25851W        W41320  13.035  17.648   5.076  0.0838  0.0131  0.0379
25852W        W41321  15.303   6.073   5.585 -0.0020  0.1348 -0.0195
25853W        W41322  15.400  11.175  12.628 -0.0451 -0.0829 -0.1985
25854W        W41323   6.008  11.224  12.564 -0.2701 -0.1294 -0.1309
25855W        W41324  17.011  16.262  12.058 -0.0098  0.1257 -0.0826
25856W        W41325   5.941  14.795  13.754  0.3805 -0.0923 -0.1040
25857W        W41326  11.288  10.780  15.534 -0.4033 -0.1195  0.2669
25858W        W41327   8.348  17.259   9.852 -0.0311 -0.0276 -0.1653
25859W        W41328  17.903   9.318   3.423 -0.2916  0.2364 -0.1858
25860W        W41329   5.571  11.813   2.473 -0.1404 -0.1748 -0.1437
25861W        W41330   8.276   1.392   1.988 -0.0943  0.1798 -0.2003
25862W        W41331  13.559   7.623   4.698 -0.1134  0.1241 -0.2003
25863W        W41332  13.528   8.752   1.227 -0.6153  0.2327  0.0519
25864W        W41333  14.625   0.171   1.403 -0.1861 -0.2030 -0.2175
25865W        W41334   1.092   7.925   4.147 -0.3252 -0.1086  0.0575
25866W        W41335  17.845   5.256   3.360 -0.2566 -0.2367 -0.2425
25867W        W41336   4.805  14.883   1.637  0.2091 -0.2889 -0.0165
25868W        W41337  18.108  17.776   2.359  0.0228 -0.0695  0.3498
25869W        W41338   2.235   9.926   4.833 -0.1134 -0.0838  0.1657
25870W        W41339   5.344   3.337   0.723 -0.1769 -0.1571  0.0393
25871W        W41340  16.453   6.488  13.244 -0.2410  0.0234  0.1013
25872W        W41341   8.658   4.575  10.984  0.2603 -0.2937  0.2212
25873W        W41342   9.204  12.960   0.793  0.1887 -0.3302  0.0972
25874W        W41343   5.719  14.902  14.874  0.0582  0.0501 -0.0173
25875W        W41344  13.525  14.873  14.172  0.0092  0.0335 -0.1827
25876W        W41345  13.405   3.429   5.746 -0.1547 -0.0188 -0.1501
25877W        W41346  10.979  11.771  10.982 -0.1588 -0.1244 -0.2875
25878W        W41347   6.445  12.959   9.628  0.0706  0.2172  0.2935
25879W        W41348   0.154   7.977  13.956 -0.0404  0.4583  0.1840
25880W        W41349   0.539   9.618   0.575  0.1889 -0.3059 -0.2948
25881W        W41350   1.101  16.743  14.144  0.2676  0.0976 -0.2419
25882W        W41351   6.667  16.186   1.529 -0.2259 -0.2795 -0.1173
25883W        W41352  10.868  11.631  14.137 -0.2327 -0.3562 -0.1232
25884W        W41353   3.120  11.341   3.415 -0.2483 -0.1324 -0.2141
25885W        W41354   6.891  16.478   0.556  0.2761 -0.1718  0.1483
25886W        W41355   6.989  10.960   6.038  0.4145 -0.0517 -0.1959
25887W        W41356   0.892   7.753  12.668 -0.0642 -0.1381  0.0212
25888W        W41357  15.300   4.245  12.076  0.1575  0.1843  0.3501
25889W        W41358  10.530  17.560  11.814 -0.1367 -0.1281  0.1345
25890W        W41359   4.879   5.909   1.197  0.1608  0.2135 -0.2942
25891W        W41360   2.717  11.997  11.692  0.0376  0.1487 -0.0224
25892W        W41361  16.043   3.250   4.724 -0.1688  0.2858 -0.0089
25893W        W41362   4.151  16.147  13.946  0.0368  0.0862  0.2829
25894W        W41363   3.604  13.315  14.683  0.1536 -0.1820 -0.0862
25895W        W41364   3.819   3.628  15.860 -0.1754  0.3608  0.0748
25896W        W41365   3.836   2.675   5.596  0.1705  0.0575  0.3354
25897W        W41366  14.434   3.434  15.201  0.2215 -0.1966  0.0394
25898W        W41367   5.816   1.629  11.477  0.0110 -0.1230  0.1006
25899W        W41368  10.528  15.807   2.796  0.2453 -0.2552  0.0917
25900W        W41369  12.946   0.464   1.807 -0.0367  0.2387  0.0366
25901W        W41370   9.705  16.497  15.113  0.0497  0.1174 -0.0554
25902W        W41371   7.186  17.253  13.536 -0.1859 -0.2963 -0.0090
25903W        W41372   7.161  13.057  14.022  0.1364  0.2460 -0.0943
25904W        W41373  11.505  16.834  15.305 -0.1151  0.1534 -0.0970
25905W        W41374  11.983   2.781  12.479  0.0544 -0.1157 -0.1042
25906W        W41375  12.299   7.441   3.178  0.0008  0.0679  0.0872
25907W        W41376  10.673   4.797  10.881 -0.0581  0.3954 -0.0988
25908W        W41377  13.766  10.578   5.426  0.3616  0.0765  0.2147
25909W        W41378  11.065   7.143  11.763 -0.1210 -0.2952 -0.2456
25910W        W41379  11.084   8.893  10.888 -0.2905  0.1561 -0.0048
25911W        W41380  13.510  14.186   3.289 -0.3532  0.1523  0.0328
25912W        W41381  12.067  15.252  13.966  0.0739 -0.1057 -0.1326
25913W        W41382   6.779  12.930   3.282  0.3128  0.4164  0.0703
25914W        W41383   5.745   8.166  10.950 -0.0539 -0.3376 -0.1003
25915W        W41384   3.626  13.707  15.729 -0.1288 -0.0698  0.0344
25916W        W41385   3.583  11.622  13.985  0.0764  0.1727 -0.1584
25917W        W41386  10.260   4.847   6.099 -0.0910 -0.1461 -0.1349
25918W        W41387  17.812   8.482   0.581  0.0372  0.1425 -0.2167
25919W        W41388   2.413  10.619   3.462  0.0360  0.1079 -0.1609
25920W        W41389   7.269   9.133   1.784  0.1799 -0.0090  0.0156
25921W        W41390   4.075   6.066   5.610 -0.1545 -0.0896  0.5582
25922W        W41391  13.514   6.046  13.011  0.3030 -0.1190  0.0205
25923W        W41392  15.005  10.233  11.490 -0.0048 -0.2313  0.0559
25924W        W41393  10.384   4.950   4.855 -0.0657 -0.1430  0.0833
25925W        W41394  13.692   9.750   5.067 -0.0213  0.0240 -0.1861
25926W        W41395   4.642  11.103   2.278 -0.4197 -0.2162  0.2062
25927W        W41396  17.236  12.757   2.734 -0.1558  0.0570  0.2130
25928W        W41397   9.981   5.056   3.961 -0.1124 -0.2482 -0.0634
25929W        W41398  14.836  17.326   9.921  0.1265 -0.0979 -0.0501
25930W        W41399   5.496   7.843   0.501 -0.2898  0.0377 -0.1619
25931W        W41400   1.250   3.197   3.993  0.1374 -0.2862  0.1710
25932W        W41401   1.156   4.318  12.816  0.0942  0.1001 -0.0658
25933W        W41402  13.054   8.778   4.607  0.3320  0.2410 -0.0755
25934W        W41403   0.484   4.273  15.984  0.0691 -0.0778  0.0369
25935W        W41404   7.561  17.562  11.956  0.1989  0.0918  0.0165
25936W        W41405   3.674  10.359   4.055  0.1329 -0.0575 -0.0417
25937W        W41406   4.307  15.290  12.040  0.2260 -0.0408  0.2452
25938W        W41407   0.759  17.656  14.487  0.1277  0.2179  0.0264
25939W        W41408   3.573   2.396  15.957 -0.1220 -0.2551 -0.2641
25940W        W41409   1.952  16.772  13.143  0.0448  0.0180 -0.3723
25941W        W41410   0.358   0.173  15.698 -0.0144  0.1043 -0.4585
25942W        W41411   4.028   4.610  15.082  0.1100 -0.1794  0.0824
25943W        W41412   2.936  10.521  11.634  0.0164  0.0819 -0.0700
25944W        W41413   6.800  12.912  13.284 -0.0763  0.1509 -0.1932
25945W        W41414  17.293   2.408  12.874 -0.0670 -0.2621  0.2305
25946W        W41415  12.155  11.624   2.551  0.1997 -0.1801  0.0455
25947W        W41416  15.139  18.251  12.855  0.0792  0.1148 -0.0612
25948W        W41417  12.055   4.156   5.623  0.0302 -0.1490 -0.0202
25949W        W41418  15.519   7.475  12.538  0.0210  0.2736 -0.1066
25950W        W41419  14.951  17.029   4.199 -0.1160 -0.1145 -0.1089
25951W        W41420   5.777   7.412  13.812 -0.2467 -0.0487 -0.0342
25952W        W41421  11.789   3.080  12.832  0.3730  0.1401  0.0834
25953W        W41422  14.494  14.180  12.231 -0.0919  0.1195 -0.1460
25954W        W41423   4.756  13.650   3.720 -0.1589  0.1616 -0.3054
25955W        W41424  10.311   3.873  14.462  0.0956 -0.1323 -0.0411
25956W        W41425   5.600  13.118   2.780  0.2384 -0.0286  0.1588
25957W        W41426   5.248  17.039   2.612  0.2215  0.0610 -0.1841
25958W        W41427  16.755   4.768   3.152 -0.1365  0.3216  0.2226
25959W        W41428  13.685  17.644  10.869 -0.2090 -0.2362 -0.2255
25960W        W41429  17.911   6.800  11.186  0.2119  0.1308  0.2724
25961W        W41430  10.599  14.494   2.466 -0.1022  0.0993  0.1787
25962W        W41431  11.748   6.103   2.055 -0.0438 -0.2377 -0.4080
25963W        W41432  12.198   8.361   0.465  0.1544  0.2335  0.1331
25964W        W41433  14.636  11.253   3.402 -0.0816  0.0101 -0.2499
25965W        W41434   3.293  14.530  14.330  0.2712  0.0555 -0.0362
25966W        W41435  17.894   9.178  13.164 -0.1193  0.0519 -0.2873
25967W        W41436   3.835   3.188   4.384 -0.0641  0.1040  0.0350
25968W        W41437   7.780   6.339  11.892 -0.1505  0.2494 -0.0835
25969W        W41438  13.756  11.050   4.771  0.2350  0.2117  0.0835
25970W        W41439   3.934  14.341  15.018  0.2681  0.3568 -0.2385
25971W        W41440  14.956   0.339  13.982 -0.1117 -0.3383  0.1961
25972W        W41441  10.939   3.365  11.041 -0.0225 -0.1246  0.0855
25973W        W41442   5.062   3.565   2.109  0.3615  0.2466 -0.2264
25974W        W41443   1.672   6.580  11.312 -0.3184  0.3514 -0.1364
25975W        W41444  16.248   2.882  14.088 -0.0214 -0.0837 -0.1587
25976W        W41445  18.413  15.510   1.119  0.3961 -0.1751 -0.2622
25977W        W41446  14.990   7.559  13.167  0.1312 -0.2627 -0.0921
25978W        W41447   0.056  14.491   4.987  0.3034 -0.0782  0.2012
25979W        W41448  11.181   2.650   3.349 -0.1699 -0.1091 -0.2344
25980W        W41449  12.722   8.578  11.111  0.1552  0.0505  0.0152
25981W        W41450   1.507   9.886   3.184 -0.0081 -0.1375  0.0942
25982W        W41451  11.389   0.530   4.530 -0.0062 -0.1147 -0.0359
25983W        W41452  16.681  16.841   4.094  0.0895 -0.1967 -0.2607
25984W        W41453   2.331  10.473   5.819  0.4427 -0.0712  0.1438
25985W        W41454  13.594   9.581   4.096 -0.1361  0.0167  0.6279
25986W        W41455   0.849  17.887  12.539  0.1803 -0.1198 -0.1600
25987W        W41456  14.447  10.163  12.849 -0.1588 -0.2564  0.0216
25988W        W41457  14.689  11.930   0.444 -0.2402  0.3642 -0.0194
25989W        W41458   7.207   9.360  15.374 -0.1395  0.0216  0.1988
25990W        W41459  16.713  14.274   0.550 -0.1798 -0.1645  0.3306
25991W        W41460   2.451   7.369   5.381  0.1538  0.1011  0.0399
25992W        W41461  10.204   1.136  11.032 -0.1633  0.0984 -0.0936
25993W        W41462  11.563   6.570   0.741 -0.1649  0.2344  0.2697
25994W        W41463   7.068   9.049   2.810  0.1428 -0.0099 -0.0377
25995W        W41464   0.698  16.704  12.982  0.0632  0.0494 -0.0802
25996W        W41465   3.239   8.959   3.093  0.2734  0.1897 -0.1755
25997W        W41466  17.042   4.433  11.346 -0.0254 -0.2252 -0.1077
25998W        W41467   5.999   2.950   4.303  0.1235  0.1574 -0.3752
25999W        W41468  11.784  13.763   2.862 -0.0459  0.0296 -0.0651
26000W        W41469   2.749   6.647   3.160  0.0110 -0.1601 -0.0835
26001W        W41470   6.876   5.238   3.390 -0.0155 -0.5386 -0.0350
26002W        W41471  15.685   8.639   0.694 -0.0332  0.1611 -0.1347
26003W        W41472  13.933  16.065  15.419 -0.0574 -0.4231 -0.0591
26004W        W41473   5.796  17.821  10.506 -0.2731  0.1537 -0.0669
26005W        W41474  12.306   7.977  10.613  0.0434 -0.0005 -0.4446
26006W        W41475   1.336  12.738   0.143 -0.0252 -0.0755  0.0007
26007W        W41476  13.423   4.103   2.283  0.3946  0.0988 -0.1150
26008W        W41477   2.242   6.092   4.897  0.0731  0.2280  0.0574
26009W        W41478   5.446   1.761  14.374 -0.1249  0.1245  0.1079
26010W        W41479  11.627   0.506   2.625 -0.0241 -0.3784  0.0433
26011W        W41480   2.856   9.000  15.984 -0.2018  0.1732  0.0729
26012W        W41481  13.580  16.511  15.752  0.0902 -0.1761  0.1506
26013W        W41482   0.466  15.823  13.608 -0.0538  0.0794  0.1344
26014W        W41483   8.525  12.008   4.082 -0.2711  0.4954 -0.0743
26015W        W41484   0.579  10.395  11.485 -0.4295 -0.1424 -0.0641
26016W        W41485   1.231   0.932   5.604 -0.1469 -0.0327  0.0388
26017W        W41486   5.845   9.876   0.209  0.0291 -0.3952 -0.2026
26018W        W41487   6.159   1.837   5.364 -0.1620  0.1783  0.0077
26019W        W41488  11.870   5.688   3.455 -0.2063 -0.0189  0.2242
26020W        W41489   9.386  14.164  13.072 -0.0747 -0.3870 -0.1478
26021W        W41490  10.050   7.501   0.100 -0.0252  0.0307 -0.1775
26022W        W41491  13.572  16.466   2.537 -0.2730  0.3277 -0.0617
26023W        W41492   0.813   0.882  14.267 -0.2721  0.0724  0.0609
26024W        W41493  10.117   2.012  11.008  0.2448  0.0758  0.0477
26025W        W41494  16.464   0.995  11.096 -0.1651  0.2526 -0.0093
26026W        W41495   9.244   5.005   1.035  0.0179  0.2788  0.0926
26027W        W41496  16.542  10.108   5.561 -0.1900 -0.0201  0.0085
26028W        W41497   5.958   0.040   3.988 -0.1016 -0.1805  0.0316
26029W        W41498   5.732   9.558   1.589 -0.0197 -0.1713 -0.0469
26030W        W41499   4.961  14.451   5.118 -0.0729 -0.0699 -0.1398
26031W        W41500   1.774   2.962  13.943  0.2155 -0.0854 -0.4809
26032W        W41501  10.637   6.483   5.616 -0.2324  0.1618  0.0892
26033W        W41502  17.651  14.952  13.309  0.2083  0.0782 -0.0050
26034W        W41503   2.490  11.944   0.514  0.1651  0.1483  0.5006
26035W        W41504   5.973  18.401  15.252  0.1162 -0.1867 -0.3516
26036W        W41505   0.558  18.285  14.013 -0.0750 -0.1415  0.1496
26037W        W41506   8.570   2.295  10.788  0.0023 -0.3776  0.0498
26038W        W41507   3.622  11.794   4.386 -0.1344  0.0277  0.2313
26039W        W41508  16.218   1.044   4.140  0.2230 -0.0431 -0.0884
26040W        W41509   7.580   4.432   2.785 -0.2437  0.1229 -0.1953
26041W        W41510   0.572   0.627  13.911  0.1855 -0.0423  0.4298
26042W        W41511  10.677  15.504  12.974 -0.1220 -0.1623  0.0859
26043W        W41512  10.488   2.254  12.483  0.1562 -0.0425  0.3027
26044W        W41513   7.740   7.779  12.781  0.0052 -0.1404 -0.2747
26045W        W41514   9.513  13.112   0.311  0.1629 -0.1206  0.1715
26046W        W41515   0.800  17.185   4.868  0.1778 -0.1550 -0.0644
26047W        W41516   8.007   2.043  12.954 -0.3315  0.0551  0.0356
26048W        W41517  13.573  14.510   5.236 -0.1432 -0.1690 -0.1279
26049W        W41518  10.052  14.650  11.611  0.1172 -0.1892  0.0381
26050W        W41519  16.911   2.340  15.492 -0.3023 -0.0361 -0.1951
26051W        W41520   4.284  17.864   2.691 -0.0041  0.1613 -0.1348
26052W        W41521   9.105   7.906   2.461 -0.0551  0.0493 -0.1296
26053W        W41522  18.129   0.256   0.131 -0.1406  0.0338 -0.0783
26054W        W41523   4.292  11.153  15.880 -0.3926  0.1831 -0.5069
26055W        W41524  10.754  16.401  10.998  0.1236 -0.2147 -0.1219
26056W        W41525   0.907   7.774   0.657  0.0285  0.3254 -0.0272
26057W        W41526   8.317  14.859  14.893  0.0720  0.0016  0.0529
26058W        W41527  11.318   1.312   2.495  0.0631  0.2599 -0.0575
26059W        W41528   6.132   8.727  12.908  0.1895  0.0432 -0.0356
26060W        W41529  16.639  17.266  11.983  0.1931  0.0996 -0.1750
26061W        W41530  18.094   7.851  13.812 -0.1621 -0.1018  0.2712
26062W        W41531   8.202  16.341  10.196  0.2150 -0.2545  0.3910
26063W        W41532   0.342   3.254  13.742  0.1400  0.0353 -0.0382
26064W        W41533  12.062  13.772   2.384 -0.1809 -0.2642  0.1642
26065W        W41534   2.699   9.408   5.523  0.4966  0.0156 -0.2473
26066W        W41535   3.437  12.131   1.636  0.2445 -0.2044 -0.2706
26067W        W41536   8.203   5.051   5.386  0.2095 -0.3173  0.1061
26068W        W41537  16.005  15.949  11.208  0.3180 -0.1188 -0.1069
26069W        W41538  15.897  18.302  14.769  0.2481 -0.0433 -0.2165
26070W        W41539   5.574   3.597  14.846 -0.2661 -0.3656  0.0637
26071W        W41540   6.160  14.516  11.780  0.4261 -0.0260  0.1757
26072W        W41541   5.096  15.346   3.310 -0.0207  0.2336 -0.2328
26073W        W41542   9.199  15.933   4.156  0.3535 -0.1508  0.1491
26074W        W41543  14.522   8.851  15.711  0.0657 -0.2363  0.0037
26075W        W41544  17.035  12.897  14.116 -0.2389 -0.3367 -0.1983
26076W        W41545   7.609   7.947   5.634 -0.0455  0.1952 -0.1976
26077W        W41546   4.019  18.320  14.185 -0.0511  0.0077  0.1546
26078W        W41547   1.009   4.098   4.118 -0.0736 -0.1260  0.0627
26079W        W41548   1.569   5.266   2.489 -0.0333 -0.3709  0.3109
26080W        W41549   7.464  14.430   2.735  0.0650  0.2075 -0.0042
26081W        W41550   0.336  15.356   1.334  0.1180  0.1325  0.0267
26082W        W41551   5.063   8.885  14.326 -0.1495  0.0641 -0.0580
26083W        W41552   8.798   4.864  11.420  0.0244  0.0819  0.0006
26084W        W41553  13.459   5.993   3.824 -0.1344 -0.0490 -0.0257
26085W        W41554  11.870  14.432   4.242 -0.0636 -0.0022 -0.0651
26086W        W41555   5.529  11.513   1.031  0.1022  0.0887 -0.3387
26087W        W41556   5.055   5.266   4.915  0.0331  0.0580 -0.1910
26088W        W41557   4.932   6.209   2.612  0.2105 -0.1574  0.2029
26089W        W41558  14.621  15.562  12.954 -0.4122 -0.2402  0.1107
26090W        W41559   1.946  14.234  12.280 -0.0401 -0.1553 -0.1076
26091W        W41560  15.440   3.486  11.785  0.1520 -0.2577 -0.3083
26092W        W41561   9.553  14.282   3.602  0.0614 -0.1327  0.1373
26093W        W41562   2.669   5.588  11.376  0.4395 -0.2380 -0.0413
26094W        W41563   8.798  13.188   3.423 -0.0852 -0.1100 -0.0982
26095W        W41564   3.421   3.127  11.698  0.0119 -0.0335  0.0711
26096W        W41565  17.249   9.144  11.498 -0.2450  0.0770 -0.1271
26097W        W41566   2.868  13.443   3.144  0.0799 -0.1057 -0.2466
26098W        W41567  18.325  11.502   3.025  0.0978  0.0067  0.0729
26099W        W41568  18.366   6.387   3.446  0.0415 -0.0792 -0.1489
26100W        W41569  10.765   2.043   0.065 -0.3262  0.0450  0.1296
26101W        W41570   5.854  15.434   5.404 -0.0818  0.1409 -0.4014
26102W        W41571  15.658   5.680   0.294 -0.1439  0.2601  0.1466
26103W        W41572  13.200   7.035   3.057 -0.1322 -0.2789 -0.0310
26104W        W41573  16.972   9.245  14.745  0.0127 -0.6401 -0.3095
26105W        W41574  15.750  15.660   0.776 -0.1922  0.2995  0.1002
26106W        W41575   2.183   4.499  14.676  0.1721 -0.0542  0.1382
26107W        W41576  12.280  16.330  14.331  0.1177 -0.0796 -0.0262
26108W        W41577   3.302   8.083   1.552 -0.2638 -0.3874  0.0517
26109W        W41578   7.915  13.763  13.404 -0.2994  0.0844  0.0168
26110W        W41579  11.097   4.201  13.481  0.1109 -0.0210  0.2542
26111W        W41580  18.099  13.213  15.187  0.0195  0.0218 -0.0174
26112W        W41581  16.517   0.732   4.720  0.1375  0.0631 -0.3662
26113W        W41582  13.364  11.773   0.478 -0.3411  0.0740  0.0442
26114W        W41583  13.180   0.174   4.673 -0.1596 -0.2452  0.0719
26115W        W41584  18.272   5.404   3.036 -0.1935 -0.1049  0.2247
26116W        W41585  13.611  14.355   2.582  0.1552 -0.3225  0.1149
26117W        W41586  16.047  13.548  10.559  0.0731  0.0750  0.1157
26118W        W41587   1.114   7.565   5.378  0.0187  0.0198 -0.1038
26119W        W41588   8.498   0.583   3.341 -0.0304  0.2225 -0.1346
26120W        W41589  17.228  12.308  11.821  0.2328 -0.0431  0.1234
26121W        W41590   6.106   9.322  13.635  0.0630  0.0756  0.0612
26122W        W41591  13.506  18.073  14.575 -0.2823  0.0639  0.0650
26123W        W41592  11.115   7.957  11.248  0.2406  0.1945  0.3240
26124W        W41593  18.232   1.152  10.214 -0.0968  0.1515  0.3106
26125W        W41594   9.369  16.551  13.405 -0.1657  0.0655 -0.0668
26126W        W41595   2.055   6.264   0.010 -0.0028  0.1077 -0.1900
26127W        W41596   5.552   0.112  15.129  0.0875  0.2343  0.5298
26128W        W41597   9.739   0.498  15.950  0.0582  0.1663  0.1162
26129W        W41598  10.624  13.805  12.468 -0.1326 -0.0403  0.0004
26130W        W41599   1.229  17.665  13.744  0.2668 -0.2297 -0.2917
26131W        W41600  11.716   6.560  11.259 -0.0602  0.1841  0.0458
26132W        W41601  14.033   5.309   0.013  0.0393 -0.1613  0.0300
26133W        W41602  12.207   6.461  14.310 -0.1099  0.0158 -0.1156
26134W        W41603  13.374   8.288   1.255  0.0657  0.0024 -0.2277
26135W        W41604  10.170   6.504  15.970  0.3368  0.2107  0.2481
26136W        W41605  12.130   6.511   5.656 -0.2104  0.1551  0.1089
26137W        W41606  17.099   8.535   3.886  0.3526 -0.2261 -0.1236
26138W        W41607   3.442  14.261  14.813 -0.1200 -0.0342  0.2537
26139W        W41608   6.273   9.250  11.392 -0.1369  0.0013  0.0406
26140W        W41609   4.592   3.527   3.300 -0.0856 -0.0642  0.2667
26141W        W41610   6.421   6.280   1.652  0.1120 -0.1771 -0.0964
26142W        W41611   2.082   6.572   9.984  0.0012  0.1935  0.3273
26143W        W41612  12.486  17.773   1.363 -0.0481 -0.0574 -0.0171
26144W        W41613   9.949   8.998   4.115  0.0556  0.2410  0.1770
26145W        W41614   4.781  11.760   0.682  0.0088 -0.0790 -0.0508
26146W        W41615   5.361   8.151  14.297 -0.2421 -0.2646 -0.0653
26147W        W41616  11.402   3.689   2.291  0.0146  0.1282  0.1690
26148W        W41617  15.039   4.493  15.550  0.0311 -0.1878 -0.1558
26149W        W41618   2.613  15.757   0.478 -0.0847  0.0666  0.0307
26150W        W41619   3.039   3.488  13.275 -0.3308 -0.2674  0.2204
26151W        W41620   6.644   5.343  12.932  0.0230 -0.1131 -0.1147
26152W        W41621  14.138   9.966   0.768 -0.1263  0.2979 -0.1157
26153W        W41622   5.388   6.548   3.299  0.2306 -0.3196  0.1207
26154W        W41623  10.793  16.295  11.453 -0.0648  0.0294  0.0168
26155W        W41624   2.489   3.569  14.105 -0.2240  0.2728 -0.0762
26156W        W41625   2.947  12.973  11.813  0.2557  0.1357 -0.3479
26157W        W41626   9.616   7.000  13.950 -0.2173 -0.2567 -0.1961
26158W        W41627   1.852   8.992   3.645  0.0580  0.4599  0.4536
26159W        W41628  18.229   6.027   4.405 -0.0246 -0.0175 -0.1859
26160W        W41629  15.799   7.223  13.273  0.0719  0.0460 -0.1315
26161W        W41630  10.362   0.358  11.303  0.1624 -0.1069 -0.0449
26162W        W41631   0.671   6.028  15.727 -0.3961  0.2308  0.0220
26163W        W41632  12.532   1.481  12.486 -0.0453 -0.2442  0.1902
26164W        W41633   9.209   5.368   5.282  0.0134 -0.3784  0.0051
26165W        W41634  11.575   4.466  14.633 -0.1271 -0.3463  0.0538
26166W        W41635   3.353   7.769   5.352  0.1034 -0.2308 -0.0072
26167W        W41636  14.812  13.061   2.391  0.0118 -0.4069  0.2061
26168W        W41637   0.174  13.214   0.664 -0.0080 -0.2382 -0.2357
26169W        W41638   6.734  15.639  10.834  0.2849  0.3140  0.2104
26170W        W41639   6.747  16.673   2.070 -0.2105  0.0699 -0.3690
26171W        W41640   6.280   4.697   1.863  0.2696  0.2569  0.1655
26172W        W41641   0.147   4.103  12.501 -0.3287  0.2070 -0.2350
26173W        W41642  10.205   5.444  14.990  0.0343 -0.0648 -0.1923
26174W        W41643   9.742   5.419   1.103  0.0413  0.4065 -0.0468
26175W        W41644  15.933   3.739  11.814  0.0480  0.0273 -0.1293
26176W        W41645   3.061   3.147  12.624 -0.1607  0.2180  0.2430
26177W        W41646  13.091  11.280   1.796  0.1555  0.2295  0.2679
26178W        W41647   2.730  13.141  11.017 -0.1858 -0.1150 -0.1415
26179W        W41648  11.748  11.586  12.065 -0.0252  0.1948 -0.1723
26180W        W41649  14.498  11.809   2.530  0.0405  0.2503  0.0586
26181W        W41650   0.748  15.475  13.899 -0.1372 -0.3611 -0.3965
26182W        W41651   6.767   3.369  11.976 -0.1118 -0.1418 -0.0407
26183W        W41652   6.651  15.145  10.617 -0.2327  0.0727  0.1289
26184W        W41653   2.255  18.052   5.294  0.1912  0.1215  0.0237
26185W        W41654  12.559   1.466  13.788 -0.3036  0.2737  0.0407
26186W        W41655  14.601  18.345   4.235  0.1426 -0.3206 -0.0838
26187W        W41656   0.261   9.665  11.053 -0.1667 -0.0424  0.1874
26188W        W41657  14.484   4.841  13.166  0.0967  0.1228  0.0324
26189W        W41658   9.340   4.718  11.385 -0.0121 -0.0303  0.1686
26190W        W41659   5.846  17.011  11.346 -0.1833 -0.1993 -0.0133
26191W        W41660  15.161  16.429  13.735 -0.0835  0.0857 -0.0200
26192W        W41661   7.130   3.094  12.971  0.2557 -0.2635  0.2246
26193W        W41662   3.934   5.145  12.295 -0.0629  0.0264 -0.1077
26194W        W41663   0.810  18.214   4.944  0.1033 -0.2197  0.4322
26195W        W41664   7.469   1.659  14.019 -0.0199 -0.1007 -0.0419
26196W        W41665  17.423  10.220  11.828 -0.1209 -0.2262 -0.2662
26197W        W41666   2.340  14.937  14.891  0.1853 -0.1618 -0.3826
26198W        W41667   2.400  18.428  14.036 -0.0093  0.0442  0.2664
26199W        W41668   1.934   5.512  12.282 -0.2859  0.0325  0.1301
26200W        W41669  11.179  11.663   1.236 -0.1630  0.1219  0.0188
26201W        W41670  17.381   4.654  14.761  0.1124 -0.1331  0.0955
26202W        W41671   4.272   0.465   4.287  0.2220  0.2569 -0.0257
26203W        W41672   4.717   7.182  14.945 -0.0820 -0.1211  0.1194
26204W        W41673   5.996  17.266  13.707 -0.1005 -0.0032 -0.2616
26205W        W41674  11.754   5.698  15.545  0.1879 -0.1546  0.1740
26206W        W41675  17.271   5.561  11.238  0.4404  0.0149  0.0583
26207W        W41676  15.537  16.028   3.814 -0.1594 -0.1013 -0.0858
26208W        W41677  11.530  14.104   0.866 -0.0161 -0.2417 -0.0793
26209W        W41678   8.785  16.372   2.318  0.1829  0.0926  0.2768
26210W        W41679   5.388  11.377  14.627  0.3523  0.2531 -0.1049
26211W        W41680   6.804  13.198   1.210  0.1917 -0.0059  0.1570
26212W        W41681   2.686  15.044  13.068  0.0815  0.7386 -0.0776
26213W        W41682   8.575  10.066  14.779 -0.1133 -0.4329  0.1676
26214W        W41683  14.559  13.381  12.041 -0.1843 -0.0726 -0.0311
26215W        W41684  12.671  17.441  12.469 -0.2019  0.0923 -0.1256
26216W        W41685  10.684  18.163  15.153 -0.4394 -0.1594  0.1300
26217W        W41686  15.100  15.955  12.331 -0.2744 -0.2131 -0.1778
26218W        W41687   3.540  13.543   2.833 -0.1135  0.0082  0.0716
26219W        W41688  10.063   9.842  12.063  0.0272 -0.0278  0.1358
26220W        W41689  12.287  15.419  14.429 -0.1799  0.1956 -0.5073
26221W        W41690   5.809   0.649   0.319  0.0009 -0.1648  0.2241
26222W        W41691  12.216  14.120   4.354 -0.3100 -0.1940  0.0963
26223W        W41692   9.795   5.756   1.547 -0.0974  0.2164 -0.1907
26224W        W41693  10.911   4.542  10.524  0.0847 -0.1924 -0.1347
26225W        W41694  11.416   4.534   1.250 -0.4885 -0.2251  0.1552
26226W        W41695   7.527  11.708  10.935 -0.1044  0.3267 -0.2160
26227W        W41696  10.868   5.431  10.903  0.2167 -0.0980 -0.0279
26228W        W41697   5.380  14.406   2.361  0.1598 -0.2887  0.2442
26229W        W41698   9.010   1.397   1.680 -0.0714 -0.1408 -0.0378
26230W        W41699  13.812  16.711  14.949 -0.2829 -0.1017 -0.2704
26231W        W41700   3.322  17.597   3.125  0.1388 -0.4339 -0.2464
26232W        W41701   3.368   0.148   0.739 -0.1519 -0.2119 -0.2337
26233W        W41702  17.639   8.686   4.269  0.0395  0.1708 -0.1575
26234W        W41703   8.761   9.206   0.517  0.0951  0.2237 -0.0992
26235W        W41704   0.088   6.327   1.483 -0.0481 -0.0162  0.1389
26236W        W41705  14.562   9.678  15.112  0.3856 -0.1766 -0.0679
26237W        W41706   1.953  18.085  13.336  0.0259  0.3643  0.1343
26238W        W41707  18.148  15.812  15.049 -0.5211 -0.2885 -0.4390
26239W        W41708  16.805   3.162  12.134  0.0281 -0.0177  0.0927
26240W        W41709  16.127   8.655   2.691 -0.3826 -0.1940 -0.0897
26241W        W41710  14.555  10.673  12.579  0.0611 -0.0702  0.0718
26242W        W41711  15.666  14.771  14.039 -0.2280 -0.1387 -0.0613
26243W        W41712  15.868   0.617  12.671 -0.0079 -0.0312 -0.1883
26244W        W41713  12.413  17.123  14.015  0.1208 -0.0594  0.2641
26245W        W41714  11.807  18.258  15.150  0.1919 -0.0139 -0.1126
26246W        W41715  10.230  15.112  13.860 -0.1052  0.1824 -0.1944
26247W        W41716   0.183  16.454  13.017 -0.2201 -0.0622  0.0999
26248W        W41717   6.179  13.253  10.971 -0.1247 -0.0218  0.2563
26249W        W41718   9.437  16.945   1.739  0.2137 -0.4178  0.2234
26250W        W41719   7.609   3.116  15.633  0.1222 -0.1446  0.1000
26251W        W41720   6.694  14.003   4.533  0.0906 -0.1357  0.1292
26252W        W41721   5.596  12.805  12.849  0.1560 -0.0834  0.2900
26253W        W41722  13.673  18.091   0.787 -0.0468 -0.0441 -0.1207
26254W        W41723   8.626  16.657  12.086 -0.2098 -0.1219  0.0710
26255W        W41724  11.636   3.845   5.640 -0.1764  0.3043 -0.2048
26256W        W41725  17.903  10.501   1.907  0.2952  0.1120  0.1233
26257W        W41726   3.816   1.334   1.979  0.1717  0.0571  0.3647
26258W        W41727  11.567  18.016  12.794  0.3640 -0.0044  0.1346
26259W        W41728  14.088  12.389   2.628 -0.1323 -0.2797  0.0243
26260W        W41729   8.156   7.568   3.641  0.0974  0.0096 -0.0651
26261W        W41730  16.834   5.974  11.895  0.0758 -0.1196  0.0548
26262W        W41731  10.434   6.194  12.297  0.1981 -0.0392 -0.4020
26263W        W41732  11.231   8.225  15.025  0.0339  0.1234  0.0503
26264W        W41733  10.099   7.487   4.040  0.0411 -0.1238 -0.0360
26265W        W41734   5.130  16.491   4.169  0.0714 -0.0416 -0.2201
26266W        W41735  11.665   2.249   3.598 -0.0531  0.0130 -0.1771
26267W        W41736  12.694   9.517  12.352 -0.3514  0.0948 -0.1521
26268W        W41737  16.454   7.536  10.956 -0.2228  0.1378 -0.1404
26269W        W41738   2.323  16.546   5.105  0.1018 -0.0201 -0.0296
26270W        W41739  14.633   8.437   1.727  0.0374 -0.0243 -0.3271
26271W        W41740   2.092   8.026   3.728  0.1641 -0.1528  0.1878
26272W        W41741  11.970  17.443   1.240 -0.2389 -0.1750  0.2145
26273W        W41742   7.242   5.190  11.457 -0.4480  0.1040 -0.2373
26274W        W41743   7.511   7.030  14.014 -0.5976  0.0121 -0.2176
26275W        W41744  18.350  10.358   0.780  0.0942  0.2361 -0.0106
26276W        W41745   7.820  11.481   2.405  0.0076  0.1415 -0.0515
26277W        W41746  13.022   0.020  13.766 -0.0067  0.0152 -0.2488
26278W        W41747  15.336   1.589  15.084  0.0508  0.0175 -0.1298
26279W        W41748  16.772  15.939  15.956 -0.5283  0.3335  0.1803
26280W        W41749   6.409  16.922  14.758 -0.3180  0.5364  0.0822
26281W        W41750   8.139  11.817  13.187  0.2113  0.0805 -0.1449
26282W        W41751   1.234  15.828   1.094  0.0905 -0.3677  0.2201
26283W        W41752   7.821   5.727   3.339  0.3573 -0.0541  0.1823
26284W        W41753   6.315   4.652  13.259 -0.1450 -0.2556  0.0803
26285W        W41754   9.694   8.052   4.488 -0.3382  0.1388 -0.1555
26286W        W41755  15.481   5.946   0.626 -0.0911 -0.0822  0.1825
26287W        W41756  14.909   4.583  11.307 -0.0478 -0.0182 -0.1419
26288W        W41757  17.108   1.104   2.987  0.2299 -0.0975 -0.1845
26289W        W41758   6.907   7.353   3.629 -0.0405  0.0389 -0.0371
26290W        W41759   7.917   7.442  14.150  0.3957 -0.3599  0.2785
26291W        W41760   3.902  18.264  15.939  0.1880  0.1213 -0.2056
26292W        W41761   9.140  13.514   1.907  0.0582 -0.2148 -0.0222
26293W        W41762   0.624   2.709   1.625 -0.0420  0.1177 -0.0361
26294W        W41763  14.604   7.361  13.623  0.2912 -0.0171 -0.1310
26295W        W41764   0.129   8.700  12.159  0.1648  0.2694 -0.0967
26296W        W41765   1.367  16.761  15.270  0.1193 -0.1354  0.2149
26297W        W41766  15.397  11.702  14.775  0.2307  0.2638 -0.0248
26298W        W41767   2.953  11.911  15.676  0.1270  0.0668 -0.3177
26299W        W41768  15.368   0.734  13.408  0.0002 -0.0662 -0.1379
26300W        W41769   9.708  15.168   0.688  0.1660  0.3090  0.2682
26301W        W41770   7.220   6.098   2.785  0.1775 -0.2607  0.0968
26302W        W41771  17.425  13.469  13.658 -0.1323 -0.1335 -0.2258
26303W        W41772  11.479  15.809   1.621 -0.2480 -0.4283  0.0149
26304W        W41773   6.566   9.196   0.587 -0.3896 -0.2033 -0.2687
26305W        W41774  17.955   6.592   3.700  0.3212 -0.2815 -0.3102
26306W        W41775   6.149  16.031  11.896 -0.3333  0.0753  0.3840
26307W        W41776   0.941   5.057   4.171  0.0275 -0.2213  0.1324
26308W        W41777  16.229   2.483   5.818 -0.3334  0.1223 -0.0564
26309W        W41778  16.341   5.694   2.069 -0.2923  0.0923 -0.1442
26310W        W41779   4.982   7.971  11.096 -0.0288  0.2926 -0.0920
26311W        W41780  10.151   6.907   0.371  0.1264 -0.1139  0.2137
26312W        W41781   3.154  10.909   2.366 -0.0931  0.0208  0.0121
26313W        W41782   9.053  13.803   2.762  0.3701 -0.1670 -0.1214
26314W        W41783   8.058  17.533  13.015 -0.1314  0.0860  0.0302
26315W        W41784  11.384   0.464  12.700  0.1282  0.0420  0.0014
26316W        W41785   0.356  11.313   2.674  0.0081  0.2852 -0.2370
26317W        W41786   8.950  14.904  14.205  0.1004 -0.0137 -0.1218
26318W        W41787   6.142   9.532  13.196 -0.0439 -0.1530  0.1195
26319W        W41788   3.195   2.005  15.037 -0.2420  0.1747 -0.0695
26320W        W41789   5.472  17.022   2.147 -0.0553 -0.2493  0.0495
26321W        W41790   8.607   4.209   2.731  0.1346  0.0161  0.0332
26322W        W41791   1.577  14.468  11.176  0.0034  0.0649 -0.2339
26323W        W41792   3.502  14.706  11.238 -0.3194 -0.0213 -0.2610
26324W        W41793  12.775   8.550  15.759  0.0014 -0.1591  0.1114
26325W        W41794   1.486  18.411  13.430 -0.1613 -0.1760 -0.2505
26326W        W41795   5.742  10.000  12.268  0.1553  0.4281  0.1504
26327W        W41796   3.724   5.470   6.059 -0.0029  0.1343 -0.3922
26328W        W41797  13.934  15.453   1.792 -0.1218  0.3717 -0.1652
26329W        W41798   3.624  13.046   2.799  0.1441  0.2078  0.1323
26330W        W41799  11.964   3.215  11.717  0.0517  0.0624  0.1195
26331W        W41800  18.012   3.224   3.963  0.2985 -0.3539 -0.1070
26332W        W41801   4.012   6.998   0.902 -0.1816 -0.0327 -0.2322
26333W        W41802   1.529  15.310  15.574  0.1225  0.0081 -0.1765
26334W        W41803   9.835   7.485  15.609  0.0164  0.0339  0.4418
26335W        W41804  15.754  15.440   2.355  0.3561 -0.0291  0.1783
26336W        W41805  13.625  16.536  13.112  0.1700  0.1869  0.1808
26337W        W41806   2.211   4.362   2.514 -0.2576 -0.1058 -0.3521
26338W        W41807  15.529   7.942   5.260 -0.2256  0.0057  0.1903
26339W        W41808   5.917  14.503  14.723  0.0993 -0.0734 -0.0497
26340W        W41809  11.207  10.334   1.068  0.0248  0.0343 -0.3981
26341W        W41810   0.711  12.356   2.975 -0.2017  0.1063  0.0849
26342W        W41811   9.618   6.264   0.610 -0.0763  0.3333 -0.1934
26343W        W41812   3.083  15.476  14.644 -0.1219  0.0078 -0.2401
26344W        W41813   7.741   2.665   2.624  0.1083 -0.0989  0.5568
26345W        W41814   2.198   0.450  15.562  0.2051  0.5255  0.4529
26346W        W41815   6.597   6.740   5.728 -0.3077  0.1580  0.2185
26347W        W41816   0.964   3.555   4.286  0.2331  0.0365 -0.1603
26348W        W41817  18.011   0.721   9.982  0.1690 -0.0395  0.3041
26349W        W41818   9.632  15.590   5.121  0.0186  0.1368  0.1576
26350W        W41819  17.911   4.113   3.405  0.2107  0.0743  0.0986
26351W        W41820   4.282   3.239  12.150  0.0075  0.1206 -0.2172
26352W        W41821  15.408   3.101   0.427  0.0981  0.2267 -0.0366
26353W        W41822  10.049  15.564  13.929 -0.0547  0.3045 -0.1194
26354W        W41823   9.254  14.703  13.231  0.5342  0.2067 -0.1443
26355W        W41824   0.747   9.016  12.663  0.1386  0.1795 -0.0081
26356W        W41825  15.005   6.643   3.523 -0.1419 -0.0185  0.2152
26357W        W41826   4.604   8.141  13.793 -0.1523 -0.1514 -0.1084
26358W        W41827   8.359   0.141  13.893  0.0651  0.1178  0.0107
26359W        W41828   5.182  17.967   2.486 -0.1132  0.2745  0.1001
26360W        W41829   8.800  17.143   0.972 -0.1627  0.1084 -0.2815
26361W        W41830  12.489  12.682   0.932  0.2457  0.0188  0.0876
26362W        W41831  18.183   9.678   3.032  0.1683  0.0634 -0.0004
26363W        W41832  14.239   2.694  10.930 -0.0593  0.3702 -0.1458
26364W        W41833  13.479   0.667  15.108 -0.1763  0.1561  0.1379
26365W        W41834   3.872   4.583  11.082 -0.0952  0.2811 -0.1645
26366W        W41835   2.533  14.260   5.107  0.3372 -0.0685 -0.1885
26367W        W41836   4.013  12.315   9.774 -0.0821 -0.3596  0.1398
26368W        W41837  12.499   0.307  13.958 -0.0222  0.0050 -0.0350
26369W        W41838   3.791  12.212  12.760 -0.0362 -0.0696  0.3538
26370W        W41839  12.775  14.963   2.436 -0.2231  0.0092 -0.3382
26371W        W41840   2.820   4.443   3.653 -0.0183  0.1195 -0.0003
26372W        W41841   8.682   1.880   9.927  0.1241  0.2413  0.1178
26373W        W41842   5.050  10.644   4.607 -0.1063 -0.1917 -0.1517
26374W        W41843  16.931  16.079  13.106 -0.4656  0.3176  0.0600
26375W        W41844   5.215   8.094   2.586  0.2353  0.2169  0.1587
26376W        W41845   1.777  16.746   0.902 -0.0867 -0.0317 -0.1242
26377W        W41846   9.338   1.803   0.624  0.0647 -0.0551  0.0509
26378W        W41847   1.484   0.498  15.498 -0.1197 -0.1117 -0.1867
26379W        W41848  17.978   9.411  11.514  0.1462 -0.3956 -0.0492
26380W        W41849  16.586  15.395   2.145 -0.1512  0.1156 -0.0866
26381W        W41850   1.035  11.149   1.791  0.0301 -0.0580  0.3296
26382W        W41851   9.445  10.314   1.748 -0.0801 -0.0147  0.1291
26383W        W41852   6.520  11.718   1.380 -0.1383  0.0502 -0.1333
26384W        W41853  13.925  10.644   3.101 -0.0399  0.2528  0.1099
26385W        W41854  17.606   4.498   2.278 -0.1657  0.2855 -0.3819
26386W        W41855   2.547  15.092  12.122  0.1355 -0.3455 -0.0998
26387W        W41856  17.414   9.148   3.316 -0.1718  0.4829 -0.0417
26388W        W41857   7.083   6.989   5.748 -0.1019  0.0189 -0.1354
26389W        W41858   6.840  15.368  13.017  0.2476 -0.1225 -0.0308
26390W        W41859   6.275   6.897  14.468  0.1941 -0.5286  0.0892
26391W        W41860   0.284   0.197  14.216  0.0795 -0.1630 -0.0767
26392W        W41861   6.932   3.053  10.648 -0.0353  0.1422  0.2278
26393W        W41862  15.744   6.658  15.929  0.0691 -0.0715  0.4039
26394W        W41863   9.910   1.370   1.620  0.0181  0.0276 -0.3064
26395W        W41864  10.644  16.124  11.887  0.2897  0.0068  0.3570
26396W        W41865   8.752   3.955   0.238  0.4861 -0.6060 -0.1173
26397W        W41866   6.335   7.108   5.353 -0.1267  0.1937  0.1294
26398W        W41867  16.782   6.572  14.703 -0.1432 -0.1552 -0.0046
26399W        W41868  14.226   0.922  12.093  0.0811  0.2061 -0.1339
26400W        W41869   5.134  13.579  12.987 -0.1162 -0.0792  0.1286
26401W        W41870  14.318  14.856  15.078  0.2940 -0.2242  0.0814
26402W        W41871  12.083   3.994   0.106 -0.1466 -0.1231 -0.2578
26403W        W41872  17.110   2.523  13.881 -0.2694 -0.0756  0.0225
26404W        W41873   5.539   8.710  14.131 -0.2242  0.0918 -0.1093
26405W        W41874  11.997  11.998  11.029  0.0351 -0.0934 -0.2379
26406W        W41875  18.058  13.982   0.899 -0.1036 -0.0383  0.1351
26407W        W41876   8.405   0.871  15.368 -0.1934 -0.4126 -0.0007
26408W        W41877   4.194   3.589   3.624 -0.0731  0.1008  0.0817
26409W        W41878  13.758  11.943  12.812  0.1448  0.3801  0.1810
26410W        W41879  14.458  18.070   2.512  0.0289  0.5607  0.1513
26411W        W41880   1.602  10.343   3.596 -0.1586 -0.1604 -0.3395
26412W        W41881  10.221  13.768   2.221 -0.4945  0.1982 -0.1597
26413W        W41882  13.395   3.591  11.327 -0.0103  0.2157 -0.2217
26414W        W41883   9.881   3.114   5.611 -0.0033  0.0647  0.4245
26415W        W41884   4.541   9.951   3.760 -0.0224  0.2804  0.1044
26416W        W41885  17.904   5.977  13.016  0.0722  0.1499 -0.0171
26417W        W41886  16.916   3.774  10.671  0.0771 -0.2320  0.0745
26418W        W41887   8.057  16.209  13.313 -0.1058  0.0443 -0.2121
26419W        W41888   0.384  13.317  14.773  0.1382  0.2428 -0.2500
26420W        W41889  17.009  17.556   3.980  0.1694 -0.3634 -0.1648
26421W        W41890   5.073   2.922   0.647  0.2700  0.0392 -0.2748
26422W        W41891  14.825  10.169  10.967 -0.2723  0.3201 -0.1651
26423W        W41892  15.615   1.164  10.865 -0.1099  0.2090  0.1652
26424W        W41893   0.815  13.548   3.429 -0.3721  0.0661  0.2875
26425W        W41894  15.494   2.369   2.070 -0.1920 -0.0960 -0.2550
26426W        W41895  11.295   3.684  11.231 -0.4044  0.2466 -0.0515
26427W        W41896   0.152   0.416   4.313  0.1421  0.0446  0.2195
26428W        W41897   5.208  17.546   2.717  0.0759  0.0769 -0.3001
26429W        W41898   4.720   2.476  12.359  0.0280 -0.1222 -0.0165
26430W        W41899   3.554  18.162  13.005  0.0344 -0.2044 -0.0220
26431W        W41900  14.719  12.423  14.008  0.0530  0.1566 -0.0920
26432W        W41901   4.945   8.573   0.514  0.2430  0.1834  0.0116
26433W        W41902   6.364   8.120  15.890  0.3168  0.1507  0.3612
26434W        W41903  16.974   3.847  14.673 -0.4495  0.1298  0.0787
26435W        W41904  17.392  10.208  15.210 -0.0729  0.0708 -0.2515
26436W        W41905  11.690   0.900   2.375 -0.1968  0.1923  0.3149
26437W        W41906   8.239   5.040  14.293 -0.3220 -0.0133  0.0027
26438W        W41907  17.151   0.105  15.973  0.2275 -0.1704  0.1635
26439W        W41908   6.923  18.150   5.277 -0.0519 -0.1046 -0.3254
26440W        W41909   8.567  17.130  15.008  0.2804  0.0219 -0.3265
26441W        W41910  15.927   9.769   0.083 -0.0075 -0.1900 -0.0336
26442W        W41911   4.296  13.529  14.022 -0.2025  0.0214  0.1781
26443W        W41912   6.919   2.564  15.975 -0.0287  0.0774  0.0893
26444W        W41913  10.665   8.145  12.522  0.1304 -0.3259 -0.1988
26445W        W41914   6.670  11.840   2.689 -0.2642  0.0336 -0.0387
26446W        W41915  18.041  17.230   5.528  0.2837  0.1171 -0.1199
26447W        W41916   9.759   7.638   1.054  0.0878 -0.2537 -0.3138
26448W        W41917  11.820   3.940   1.116 -0.1041 -0.2873 -0.0391
26449W        W41918   0.244  10.336  11.848 -0.2117 -0.1944 -0.2211
26450W        W41919   2.498   4.445  12.424 -0.3446 -0.1105 -0.0234
26451W        W41920  10.136  16.665   3.794 -0.1330 -0.0452 -0.2386
26452W        W41921  18.336  15.306  13.854  0.0738  0.0651  0.3784
26453W        W41922  11.047   4.018   3.539  0.0071 -0.3441 -0.3329
26454W        W41923   4.316  11.359   2.584  0.0273 -0.0126 -0.1223
26455W        W41924   0.739  15.983  15.395 -0.0708 -0.1748 -0.1283
26456W        W41925  14.015  12.277   3.297  0.0334 -0.0912  0.0809
26457W        W41926  12.248  10.715  12.030  0.0349 -0.0600  0.0108
26458W        W41927   2.386   7.941   6.031 -0.0060 -0.0210  0.4811
26459W        W41928  10.173   2.777   5.290 -0.1461  0.1215 -0.1032
26460W        W41929   1.813  16.121   2.232 -0.0735  0.0746  0.3034
26461W        W41930   7.034   9.485   1.968  0.1757  0.0324 -0.0985
26462W        W41931  11.103  16.601   4.539 -0.2453  0.4121 -0.2659
26463W        W41932   7.789  11.810  14.322  0.1739 -0.2644 -0.1418
26464W        W41933  11.652  16.587  11.404 -0.1828 -0.1470 -0.0541
26465W        W41934   4.371   9.185  13.320  0.0329 -0.1761 -0.1857
26466W        W41935  10.925   9.485   3.305  0.0464 -0.0704 -0.1862
26467W        W41936   7.953   6.561   4.771  0.1380 -0.3064  0.1504
26468W        W41937   1.215  13.704   2.575  0.0944  0.0390  0.0688
26469W        W41938  12.569  17.557  11.195 -0.0847 -0.1654 -0.0560
26470W        W41939  13.798  11.733  11.526 -0.1435  0.1091 -0.2620
26471W        W41940  15.142   0.353  15.603  0.0034 -0.2619  0.0905
26472W        W41941   9.717   7.111   0.254  0.3601 -0.0696  0.0077
26473W        W41942   4.790   4.996   3.031 -0.0145  0.0930  0.2231
26474W        W41943  11.298   8.936   4.036  0.1228  0.2213  0.0605
26475W        W41944   1.862  13.884   4.610 -0.1485 -0.1204 -0.3262
26476W        W41945   2.497   7.431   3.063  0.2323  0.2054 -0.2508
26477W        W41946   7.139  12.843  11.766 -0.2164  0.1733 -0.0280
26478W        W41947   4.881   8.739  14.814  0.1301 -0.0241  0.0492
26479W        W41948  10.094   2.042   0.950 -0.0352 -0.0335  0.0558
26480W        W41949   0.412   2.803   4.336  0.3573 -0.1008 -0.1532
26481W        W41950  17.078   8.620   2.524 -0.3536  0.1627  0.2984
26482W        W41951  10.977  12.222  12.920  0.3044 -0.1345 -0.1069
26483W        W41952   0.035  17.967   4.016 -0.0489 -0.2992  0.2360
26484W        W41953  15.658   1.293  15.414  0.5269  0.0117 -0.1067
26485W        W41954   8.479  12.600   2.014  0.3113  0.2382  0.1064
26486W        W41955   5.490  15.798  15.287  0.0478 -0.0385  0.0348
26487W        W41956   0.071  16.684  11.774 -0.0804  0.0768 -0.0912
26488W        W41957   4.153   4.537  10.548 -0.0106  0.0115  0.0976
26489W        W41958   0.954   8.200  12.012  0.0106  0.0588  0.3850
26490W        W41959  18.318   7.896  10.085 -0.2269 -0.3085  0.2880
26491W        W41960   8.022  17.483  15.759  0.0117  0.5285 -0.2654
26492W        W41961  17.055  12.156  10.792 -0.3510  0.1153 -0.1258
26493W        W41962   3.424  11.424  14.729 -0.0595  0.4031  0.0621
26494W        W41963   3.282  16.888   2.489  0.0912 -0.2439 -0.3758
26495W        W41964  13.492   1.955   2.653 -0.1026 -0.2909 -0.0890
26496W        W41965  17.726   0.659   3.672  0.0665 -0.1765 -0.0805
26497W        W41966  16.945   9.903  15.329 -0.0491  0.1199  0.0300
26498W        W41967  12.513  10.804  10.767 -0.1022 -0.1783  0.2031
26499W        W41968  11.450   6.126  13.484 -0.0616 -0.0406 -0.1346
26500W        W41969   2.158   6.114  14.500 -0.0443 -0.2706  0.0604
26501W        W41970  12.425   4.051   2.339 -0.0664 -0.1310  0.0118
26502W        W41971   8.272   1.287  14.331 -0.1094  0.1823  0.1646
26503W        W41972  16.726  17.859  12.919  0.1682  0.0059 -0.2601
26504W        W41973   5.878  15.753  11.521  0.0466 -0.0976  0.0912
26505W        W41974  18.018   4.116  13.140  0.1108  0.0311 -0.1951
26506W        W41975  11.146  11.287  15.440  0.0468  0.1640  0.0808
26507W        W41976   7.038  17.634  14.951 -0.0789 -0.0557 -0.1665
26508W        W41977  15.596   3.808  14.979  0.2081 -0.3097  0.0993
26509W        W41978  10.909   6.584  13.178  0.0220 -0.0555  0.0844
26510W        W41979  15.696  17.641  14.204  0.0107  0.0826 -0.0156
26511W        W41980   9.327   5.295  15.395 -0.0608 -0.0700 -0.0989
26512W        W41981  15.419   9.624   0.635  0.4366  0.3399 -0.2942
26513W        W41982  12.811   5.673  13.251  0.0049 -0.1635  0.0649
26514W        W41983   8.537  17.325  11.279 -0.2357  0.2402  0.1005
26515W        W41984  10.174  14.591  14.004 -0.1023 -0.1551 -0.2099
26516W        W41985   5.268   9.729  14.137  0.0383 -0.2383  0.1578
26517W        W41986   4.391  17.941   4.844  0.2773 -0.0607 -0.1586
26518W        W41987  16.226   4.012   5.246 -0.2551  0.2260  0.1505
26519W        W41988   7.537  15.095  10.619 -0.1923 -0.1221  0.0845
26520W        W41989  11.858  17.483   0.247  0.1485  0.1648 -0.5921
26521W        W41990  17.020  18.329   2.428 -0.0951 -0.1594 -0.0154
26522W        W41991  11.311   3.105  14.072 -0.3890 -0.1473  0.0501
26523W        W41992   3.566   6.511  15.169  0.1930  0.1342  0.0007
26524W        W41993  17.944  11.260  11.371  0.1548  0.2692  0.2595
26525W        W41994   1.656  11.532   4.111 -0.0931  0.3423  0.0040
26526W        W41995   9.232   5.961   0.636 -0.1556 -0.0187 -0.0389
26527W        W41996  13.749   7.087   1.545 -0.1330  0.1861 -0.1360
26528W        W41997   5.523   3.489   3.731 -0.2178 -0.1919 -0.0070
26529W        W41998   1.612  16.477   0.533  0.0206  0.2981  0.1490
26530W        W41999  13.634  15.662   3.875 -0.0053 -0.1657 -0.1956
26531W        W42000   1.004  17.277   2.372  0.0648 -0.0096 -0.2909
26532W        W42001  15.969   3.421   6.052  0.1358 -0.1200  0.4065
26533W        W42002   7.223   6.239   5.304 -0.2738 -0.1397  0.1761
26534W        W42003   0.305   0.229  13.713 -0.0836 -0.4137  0.1982
26535W        W42004  17.781   5.659   3.710  0.3598 -0.0099  0.0744
26536W        W42005  17.333   7.918  15.817  0.0643 -0.1060  0.0589
26537W        W42006   7.216  16.046   0.870 -0.1535 -0.1527  0.2333
26538W        W42007  11.022  17.474   0.783 -0.0425  0.2013 -0.2745
26539W        W42008   4.270   2.390   5.693 -0.1621  0.1911  0.0863
26540W        W42009   1.778   8.945   3.149  0.4447  0.1254  0.4304
26541W        W42010  10.860  12.845  10.838 -0.4083  0.2413  0.1766
26542W        W42011   1.006   0.151   1.481 -0.0672 -0.1726  0.1722
26543W        W42012   6.499   0.728   0.921  0.2276  0.0841  0.0889
26544W        W42013   9.067   8.846  15.885 -0.3122  0.4873 -0.0367
26545W        W42014   0.905  10.630   3.102 -0.2173  0.1258  0.1975
26546W        W42015  14.396   9.882   9.701  0.0954  0.0970 -0.0861
26547W        W42016  15.582  15.217  15.427  0.0032  0.0658  0.1217
26548W        W42017   6.109   7.452  14.401  0.4284  0.0565 -0.2778
26549W        W42018  16.094  14.263  15.644  0.1411 -0.2887  0.3207
26550W        W42019  12.285  17.357  15.128  0.3426  0.1561 -0.0563
26551W        W42020   8.779   9.892  12.928 -0.3124 -0.1555  0.0587
26552W        W42021   6.477   6.372   0.520  0.1957 -0.2224 -0.3222
26553W        W42022  10.074  12.888   2.946  0.2431  0.2176  0.1729
26554W        W42023  15.716  10.393  12.873 -0.3646  0.1811  0.1590
26555W        W42024   0.568   0.544   6.338 -0.1042  0.0341 -0.0584
26556W        W42025  15.286  12.929  11.171 -0.3982  0.0777 -0.2146
26557W        W42026   8.839   5.500   4.263 -0.0652  0.1200  0.0733
26558W        W42027  15.946  13.447   3.268  0.0510  0.0815  0.0311
26559W        W42028   7.741   6.569   2.136  0.0316 -0.0024  0.1072
26560W        W42029   2.024  17.831   5.829 -0.2983 -0.2468 -0.1482
26561W        W42030  10.742   1.344   4.444  0.0578  0.0107 -0.2341
26562W        W42031   2.102  11.975  10.781  0.1563  0.0672  0.4183
26563W        W42032   9.863   5.406   2.654  0.1331 -0.0733 -0.0890
26564W        W42033   4.128   7.234  11.484 -0.1290 -0.0030 -0.0588
26565W        W42034   7.375   7.888   1.270 -0.0490 -0.1262  0.3300
26566W        W42035   4.442   0.586   3.014 -0.1472 -0.0871  0.4810
26567W        W42036   2.108   1.542  13.933  0.2313  0.3509 -0.0332
26568W        W42037   4.986   3.585   5.715 -0.0989  0.0441 -0.2130
26569W        W42038  16.277   1.873   4.668 -0.3035 -0.0742  0.2110
26570W        W42039   6.433  14.333  13.345 -0.3173 -0.1428  0.0192
26571W        W42040   8.743  16.488  10.819  0.1054  0.0202 -0.0899
26572W        W42041   0.202   5.661  11.966  0.1357  0.0745  0.0858
26573W        W42042  15.184   5.610   0.402 -0.0223  0.0025 -0.1466
26574W        W42043  14.012  17.322   2.851 -0.4560 -0.0111 -0.0230
26575W        W42044   2.580   1.728   4.236 -0.0122  0.0129 -0.2278
26576W        W42045   4.174  12.084  14.309 -0.2314  0.1925  0.1511
26577W        W42046  14.013  10.133   5.217 -0.1181  0.0929  0.0117
26578W        W42047  16.576  13.255   5.928 -0.1039  0.0942 -0.0476
26579W        W42048  12.943  18.063  15.999  0.1501  0.1569  0.1900
26580W        W42049   8.715  17.142   0.004 -0.2148  0.0391  0.1879
26581W        W42050   7.943   0.842  15.614 -0.1506 -0.1467 -0.1935
26582W        W42051  17.263   5.296  14.327  0.3370 -0.0735 -0.1794
26583W        W42052  16.660  18.243  12.613  0.1630 -0.2675 -0.0807
26584W        W42053  16.198   1.137  14.797  0.1375  0.3185 -0.0587
26585W        W42054  15.977   6.409   3.366 -0.3797  0.0413 -0.0841
26586W        W42055  14.844   5.815   0.072  0.0585  0.0168  0.0872
26587W        W42056   8.517  14.072   3.450 -0.1247  0.1244 -0.1757
26588W        W42057  12.306  15.144  10.043  0.1405  0.2140 -0.0816
26589W        W42058   1.059  11.965  10.736  0.0491 -0.0703 -0.2873
26590W        W42059  13.972   1.340  12.298  0.0404  0.2431 -0.5252
26591W        W42060   7.655  15.072  14.403  0.1225  0.0460 -0.3209
26592W        W42061   0.436  15.161   1.900 -0.0150 -0.2005  0.1271
26593W        W42062   3.967   9.952   5.589  0.1534  0.0664  0.2068
26594W        W42063   8.042   4.393   3.787  0.1193  0.1082  0.2008
26595W        W42064  17.079  15.090   2.223  0.1113 -0.1471 -0.0177
26596W        W42065  16.992  16.600  13.823  0.0877 -0.1733  0.1878
26597W        W42066  15.206   7.408   1.483 -0.0933  0.0032 -0.0796
26598W        W42067  12.370   4.831  15.532 -0.0046  0.1457 -0.0177
26599W        W42068  12.679  17.611   5.415  0.0292 -0.1875 -0.1870
26600W        W42069  11.553   9.247   1.198  0.2237 -0.0370 -0.0925
26601W        W42070  18.459  13.828   1.920  0.2783  0.1433  0.0344
26602W        W42071   6.387  17.199  11.096  0.0426 -0.3728  0.2313
26603W        W42072   3.962   9.531   2.935  0.2133  0.0993  0.0660
26604W        W42073   5.959  10.804  12.809 -0.2470  0.0433  0.3636
26605W        W42074  13.014   2.368   5.642  0.3880  0.1741 -0.2932
26606W        W42075  16.711  13.876   0.897  0.3427  0.0498 -0.2978
26607W        W42076   3.273   9.010  11.444  0.0402 -0.0728  0.2569
26608W        W42077   5.660  15.457   0.101 -0.2029 -0.1901 -0.2563
26609W        W42078  12.594   6.167   3.265  0.2690 -0.0896 -0.2876
26610W        W42079  12.882   3.667  11.343  0.0032 -0.0491  0.2163
26611W        W42080   1.387   3.274  11.971 -0.0493  0.0602  0.0760
26612W        W42081   4.606  12.384  14.390  0.2738 -0.3728  0.2938
26613W        W42082   6.294   7.301  15.743  0.1638  0.1458  0.0352
26614W        W42083  11.722  14.415  12.894 -0.0541  0.2082  0.0162
26615W        W42084   0.440  10.510   0.869 -0.5338  0.2290  0.1757
26616W        W42085   5.388  11.993  11.357  0.1130  0.0396  0.0921
26617W        W42086   9.534  11.983   3.964 -0.0040 -0.0312 -0.0735
26618W        W42087  17.040   3.096   1.818  0.4407  0.0433 -0.0548
26619W        W42088  16.229   2.893  11.341  0.2921 -0.1007  0.3550
26620W        W42089  14.637   7.695   2.318 -0.0148 -0.2834 -0.0392
26621W        W42090  13.208  12.225   1.964 -0.1968  0.2471 -0.3532
26622W        W42091   6.386   9.324  10.221 -0.1437 -0.1787  0.1683
26623W        W42092   9.060  13.297  13.743 -0.0930  0.0536  0.2502
26624W        W42093  13.871  15.198   0.239  0.0208  0.0587 -0.0785
26625W        W42094   9.241   9.758   0.888 -0.0600  0.0597  0.0757
26626W        W42095  14.574  13.334  15.982 -0.1038  0.2253 -0.0648
26627W        W42096   9.001   3.437   1.392 -0.0050  0.0804  0.0227
26628W        W42097   7.943  14.717   4.166  0.0295  0.1938 -0.1658
26629W        W42098   4.165  14.171   1.917  0.3254  0.3360  0.0415
26630W        W42099   5.582  13.972   1.031  0.0200  0.2469  0.3474
26631W        W42100   9.674  15.192  15.178 -0.1287 -0.1805  0.1419
26632W        W42101   2.301  16.131   4.143  0.2744 -0.2604 -0.2266
26633W        W42102  15.312   9.795   2.021  0.1189  0.1311  0.3233
26634W        W42103  11.144  18.088   3.905  0.2379  0.0243  0.1249
26635W        W42104   7.814  10.189  11.811 -0.1463 -0.0231 -0.2036
26636W        W42105   9.393   4.416  13.068  0.2651  0.0187  0.4490
26637W        W42106  18.325   5.281   1.244 -0.0863  0.0968 -0.1410
26638W        W42107   1.169  16.819   2.450 -0.0353 -0.3073  0.0259
26639W        W42108  16.740   2.478   5.826  0.1467 -0.0140 -0.0531
26640W        W42109  10.726  14.399   4.305  0.0584 -0.2415 -0.0529
26641W        W42110   4.174  10.208   3.010 -0.2244  0.2061  0.0827
26642W        W42111   4.109  10.806   5.279  0.0104 -0.0544 -0.0347
26643W        W42112  15.712   4.216  13.206  0.1805 -0.0707 -0.2700
26644W        W42113   3.716  13.935   0.158  0.3250  0.0794 -0.0354
26645W        W42114  11.602   7.028   2.824  0.1114 -0.0022  0.0998
26646W        W42115   8.478   1.989  13.757  0.1275 -0.1068 -0.1390
26647W        W42116  13.557   1.511   4.717  0.0492  0.0941  0.0292
26648W        W42117  15.181  16.211   2.700 -0.0944 -0.0209 -0.0239
26649W        W42118   9.629  16.701   3.704 -0.0266 -0.2703 -0.2150
26650W        W42119   4.119  13.207   2.841  0.1326 -0.0738  0.0629
26651W        W42120   0.337   3.282   2.229  0.3781  0.5109  0.0185
26652W        W42121   8.962  12.056   1.747 -0.0151  0.0831 -0.0631
26653W        W42122   9.366   8.363   4.684 -0.3320 -0.1481 -0.0845
26654W        W42123   7.989   4.303   0.456  0.4343 -0.1276  0.1150
26655W        W42124  15.876  10.334  11.926  0.0070 -0.2061  0.1779
26656W        W42125   7.050  14.084   4.056  0.1514 -0.0358  0.0649
26657W        W42126   5.845  16.614   3.881 -0.0014  0.1889 -0.0610
26658W        W42127   0.054  16.475  14.759  0.1470 -0.0819  0.1196
26659W        W42128   9.848  12.841   2.477 -0.0807  0.1253 -0.1257
26660W        W42129   1.296  15.132  12.759 -0.0097 -0.0461 -0.0209
26661W        W42130  17.600  14.602  15.095 -0.1055 -0.1997 -0.1075
26662W        W42131  11.579   2.279  13.986  0.1378  0.1940 -0.0557
26663W        W42132  15.770   9.989  12.481  0.4347  0.0611  0.3539
26664W        W42133  15.977   4.096  13.899 -0.0261  0.3500 -0.1080
26665W        W42134   5.815   0.323   2.289 -0.1304 -0.2728  0.2607
26666W        W42135   7.458   0.496  10.185 -0.1119  0.1450  0.2319
26667W        W42136  12.828   0.332  13.108  0.0700 -0.3072 -0.2737
26668W        W42137  14.499   3.041   2.512  0.2969 -0.0385 -0.0340
26669W        W42138   6.664   7.438   4.976 -0.0126 -0.2153  0.1566
26670W        W42139  13.696   2.543   2.197  0.0864  0.1267 -0.3425
26671W        W42140  15.640   6.489   0.568 -0.0034  0.0665 -0.1597
26672W        W42141  16.705  14.943   2.755  0.0645  0.0591  0.3348
26673W        W42142  12.392   2.141  14.495 -0.0388  0.1749 -0.0194
26674W        W42143  18.367  14.416  12.826 -0.0362  0.1702  0.0857
26675W        W42144   4.559  11.947  13.924 -0.6159  0.0655  0.0445
26676W        W42145   7.905   9.763  15.000 -0.0609 -0.2879 -0.1513
26677W        W42146   3.227   8.046  12.262 -0.0893  0.0034  0.1702
26678W        W42147   1.455   4.693  15.156 -0.1678  0.0247 -0.0759
26679W        W42148  13.264  12.468   0.221  0.0210  0.0904 -0.1956
26680W        W42149   9.633   3.687   0.507 -0.1990 -0.1270  0.0856
26681W        W42150   4.992   0.963  12.386  0.2072  0.4194 -0.1078
26682W        W42151  17.746  10.430  11.451 -0.1822 -0.0494 -0.0088
26683W        W42152  12.216   0.719  11.550 -0.0358  0.2896  0.1372
26684W        W42153  17.874  10.072  12.455 -0.0739  0.0763 -0.1915
26685W        W42154  12.717  15.773  11.989 -0.0715 -0.1223  0.2596
26686W        W42155   1.653   8.881   1.155  0.2227  0.1312 -0.0316
26687W        W42156   9.663   4.340   1.257 -0.3039 -0.1279 -0.0567
26688W        W42157   3.108   2.861   6.031  0.1589 -0.1940  0.0176
26689W        W42158   5.368   3.740   1.603  0.2302  0.0255  0.0026
26690W        W42159   7.449  13.633   3.268 -0.0482 -0.3329 -0.1116
26691W        W42160  11.330  16.975   1.550  0.2077  0.0512 -0.1699
26692W        W42161   9.609  14.751  14.820  0.1819  0.1551 -0.2823
26693W        W42162  10.231  10.153  12.807 -0.0419  0.1242 -0.1031
26694W        W42163   0.919  12.160  11.574 -0.1236  0.1738  0.1128
26695W        W42164  13.565   5.244   4.522 -0.3579 -0.1677 -0.0927
26696W        W42165  13.304   3.115   3.950 -0.3233 -0.1865 -0.1592
26697W        W42166   9.688  16.377   1.377  0.3629  0.0667 -0.0785
26698W        W42167   0.657   1.051  10.177 -0.0956 -0.1406 -0.1884
26699W        W42168   2.087   1.305   0.450 -0.1145  0.1115 -0.0028
26700W        W42169   5.490  14.967  13.436  0.3380  0.1767  0.0413
26701W        W42170   0.541   3.654   2.654 -0.0696 -0.1616 -0.1073
26702W        W42171  11.446   7.106  15.974  0.3863  0.2546  0.0283
26703W        W42172   5.231   5.349   3.122 -0.0683  0.1730  0.4367
26704W        W42173  10.307   8.522  12.677 -0.1390 -0.0612 -0.0459
26705W        W42174  15.437   9.011  11.259 -0.1420  0.3023 -0.0160
26706W        W42175  14.587   1.985  13.489 -0.0085 -0.1959 -0.1445
26707W        W42176  12.476   3.654  13.374  0.0571  0.0081 -0.1211
26708W        W42177   8.702  13.744   1.969  0.0450 -0.2830 -0.0203
26709W        W42178   0.124   6.356   0.953 -0.0710  0.0437 -0.5260
26710W        W42179  18.089   4.668   3.717  0.1019 -0.2212  0.0726
26711W        W42180  14.635   3.619   3.093 -0.0315 -0.0596 -0.0022
26712W        W42181  14.512  16.952  13.669  0.0588  0.0330  0.4508
26713W        W42182  15.820  17.974  13.888  0.4584  0.0640  0.2081
26714W        W42183   8.873   1.114   2.529 -0.0265  0.3000  0.1455
26715W        W42184  13.373  12.043  14.111 -0.2685  0.2137 -0.1178
26716W        W42185  18.146  16.131  13.604 -0.2273 -0.2088 -0.0802
26717W        W42186  15.841  11.397  14.853 -0.0607  0.0775 -0.0398
26718W        W42187  15.822  14.633   0.647 -0.3816  0.0819 -0.0091
26719W        W42188  10.648   8.645  15.715 -0.0068  0.1164  0.3555
26720W        W42189  16.697  14.343  15.006 -0.0694 -0.1623  0.0136
26721W        W42190   3.363   4.775  14.091  0.1740 -0.2242 -0.4262
26722W        W42191  13.059   1.392  12.136 -0.3026  0.2237 -0.0370
26723W        W42192   4.441  10.106   4.296  0.0023 -0.0346 -0.2191
26724W        W42193   9.715  11.569   1.613 -0.1289 -0.2140 -0.1005
26725W        W42194   3.283   7.271   3.374 -0.2233  0.2482 -0.0621
26726W        W42195  16.012  10.813  10.303  0.0062  0.1260  0.2174
26727W        W42196  12.211  11.868   1.251  0.0870 -0.3442  0.0700
26728W        W42197   2.925  17.210   0.714  0.2604 -0.1120  0.0587
26729W        W42198  18.309  18.148   2.675 -0.0626 -0.1666 -0.0426
26730W        W42199  17.251   7.395   5.498 -0.0227 -0.0522  0.0493
26731W        W42200   5.733   8.000  12.242  0.0146  0.2495  0.2677
26732W        W42201   9.751   0.037   4.046  0.1264 -0.0450 -0.1385
26733W        W42202  16.549   3.742  14.495  0.1925  0.2096 -0.2113
26734W        W42203  12.074  14.609   5.336 -0.0423 -0.1317  0.3260
26735W        W42204  15.488  11.989   0.016  0.0275 -0.4136 -0.2936
26736W        W42205  12.791   7.222   1.355  0.0557  0.1039  0.0740
26737W        W42206   4.704  16.078  13.199 -0.0263  0.1981 -0.1314
26738W        W42207  18.378  14.452   1.460 -0.0846 -0.0397 -0.4364
26739W        W42208  12.827  18.313   0.382  0.0861  0.1798  0.2980
26740W        W42209   1.322   3.569   5.465 -0.0328  0.1301 -0.0379
26741W        W42210  14.445   5.472  15.332  0.0123 -0.0669  0.0684
26742W        W42211   9.370  16.716  14.772  0.0094  0.3032 -0.1966
26743W        W42212  16.091   6.559   4.655 -0.0173  0.0317  0.1651
26744W        W42213  15.947  11.301   5.570  0.2897 -0.0401 -0.1248
26745W        W42214  17.811  11.216   0.650 -0.1190  0.0158 -0.0436
26746W        W42215   1.823   6.884  13.933  0.0073  0.2340 -0.4014
26747W        W42216  11.786  11.903   2.769 -0.0279 -0.1278  0.0924
26748W        W42217  11.730  12.384   3.852 -0.0211 -0.0018 -0.1971
26749W        W42218  10.431  11.742  10.816  0.0297 -0.2180 -0.0379
26750W        W42219   1.447  13.984  11.729  0.0656  0.3207 -0.0837
26751W        W42220  12.374   8.164  13.472  0.0595  0.0495  0.2274
26752W        W42221  16.795   2.695  11.884 -0.0600  0.3131  0.0022
26753W        W42222  15.777   4.394  14.455 -0.0251  0.1772 -0.1846
26754W        W42223   8.788  17.765   3.754 -0.2335 -0.0391 -0.2731
26755W        W42224  12.850  12.673  14.369 -0.3001  0.1104  0.1325
26756W        W42225  13.945  17.214   5.371 -0.0326 -0.1818  0.2330
26757W        W42226  17.968  11.683   2.254 -0.2426 -0.0703  0.3339
26758W        W42227  12.120   5.812   1.862  0.0624 -0.2973  0.0761
26759W        W42228  13.067  13.528  11.831 -0.3688 -0.0888  0.0923
26760W        W42229  10.809   3.198   2.214  0.2711  0.1896  0.0978
26761W        W42230   2.149   4.531   4.877  0.1260  0.2164  0.1847
26762W        W42231  15.095   0.778  15.851  0.1251 -0.0323  0.1761
26763W        W42232   2.909  12.873   1.154 -0.1865  0.1214 -0.1938
26764W        W42233   9.678   1.637   4.611 -0.0271  0.0437 -0.2563
26765W        W42234  16.359  10.412   5.252  0.1170  0.3159  0.2993
26766W        W42235  14.702  12.727   0.725  0.1602  0.1354 -0.0439
26767W        W42236   9.955   8.593   0.879 -0.0915  0.2366 -0.2364
26768W        W42237   1.039   0.286  15.295 -0.1385 -0.2597  0.0347
26769W        W42238  11.219  17.236  13.196 -0.2574 -0.3072  0.1173
26770W        W42239   3.793   9.561   4.727 -0.0759 -0.0785 -0.1003
26771W        W42240   4.591  10.558  15.592  0.1895 -0.3017  0.2977
26772W        W42241   3.772  16.869   0.387  0.1504  0.0472 -0.0631
26773W        W42242   2.769   8.754  15.063  0.1527 -0.0813 -0.2742
26774W        W42243  16.052   0.522   1.767  0.0492 -0.2418 -0.0035
26775W        W42244   1.994   8.680   5.347 -0.0908 -0.0315  0.2218
26776W        W42245   7.638   1.912  11.871  0.0984  0.1289 -0.1157
26777W        W42246   7.618   6.179  14.511 -0.2236 -0.2828 -0.2308
26778W        W42247  10.640   1.809   1.790  0.4338  0.0336 -0.1681
26779W        W42248   9.485   1.461   1.860 -0.1132  0.2111 -0.0867
26780W        W42249   4.259  12.071   3.734 -0.2913 -0.0409 -0.1015
26781W        W42250   8.480   3.695   9.974 -0.0382 -0.0063 -0.1242
26782W        W42251   6.341   8.571  13.311  0.0509  0.1523 -0.2816
26783W        W42252   9.210   1.431  15.714  0.0984  0.3742 -0.0294
26784W        W42253  14.415  14.585  11.911 -0.0569  0.1807 -0.2300
26785W        W42254   2.656  15.459   3.046  0.1538 -0.1128  0.0537
26786W        W42255  18.344   6.888  12.744  0.3898 -0.0463  0.0241
26787W        W42256   9.219  16.401  15.176 -0.1576 -0.0371  0.3211
26788W        W42257   0.909   1.367  14.970  0.1151 -0.0454  0.1754
26789W        W42258   1.548   5.776  12.867 -0.1169  0.0283 -0.1042
26790W        W42259  14.292  17.065   2.308 -0.2950 -0.0156 -0.0481
26791W        W42260   2.955   4.919  13.663  0.0680  0.0115  0.0637
26792W        W42261   3.955  14.336   2.828  0.1048  0.0745 -0.0124
26793W        W42262   1.360   4.964  11.713 -0.2375 -0.1984 -0.0547
26794W        W42263   7.566   4.480  13.771  0.1634  0.1600  0.0703
26795W        W42264   3.521  16.275   3.360  0.0484 -0.0069 -0.2442
26796W        W42265   9.168  14.864   2.288 -0.0405 -0.3496 -0.1144
26797W        W42266  17.345   5.893  11.841 -0.3474  0.2860 -0.1295
26798W        W42267  14.794  15.893   1.032 -0.3325  0.2624 -0.1049
26799W        W42268   9.050  13.270   3.973 -0.3096  0.2229  0.1770
26800W        W42269   9.007   6.725   5.609  0.2286  0.3794  0.0118
26801W        W42270  13.059  15.376   4.781 -0.0463 -0.1392 -0.1016
26802W        W42271  11.733  17.174  11.652 -0.1023  0.1800  0.0070
26803W        W42272  11.650   1.066  11.615 -0.0954 -0.0439  0.2775
26804W        W42273   0.295  18.085  15.835  0.0313 -0.0785 -0.1446
26805W        W42274   2.011   6.418   2.013  0.1415 -0.2517 -0.2333
26806W        W42275   4.831   3.117  15.085  0.2614  0.2585 -0.0437
26807W        W42276   0.049  14.586   0.968 -0.2704  0.1621 -0.0339
26808W        W42277  13.173   6.290   5.617  0.0953 -0.2504  0.2597
26809W        W42278   3.935   3.206  13.563 -0.2792  0.0608 -0.1473
26810W        W42279  12.490  15.049   2.848  0.0528 -0.3317  0.1831
26811W        W42280   9.155  14.940   2.861 -0.1762  0.1729 -0.2261
26812W        W42281   7.044   2.204  11.118 -0.2009  0.0821 -0.0792
26813W        W42282  11.058  11.370   1.735 -0.0197  0.0403  0.0833
26814W        W42283   0.211  13.131  14.187  0.1487 -0.1606 -0.2522
26815W        W42284   7.293  11.581   1.897 -0.0192 -0.0811 -0.2084
26816W        W42285   9.009   6.138   1.543 -0.2413 -0.0120 -0.1511
26817W        W42286   8.920   0.513  12.170  0.1309 -0.0145 -0.0310
26818W        W42287  16.422  13.622   1.424  0.0702  0.0617 -0.0419
26819W        W42288  12.883   6.560   0.227  0.1933 -0.0941  0.0585
26820W        W42289  18.206   1.752  12.265  0.0907 -0.4826 -0.0357
26821W        W42290   8.496   6.825   3.794 -0.0162  0.2229  0.2148
26822W        W42291   1.738  16.334   3.372 -0.4642 -0.0566  0.0032
26823W        W42292  11.917   0.173  15.511  0.0331  0.0399  0.2777
26824W        W42293   3.893  11.103   2.655 -0.0297 -0.1097  0.2438
26825W        W42294   0.956  13.249   3.848 -0.0010  0.2056 -0.1912
26826W        W42295  14.570   5.548  11.774 -0.3047  0.0840  0.1512
26827W        W42296   8.418   5.046   0.720 -0.0663  0.0449 -0.3352
26828W        W42297   8.079   3.734  13.608 -0.0649  0.1203  0.2395
26829W        W42298   7.470   2.925  14.469 -0.3490  0.0432  0.2121
26830W        W42299   6.178  12.947  13.777 -0.1447 -0.3777 -0.2968
26831W        W42300  15.839   4.984  15.113  0.0125 -0.0352  0.0264
26832W        W42301   4.066   7.940   1.620 -0.1707  0.1690  0.1650
26833W        W42302   2.449   8.474  13.924  0.0182 -0.2858 -0.2620
26834W        W42303   6.982   3.671  11.673  0.3433  0.0100  0.2887
26835W        W42304   0.759   0.027   3.782  0.1061  0.3170  0.1997
26836W        W42305  13.078  10.124   5.363 -0.1520  0.1192 -0.1537
26837W        W42306  16.577  12.582   2.275 -0.0557 -0.2408 -0.0766
26838W        W42307   5.221  11.106   3.264 -0.2470 -0.0119  0.0553
26839W        W42308  15.749   5.529  15.075  0.2553 -0.3137  0.2623
26840W        W42309  15.885   8.304  14.592 -0.1032  0.0802  0.1115
26841W        W42310   0.017   0.768   3.979 -0.1889 -0.2859  0.1321
26842W        W42311   8.015   8.295  12.672  0.3942  0.0196 -0.0859
26843W        W42312  11.153  14.725   4.849 -0.6176  0.1723  0.2742
26844W        W42313  11.423   9.591  11.821  0.0521  0.1326  0.1325
26845W        W42314  11.630   2.568   2.580  0.1011  0.2755 -0.1089
26846W        W42315   2.807   1.996   5.386 -0.1553  0.1543 -0.0126
26847W        W42316   9.376   8.340  15.145 -0.0795  0.1642 -0.2779
26848W        W42317  16.315   9.193   1.239  0.1499  0.0809 -0.0581
26849W        W42318   2.522  12.114  13.050  0.0252 -0.2309  0.4462
26850W        W42319  11.541  15.292   2.239  0.1344  0.0156  0.0319
26851W        W42320  15.064  14.612   3.154  0.3054 -0.0467 -0.2437
26852W        W42321   2.743  14.166   0.520 -0.0915 -0.1211  0.0936
26853W        W42322   7.818   9.762  11.114 -0.2982  0.0841  0.1566
26854W        W42323   7.504  13.115   4.985 -0.2980 -0.0080  0.0412
26855W        W42324  11.348  18.003   3.406 -0.0104  0.0122 -0.0511
26856W        W42325   5.185   9.512   1.936 -0.0070 -0.1852 -0.2863
26857W        W42326  17.158  14.473   2.011  0.0003  0.1233  0.0681
26858W        W42327   4.435   9.212   4.363  0.3427  0.0436 -0.3356
26859W        W42328   5.953  10.363   4.732  0.1636 -0.1549 -0.0468
26860W        W42329   6.855   8.428  14.529 -0.0578  0.0131 -0.0732
26861W        W42330   9.295   6.660  13.144 -0.3516 -0.0882  0.0377
26862W        W42331  13.987   8.857   3.362 -0.0328 -0.2286  0.1009
26863W        W42332   2.241  12.454  14.534 -0.0652  0.1814  0.1644
26864W        W42333  15.997   3.127  15.349 -0.3527  0.1037 -0.2067
26865W        W42334  18.065   0.737   0.225  0.2071 -0.0082 -0.2336
26866W        W42335  14.547  18.090  10.818  0.1648 -0.2140  0.1432
26867W        W42336  17.239   6.924   1.083 -0.0139  0.1248  0.0672
26868W        W42337  15.460   0.589   1.226 -0.2150 -0.0622  0.1616
26869W        W42338   1.094   6.395   1.831 -0.1830 -0.0288 -0.0968
26870W        W42339   9.555  15.117   3.159 -0.0314  0.0747 -0.0758
26871W        W42340  13.166   2.497  15.085  0.1861 -0.2925 -0.2924
26872W        W42341   5.600   4.986  14.720  0.0988  0.2919  0.1153
26873W        W42342  16.902   5.207   4.277 -0.0644 -0.0886 -0.1125
26874W        W42343  18.215   0.823   1.497 -0.2305 -0.1657  0.2687
26875W        W42344  10.561  14.816   3.031  0.0356 -0.0197 -0.1311
26876W        W42345  17.459  11.906  12.695  0.3689  0.3117  0.1304
26877W        W42346  17.441   6.295   0.420  0.1213  0.0165  0.1685
26878W        W42347   2.856   8.141  10.057 -0.0029  0.2366  0.1852
26879W        W42348  15.439   6.984   2.385 -0.2954  0.0622  0.0567
26880W        W42349   4.267  11.326   5.063  0.5006 -0.0549  0.0338
26881W        W42350   0.187   1.840   1.689  0.0871  0.2825  0.2997
26882W        W42351  14.233   7.525   4.284 -0.1492  0.2082  0.0137
26883W        W42352  13.266  11.849   4.261  0.1271  0.1696 -0.4505
26884W        W42353   4.167  11.690  12.613 -0.1353 -0.2698 -0.0455
26885W        W42354   4.360  10.022  12.091  0.0563 -0.0718 -0.3820
26886W        W42355   9.383  15.599   0.742 -0.1581  0.0892  0.3286
26887W        W42356  18.380  13.468   1.501  0.0371 -0.2514  0.0181
26888W        W42357  15.137   8.408   1.448 -0.4370  0.1579  0.1186
26889W        W42358  15.166   2.769   2.170  0.0205  0.0968 -0.0254
26890W        W42359  12.951  17.629   1.004  0.2893  0.2687 -0.4058
26891W        W42360  16.419  14.430  12.220 -0.0347 -0.0930  0.2965
26892W        W42361   4.950  17.487  14.709  0.1974 -0.0036 -0.4387
26893W        W42362  13.096  10.736   1.863  0.3426 -0.1645 -0.1322
26894W        W42363   8.057   5.058  12.700 -0.0986  0.0197 -0.0216
26895W        W42364  15.047  18.376   4.513  0.1020  0.0296  0.0670
26896W        W42365   9.254   3.772  14.259 -0.2310 -0.3243 -0.0738
26897W        W42366  16.297   9.221  14.218 -0.2880  0.0139  0.2086
26898W        W42367   6.422   0.773   2.465 -0.2247  0.1562 -0.0643
26899W        W42368  13.148   3.378  13.855  0.1645  0.0709  0.1654
26900W        W42369   0.862  14.312  15.929  0.1340  0.0699  0.2836
26901W        W42370  13.708  16.759  13.988  0.1841 -0.0199 -0.2324
26902W        W42371   4.200   2.974  13.169  0.0178  0.1137  0.0582
26903W        W42372   4.789  13.633   2.625 -0.2241 -0.0741 -0.0909
26904W        W42373   9.951   3.276   3.395 -0.0043 -0.0995  0.3244
26905W        W42374  16.836   1.307   3.357  0.0319 -0.5601 -0.2037
26906W        W42375  17.609  12.833   2.042 -0.0571 -0.1214  0.1605
26907W        W42376  13.081   5.676   4.029  0.3498 -0.0006 -0.2629
26908W        W42377  17.740   3.449  14.227 -0.0567  0.0931  0.0066
26909W        W42378  15.511  18.150   6.027  0.5808  0.2864 -0.0533
26910W        W42379   2.315  14.036  12.939 -0.0172  0.1604 -0.0658
26911W        W42380  16.453   9.677  16.018 -0.1327  0.0253  0.0300
26912W        W42381   3.642  18.228  15.489  0.0799 -0.1959  0.0702
26913W        W42382  16.010   1.483   4.587  0.1800 -0.0259  0.0382
26914W        W42383   7.942  15.919  10.253 -0.1076  0.0177  0.0827
26915W        W42384   3.730   1.384  13.399 -0.0628 -0.2724  0.1573
26916W        W42385  17.897   9.676  12.194  0.1710  0.2153 -0.1245
26917W        W42386   0.873  17.287   1.806 -0.0595 -0.3992  0.0442
26918W        W42387   9.414  13.235  11.272  0.2422 -0.0418  0.0753
26919W        W42388   4.981  11.154  14.336 -0.0953  0.1055  0.1105
26920W        W42389   9.551  16.969  10.474 -0.1358  0.1733 -0.1454
26921W        W42390  15.639  10.354  13.722  0.1287  0.0898 -0.1798
26922W        W42391   6.388   4.346  14.285  0.0209  0.2704 -0.0565
26923W        W42392  10.868   0.206   5.040 -0.2208 -0.1799 -0.0807
26924W        W42393  18.174  13.509  13.330  0.2568 -0.2020  0.0190
26925W        W42394   6.128   2.350   3.005 -0.0011 -0.0152 -0.2361
26926W        W42395  12.767   2.820   1.248 -0.1615 -0.3347  0.0326
26927W        W42396   5.171  16.269  13.111  0.1798 -0.3528 -0.4662
26928W        W42397  15.894   7.027   1.411  0.3032 -0.2730  0.0238
26929W        W42398   3.522  13.217   4.258  0.1066  0.0794 -0.2098
26930W        W42399   7.970   6.633  14.462  0.2838 -0.1674  0.1432
26931W        W42400   3.036  14.464  15.606 -0.2105  0.1026 -0.2448
26932W        W42401  10.671  13.804   4.068 -0.0579  0.2777 -0.1681
26933W        W42402   3.269   3.247   0.565 -0.0672  0.3185 -0.0213
26934W        W42403   2.997   2.431  15.343 -0.3319  0.0985 -0.0155
26935W        W42404  11.017   3.225  15.996 -0.0046 -0.1582  0.1267
26936W        W42405   9.883  13.353   0.507 -0.0621  0.3194  0.1742
26937W        W42406   5.003  15.706  15.046 -0.1211  0.2111  0.5331
26938W        W42407   6.689  10.594   0.632  0.2616  0.0010 -0.1877
26939W        W42408   3.241   6.781  15.463  0.0281  0.1552 -0.2319
26940W        W42409  12.402  14.168  12.416  0.0758 -0.0774 -0.2800
26941W        W42410   9.987  12.212  14.507 -0.1027 -0.0011  0.0980
26942W        W42411  10.443   2.885  13.465 -0.0310  0.2098 -0.3078
26943W        W42412  12.537  18.443  12.648  0.2388 -0.0751 -0.3035
26944W        W42413  12.567   1.735   5.142  0.2817 -0.2090  0.1674
26945W        W42414  10.939   6.798  15.678  0.1978 -0.0784 -0.0613
26946W        W42415   4.627  18.260  14.265  0.0025  0.1012  0.0242
26947W        W42416  17.694   4.316   1.729  0.0814  0.1833 -0.1203
26948W        W42417   7.631   3.049   1.403  0.3077 -0.0167 -0.1141
26949W        W42418   1.490   8.307   4.214 -0.0201 -0.0752  0.3752
26950W        W42419  17.402  15.389   1.905 -0.0048 -0.1633 -0.0305
26951W        W42420  10.789  10.627  11.342 -0.0708  0.0306  0.0637
26952W        W42421   2.853   7.689   0.839  0.0644 -0.1734 -0.2104
26953W        W42422  13.189   4.223   2.955  0.0808 -0.4399  0.2246
26954W        W42423   2.752  15.705   4.881 -0.0531  0.0041  0.1949
26955W        W42424   9.271   6.170  15.543 -0.1356  0.2149  0.0324
26956W        W42425   1.762  13.478  14.956  0.2990  0.1269 -0.1004
26957W        W42426  15.319   0.797  12.878 -0.3231  0.1617 -0.1752
26958W        W42427  13.933  10.469   3.937 -0.2853  0.0453  0.4181
26959W        W42428   5.957   4.690   3.321  0.2571 -0.0815  0.0021
26960W        W42429  10.407  17.328  12.633 -0.1435  0.0498  0.3309
26961W        W42430   0.515   1.949   2.387 -0.1870 -0.1472  0.3060
26962W        W42431  13.335  12.483  14.403 -0.1597 -0.1067 -0.0696
26963W        W42432  10.651   3.590   5.157 -0.1848  0.1760  0.1084
26964W        W42433   5.373  11.052   4.313 -0.0610 -0.1336  0.1860
26965W        W42434  12.573  15.171   4.765  0.1368 -0.4605  0.1196
26966W        W42435   4.603  10.352  14.259  0.0287 -0.2194  0.1718
26967W        W42436   5.865  17.001  12.956 -0.1947  0.2035  0.0588
26968W        W42437  12.507   5.553   4.049 -0.0821 -0.0109  0.0767
26969W        W42438  14.665  11.825   1.992 -0.1281 -0.0253 -0.4069
26970W        W42439   9.630   5.173  13.702  0.1200  0.2716 -0.2370
26971W        W42440  15.348  11.708   1.910 -0.0297 -0.2440  0.0030
26972W        W42441  11.088   6.653  14.698  0.2135  0.0820 -0.0847
26973W        W42442  15.874  11.107  12.376 -0.2291 -0.0347 -0.1820
26974W        W42443  14.632  12.317   3.341  0.0482  0.0567  0.1089
26975W        W42444   5.549   6.460   0.457  0.1138 -0.0188 -0.2791
26976W        W42445  16.741   8.183  14.320  0.1620  0.2786 -0.0262
26977W        W42446   1.055   3.778   5.070 -0.1068 -0.1504  0.0035
26978W        W42447   0.733  12.137  11.092 -0.4562  0.0530 -0.2717
26979W        W42448   2.715   3.009  12.298  0.1443  0.1244 -0.2254
26980W        W42449   9.016  12.136  13.434 -0.0610 -0.0477  0.1638
26981W        W42450  13.193   3.120  15.883 -0.3650 -0.0053 -0.1401
26982W        W42451  15.190   3.691   0.278 -0.3460  0.1630 -0.0960
26983W        W42452  13.128   5.862   2.523  0.0370  0.0059 -0.1080
26984W        W42453   9.103   8.691   4.439  0.0219  0.0600  0.3870
26985W        W42454  10.394  17.852   3.641 -0.1894 -0.0131  0.3246
26986W        W42455   2.519   9.395   1.995 -0.0816 -0.2014 -0.1182
26987W        W42456   2.893  10.129  11.353 -0.0115 -0.1239 -0.0402
26988W        W42457   0.006   9.493   0.736 -0.1436 -0.1145 -0.0483
26989W        W42458   7.773  10.848  10.960  0.0979  0.2029  0.0116
26990W        W42459   7.454   6.843  11.177  0.0102 -0.1300 -0.0174
26991W        W42460  11.815   2.962  11.027  0.0127  0.4636  0.0360
26992W        W42461  17.555  16.758  15.710 -0.3727 -0.4158  0.5734
26993W        W42462  16.859  17.601   0.739  0.3509  0.0375  0.0843
26994W        W42463   9.693  12.975  15.537  0.1389  0.2996  0.0680
26995W        W42464   2.129   2.039   0.946  0.0302 -0.2237 -0.2898
26996W        W42465   9.632  11.217   3.651  0.0908  0.1335 -0.0124
26997W        W42466  15.598   4.696  11.964 -0.2472  0.1481 -0.1646
26998W        W42467  10.394   8.787   3.937  0.0704 -0.0147 -0.0990
26999W        W42468  17.598  16.216   5.580  0.2015 -0.1785 -0.1157
27000W        W42469   7.186  15.029   4.647  0.1731  0.1356 -0.4474
27001W        W42470  16.950  12.715   0.011 -0.0599  0.1677 -0.0602
27002W        W42471   6.528  18.209  11.731  0.1371  0.0033  0.0891
27003W        W42472  15.767   3.620  15.854 -0.0314  0.0447  0.2211
27004W        W42473   2.904   4.704   3.231 -0.0417  0.0521 -0.2600
27005W        W42474  11.490  15.527  13.461 -0.0113  0.1210  0.1394
27006W        W42475  11.276   0.290   2.170 -0.2512  0.1217 -0.1650
27007W        W42476  15.123   0.091   2.176  0.0493  0.1712 -0.2327
27008W        W42477   6.263  10.342  15.029  0.1288 -0.0129  0.2150
27009W        W42478   2.633   2.739  10.328 -0.0410 -0.4842  0.0597
27010W        W42479  17.193  11.796  13.134  0.1847 -0.0248 -0.0924
27011W        W42480  13.794  11.453   0.533  0.0225  0.0254 -0.0246
27012W        W42481   0.472   1.555  12.008  0.3418 -0.1332  0.2038
27013W        W42482   6.285  17.634  13.428 -0.0126  0.0091  0.2955
27014W        W42483   8.826  15.492   1.591  0.1919 -0.0294 -0.2357
27015W        W42484   5.808   3.930   3.869  0.1349 -0.0998 -0.1166
27016W        W42485   3.257   4.385  13.171 -0.2612  0.2129  0.2064
27017W        W42486  12.775   7.294  11.004 -0.0835 -0.3112  0.1637
27018W        W42487   2.907   4.735  11.217 -0.0554  0.1553 -0.0350
27019W        W42488   8.243  13.285  11.041  0.0855  0.0715 -0.1369
27020W        W42489  10.842  11.401   0.973 -0.3070  0.0437 -0.1598
27021W        W42490   9.445   4.322   4.067  0.2697 -0.1551  0.1897
27022W        W42491  12.512   2.819   3.665 -0.0859 -0.0103  0.0802
27023W        W42492  12.896   6.717  15.807 -0.2576 -0.0379 -0.0902
27024W        W42493  13.266  18.371   0.139  0.0779 -0.3505  0.2538
27025W        W42494  16.475   7.899  14.726 -0.1272 -0.1008  0.0008
27026W        W42495   1.932   9.291  11.018  0.1374 -0.1040  0.1362
27027W        W42496   5.197   1.156   2.259 -0.0764  0.1200 -0.1839
27028W        W42497   1.703  13.973  15.098  0.1080  0.0931 -0.1218
27029W        W42498   2.427  11.110  13.360 -0.0425  0.2142  0.2043
27030W        W42499   3.842  12.425   2.170  0.1550 -0.1544  0.1311
27031W        W42500   3.454   4.514  12.338  0.1956 -0.0253  0.0960
27032W        W42501   9.559   6.677  12.671 -0.1185 -0.0405  0.0429
27033W        W42502   3.863   8.209  13.920  0.2451  0.0184 -0.1448
27034W        W42503   0.638  12.380  15.195 -0.0435  0.2634 -0.1671
27035W        W42504   0.140  11.534  13.332  0.2264  0.2792 -0.2188
27036W        W42505   2.965   2.468  13.138  0.1369  0.1893  0.2123
27037W        W42506  18.422  11.092  13.520  0.0840  0.0651 -0.1582
27038W        W42507  12.064   0.206  13.323 -0.0085 -0.1564  0.0866
27039W        W42508  16.638   0.421   1.832 -0.0065  0.0705  0.3572
27040W        W42509  13.935   7.098   2.364  0.2744  0.1223  0.0327
27041W        W42510   8.695  14.475  11.929 -0.1352 -0.3234 -0.1315
27042W        W42511   5.196  13.601   2.887  0.2745 -0.0727  0.0211
27043W        W42512  11.388   6.177  13.980  0.0333  0.0453  0.7767
27044W        W42513   1.591   6.049   1.792 -0.0386  0.1745  0.0034
27045W        W42514   6.373   2.182   6.107  0.1312  0.0496  0.1363
27046W        W42515   0.783   4.274  14.744  0.4010  0.1876  0.1665
27047W        W42516  16.478   0.013  12.175  0.2522  0.1795 -0.1055
27048W        W42517  13.691  12.046  11.098  0.1574  0.2578 -0.3394
27049W        W42518   4.809   3.944  14.748 -0.1496 -0.0664 -0.1427
27050W        W42519   2.545   5.755   2.179  0.1331  0.0472 -0.3955
27051W        W42520   2.632   0.252  10.903  0.2558  0.1161  0.2345
27052W        W42521   5.649   9.402   0.348 -0.1291 -0.0379 -0.0249
27053W        W42522   4.410  13.628  15.634  0.0128  0.1119  0.2377
27054W        W42523  10.480   1.145   2.911 -0.4481  0.1497 -0.0804
27055W        W42524   9.889   2.970   1.198  0.0750 -0.1221  0.0779
27056W        W42525   2.475  16.304  11.360  0.0521  0.2629 -0.1147
27057W        W42526   4.298  10.546   0.976  0.1215  0.0497 -0.0003
27058W        W42527   7.764  13.161  12.420 -0.0646  0.2129 -0.2466
27059W        W42528   9.568  17.495   2.072  0.0796  0.1178 -0.1428
27060W        W42529   4.624  15.448   2.895  0.0906 -0.1551 -0.1464
27061W        W42530   1.615   9.548   2.562 -0.2348 -0.2009  0.3742
27062W        W42531  13.117  13.618   0.495  0.2697  0.1669 -0.0174
27063W        W42532  17.391  12.256  13.220  0.1038 -0.0183 -0.0017
27064W        W42533  13.902   1.291   5.088  0.0368 -0.0334  0.3063
27065W        W42534   0.838   3.889   3.037  0.3795 -0.0819  0.1377
27066W        W42535   7.758   7.352  11.731  0.1256  0.2202  0.5664
27067W        W42536   2.773   7.188  11.135 -0.1827 -0.1106  0.2194
27068W        W42537   6.004  17.826   2.354  0.2031 -0.1687 -0.0973
27069W        W42538  14.768  12.673   5.597 -0.2994 -0.1672  0.0910
27070W        W42539   8.036   3.002   4.541  0.2096 -0.4471  0.1782
27071W        W42540  11.717  10.836  13.657 -0.0930 -0.2533 -0.1305
27072W        W42541   8.197  12.239   1.143  0.0308  0.4705  0.0411
27073W        W42542   5.871   7.492  12.024 -0.0795 -0.2781 -0.0751
27074W        W42543   9.783   7.666  13.050 -0.2428  0.1093 -0.1129
27075W        W42544   0.705  17.057  10.065 -0.0348  0.4672 -0.1795
27076W        W42545  13.976  12.347  10.172 -0.0101 -0.3162  0.1014
27077W        W42546   0.887   3.027   4.440 -0.1995 -0.0482 -0.1236
27078W        W42547   9.995   8.112   0.754  0.1262  0.2018  0.0904
27079W        W42548  11.213   7.344   5.324 -0.0959 -0.3423  0.1074
27080W        W42549  13.203   9.659   5.534  0.0661 -0.0764  0.2695
27081W        W42550   6.677   4.871   1.534 -0.0287 -0.4183 -0.5582
27082W        W42551  14.189  15.307  14.915  0.1165 -0.0017  0.0415
27083W        W42552   4.868  11.428   2.562  0.1819  0.0152 -0.0897
27084W        W42553  16.625   9.559  15.563  0.1382 -0.3018  0.3178
27085W        W42554  10.611   2.540  15.364  0.0730  0.0730  0.1573
27086W        W42555   3.323   8.575   5.454 -0.4838 -0.1631 -0.1793
27087W        W42556   4.476  10.849   1.847  0.1520 -0.1926  0.0458
27088W        W42557  12.005   8.620  14.697 -0.1554  0.0493  0.0116
27089W        W42558   6.007   3.778  15.567 -0.1132 -0.1133  0.0749
27090W        W42559  15.077  10.907   5.174  0.0915 -0.1318 -0.1782
27091W        W42560  16.890  12.840   0.488 -0.1049  0.1529  0.0204
27092W        W42561   7.582   3.363   0.383  0.1690 -0.0540  0.0888
27093W        W42562   8.871  18.419   1.435 -0.1356  0.2442  0.2283
27094W        W42563   4.429   8.976  14.591 -0.4887  0.0230  0.0266
27095W        W42564   1.247   5.323   0.848 -0.1016  0.0231  0.2896
27096W        W42565  15.509   7.757   0.834 -0.1637 -0.0731  0.0655
27097W        W42566  13.364  15.490   1.793  0.1005 -0.1422 -0.0714
27098W        W42567   5.741   3.532  13.917 -0.0495 -0.0732  0.0559
27099W        W42568  15.139  16.707   1.416  0.1443  0.1656 -0.1181
27100W        W42569  11.727   5.047   4.916 -0.0555 -0.1296  0.0195
27101W        W42570  14.044   3.726  13.968  0.1102 -0.0701  0.2230
27102W        W42571  16.255   9.061  12.302  0.0814 -0.0428  0.1775
27103W        W42572   1.034  16.051   3.431  0.0223  0.1113 -0.2522
27104W        W42573   1.779   5.096  12.033  0.1129  0.0503  0.0207
27105W        W42574   7.190   3.468  13.284 -0.0442 -0.0108  0.1143
27106W        W42575  17.787  15.300   1.419  0.1353  0.1996 -0.1302
27107W        W42576  18.108  12.138   2.575  0.2401 -0.0686 -0.0862
27108W        W42577   5.708   4.436   5.001  0.1549 -0.0656 -0.1624
27109W        W42578   0.615   1.835  13.856  0.3857 -0.0035 -0.1771
27110W        W42579  12.550   5.515  14.257 -0.1981 -0.0171 -0.0699
27111W        W42580  17.660   1.468   4.117  0.3307  0.0952 -0.3667
27112W        W42581   4.369   9.422   3.575  0.0716  0.1013  0.0148
27113W        W42582  11.636   7.628   4.303  0.0602  0.1451  0.0004
27114W        W42583   0.454  17.221  14.309  0.1618  0.0272  0.1793
27115W        W42584  16.348  16.012  13.792 -0.2802 -0.1145  0.1912
27116W        W42585  16.802   3.095   0.237  0.2348 -0.2913 -0.1404
27117W        W42586   6.394   2.400   1.857  0.1127  0.3236 -0.2791
27118W        W42587   7.814   5.674  11.440 -0.1472  0.1561  0.3981
27119W        W42588   7.811  13.386  11.965  0.0250 -0.3429  0.1489
27120W        W42589   9.971   1.072  13.583 -0.1066 -0.1979 -0.0695
27121W        W42590  13.037   2.170  12.841 -0.3449 -0.0770  0.0227
27122W        W42591  12.369   0.954   0.059  0.0110 -0.2244  0.0949
27123W        W42592   9.872   2.012  15.849  0.0980  0.0002 -0.0271
27124W        W42593  11.005   9.817  11.995  0.1908  0.1628  0.1007
27125W        W42594   6.652  17.810   4.773 -0.1540 -0.2798  0.0491
27126W        W42595  14.516   2.962  12.717  0.2643 -0.0280  0.1854
27127W        W42596  10.370   7.923  15.101  0.1321 -0.2155 -0.3005
27128W        W42597  10.838   3.648  15.782  0.2262  0.2137  0.0514
27129W        W42598  12.971   2.896  14.425  0.1267 -0.0190  0.0059
27130W        W42599   5.648  12.743  15.652  0.0037  0.3025 -0.3179
27131W        W42600   4.829   7.646  14.823 -0.0885  0.1132 -0.4641
27132W        W42601   8.306   5.727  11.402  0.1216  0.2279 -0.4025
27133W        W42602   0.813   0.655   0.620 -0.0917 -0.4222 -0.0712
27134W        W42603   7.420   0.083   3.153  0.1651 -0.0385  0.1442
27135W        W42604   6.095  16.768   3.383  0.0622 -0.0429  0.0788
27136W        W42605  17.781   6.286   4.622  0.4994 -0.0149  0.4058
27137W        W42606   5.328  18.329  14.747  0.0104  0.0506  0.0579
27138W        W42607   2.545  11.524  15.065 -0.1394  0.1067 -0.0809
27139W        W42608  11.241   9.861   4.172 -0.0208  0.0010  0.1687
27140W        W42609   4.761  15.335  14.027  0.0702  0.1820  0.0399
27141W        W42610  10.113   8.228  14.269 -0.1707  0.0169  0.1478
27142W        W42611  18.171  13.020   1.606  0.1402  0.1825 -0.0092
27143W        W42612   3.590   3.781   0.387 -0.0340  0.0127  0.0678
27144W        W42613   7.109  10.741   1.904  0.0599  0.2100  0.2160
27145W        W42614  14.038   3.432   1.764 -0.3213  0.0508 -0.0912
27146W        W42615  12.029  15.775   1.781  0.2185 -0.1731  0.1270
27147W        W42616  15.721  10.265  15.978 -0.0728  0.2176 -0.1523
27148W        W42617  14.351  14.440  11.014 -0.0702  0.1717 -0.1026
27149W        W42618  16.303  12.148   0.630 -0.2221 -0.1451 -0.0820
27150W        W42619  17.011   5.949   2.631 -0.0164  0.1621 -0.1570
27151W        W42620   5.419  15.627  14.839 -0.0922  0.0182 -0.1397
27152W        W42621  14.145  16.070  13.860 -0.0956 -0.2854 -0.0047
27153W        W42622   3.991   0.646  15.846  0.1352 -0.1407  0.4267
27154W        W42623  15.201   7.787   2.509  0.2653  0.2798  0.2984
27155W        W42624   4.618   8.398   1.783  0.2400 -0.4894  0.0443
27156W        W42625   9.949   3.475   2.873  0.2441  0.2591  0.4377
27157W        W42626  11.854  16.879  13.708 -0.1977 -0.1463 -0.0242
27158W        W42627  14.845   2.811  12.096 -0.2477  0.2800 -0.1471
27159W        W42628  12.182   3.326   1.706 -0.0325  0.0914 -0.0935
27160W        W42629   6.385   1.539  11.515 -0.3404 -0.2689  0.1648
27161W        W42630   3.844   2.687  13.892  0.3151  0.0381  0.1965
27162W        W42631  16.161  13.509  12.115  0.1400  0.3585 -0.1936
27163W        W42632   5.185  17.414   1.152  0.0795  0.2240 -0.4065
27164W        W42633  14.482  16.079  14.235 -0.1428  0.1400 -0.1831
27165W        W42634  16.252   5.029  15.783 -0.0461 -0.0724  0.1725
27166W        W42635  10.896   3.080   3.501 -0.1342  0.0204  0.1443
27167W        W42636  10.342  15.968  10.794  0.2960  0.2039 -0.2433
27168W        W42637  18.146   5.014   1.718 -0.3778  0.1503  0.2758
27169W        W42638  10.099   4.790   5.264 -0.0000 -0.1175  0.0015
27170W        W42639   6.551  11.857   0.881 -0.2926  0.0388 -0.0725
27171W        W42640   1.468  12.747   3.477  0.1466  0.0288 -0.1824
27172W        W42641   5.003   8.425  10.274  0.3956  0.1401  0.1258
27173W        W42642   2.281   1.577   0.808  0.1466 -0.0020 -0.4672
27174W        W42643   0.901   3.239   3.496 -0.1036  0.0878  0.1243
27175W        W42644  13.360   4.034  12.280  0.1047  0.1228 -0.3969
27176W        W42645  11.680   9.244   3.450  0.2483  0.3587  0.1582
27177W        W42646   2.213   6.518   6.206 -0.2450 -0.0945 -0.0204
27178W        W42647   9.376   9.653  13.240  0.1540 -0.2323 -0.2030
27179W        W42648  15.075   5.055   4.046 -0.0790 -0.0096  0.0196
27180W        W42649  16.951   0.942  14.257  0.1694  0.0124  0.1258
27181W        W42650   2.606  12.895   1.930 -0.3598 -0.2914 -0.1143
27182W        W42651  10.475   9.317  11.434  0.1348 -0.2629 -0.2071
27183W        W42652   2.358   0.287  16.028 -0.0310  0.1915 -0.0182
27184W        W42653   2.728   7.336  16.012  0.0968  0.0049  0.3392
27185W        W42654   0.051   2.491  11.861 -0.0890 -0.1445  0.1303
27186W        W42655  17.967  15.840   3.723 -0.2671  0.1818  0.2062
27187W        W42656  10.582  12.714   0.017  0.1396 -0.1782 -0.1479
27188W        W42657   9.028   0.990  15.998  0.1396 -0.2108 -0.1856
27189W        W42658   6.583  12.014   2.238  0.3213  0.0093 -0.0947
27190W        W42659   0.651   4.993   2.115 -0.4123 -0.2328 -0.1131
27191W        W42660  10.830   7.697   0.157  0.0838  0.1653  0.2049
27192W        W42661  13.520  10.429   0.280 -0.1223 -0.0997  0.2522
27193W        W42662   2.041  10.422  14.529  0.1025  0.2540  0.4613
27194W        W42663   2.810  12.572   2.798  0.4126 -0.2497  0.0841
27195W        W42664  16.006   0.163  12.910 -0.2364 -0.1027 -0.3855
27196W        W42665  10.089   0.402   0.299 -0.4228  0.2176 -0.3827
27197W        W42666  16.171   8.312   1.328  0.0047 -0.2880 -0.2205
27198W        W42667  11.023  15.445  11.209 -0.0900 -0.1668 -0.1207
27199W        W42668  17.578  17.356   3.674 -0.1778  0.2441 -0.0089
27200W        W42669  10.879  12.424   0.690 -0.1030 -0.3112  0.0964
27201W        W42670  10.663   1.234  11.296 -0.1668 -0.0898  0.0900
27202W        W42671  11.719   7.301   0.933 -0.1736 -0.0336 -0.1335
27203W        W42672   2.628   1.554   5.061  0.1751  0.3823  0.1361
27204W        W42673  15.208   6.181  14.561 -0.1456 -0.0859 -0.3218
27205W        W42674  15.916  17.897   3.506  0.3826  0.4003 -0.3704
27206W        W42675   8.523  15.886   4.282 -0.1623  0.3653 -0.0582
27207W        W42676   4.356   9.042   5.634  0.0960 -0.0806  0.1949
27208W        W42677  11.280  13.776  10.790 -0.3137 -0.2290  0.0810
27209W        W42678   8.300  18.313  11.853 -0.2651  0.1469  0.1043
27210W        W42679  15.000  10.670   0.499  0.0426 -0.2191  0.1866
27211W        W42680   8.468   3.617   5.273 -0.1034 -0.1281 -0.1071
27212W        W42681   6.499   6.081  11.695 -0.2658 -0.0540  0.0999
27213W        W42682  12.611   3.555  12.599  0.2171  0.1699 -0.1090
27214W        W42683  13.898   2.531  12.464 -0.0927 -0.0195 -0.0794
27215W        W42684  16.750   9.772  14.507  0.1011 -0.0171  0.1312
27216W        W42685   1.700  11.853   3.733  0.1449  0.2449 -0.1943
27217W        W42686  12.688  12.097   1.639  0.1900  0.0162 -0.0230
27218W        W42687  17.407  12.298  15.787  0.1682  0.2427  0.0904
27219W        W42688  15.625   3.912   2.047  0.0965 -0.1587  0.0755
27220W        W42689  17.324   6.860  15.847  0.0215  0.0568 -0.0160
27221W        W42690   3.275   9.423   1.139  0.2369  0.1908  0.1969
27222W        W42691  17.889   3.286   1.573 -0.1026 -0.1430  0.1089
27223W        W42692   5.514   1.464  15.772 -0.0369  0.1032  0.3107
27224W        W42693  11.137   9.960   3.206  0.0625 -0.1464 -0.0895
27225W        W42694  16.553   6.256   3.695 -0.4020  0.0223  0.1433
27226W        W42695  16.499   4.919   1.834  0.0062  0.1430 -0.1222
27227W        W42696   7.744   2.657   4.744 -0.0358  0.0074 -0.0679
27228W        W42697   1.100   4.742  14.794  0.5330 -0.1480 -0.0634
27229W        W42698  16.933  12.259  15.898 -0.1120 -0.0228 -0.1432
27230W        W42699   5.872   5.006   1.971  0.1223  0.2156  0.0950
27231W        W42700  17.114   4.855  14.153  0.1538  0.1012 -0.1516
27232W        W42701   3.820  12.731  11.813  0.1824 -0.0995  0.3377
27233W        W42702  17.992  17.270   2.481  0.0105  0.0660 -0.2627
27234W        W42703  17.449   2.433  14.745  0.2618  0.0945  0.1601
27235W        W42704  18.040   2.329  12.466  0.0441  0.0294  0.0121
27236W        W42705   0.259   8.994   3.893 -0.1885  0.5677  0.1249
27237W        W42706   5.341   0.574   4.641 -0.2685 -0.0241  0.0241
27238W        W42707   7.831  18.409   2.902 -0.2339 -0.2551 -0.2988
27239W        W42708   0.825   6.399  12.876  0.0112  0.1703  0.2596
27240W        W42709  11.767   9.246  11.130 -0.0988 -0.1808 -0.3467
27241W        W42710   1.948  16.441   4.252  0.2296  0.0571  0.0045
27242W        W42711  12.667  12.429   2.482 -0.1094 -0.2827  0.1724
27243W        W42712   2.986   7.642  15.635  0.1039 -0.0958 -0.0407
27244W        W42713   7.835  12.957   4.640 -0.1943 -0.0138 -0.2674
27245W        W42714   6.292  13.188   0.537  0.1586  0.1110  0.2043
27246W        W42715   5.645   8.422  11.469  0.2623 -0.1851  0.1327
27247W        W42716   2.664  11.988  15.195 -0.0011 -0.0021 -0.1557
27248W        W42717   3.524   5.964  15.139 -0.2711 -0.0960 -0.1473
27249W        W42718   7.213   9.733  11.177  0.0294 -0.2003  0.1502
27250W        W42719  17.207  14.418  12.476  0.0119  0.1651 -0.2538
27251W        W42720  15.409   7.866   1.752 -0.0816  0.0240 -0.1022
27252W        W42721   8.435   5.078   2.406 -0.0120 -0.1565 -0.0686
27253W        W42722   6.466  11.380  11.808 -0.1238 -0.2829 -0.2777
27254W        W42723  12.849   7.020   6.048 -0.0660  0.0451 -0.0708
27255W        W42724  12.074   1.568  13.770  0.0506  0.0691  0.1467
27256W        W42725  18.431   6.515   5.289  0.3414  0.0210 -0.1323
27257W        W42726  17.794  15.485   4.626  0.0253 -0.0090 -0.2636
27258W        W42727  18.144  13.949  12.581 -0.1471  0.0956  0.0391
27259W        W42728   8.056   1.752   3.425  0.3343 -0.0307 -0.0868
27260W        W42729  15.875   5.744   1.972  0.2256 -0.3604  0.1318
27261W        W42730   4.340   7.597   4.604  0.3595 -0.3080 -0.1228
27262W        W42731   4.415  18.114  15.024  0.1527 -0.1307  0.3109
27263W        W42732   6.148  11.601  10.856 -0.2602  0.2613  0.1646
27264W        W42733   7.652   0.593  12.787 -0.0873  0.0841 -0.0007
27265W        W42734   3.465   5.509  14.905 -0.0985  0.1793  0.0075
27266W        W42735  17.100   7.867  14.673 -0.0506  0.0943 -0.0007
27267W        W42736   9.662   8.700   1.872 -0.1733 -0.1816  0.1551
27268W        W42737  17.085   5.450   2.543 -0.1892  0.1107 -0.2022
27269W        W42738   4.761   8.625  15.548 -0.0281  0.0215  0.0227
27270W        W42739   8.726   4.070   4.556 -0.3392  0.1873  0.0465
27271W        W42740   7.620   5.879   5.343  0.0112 -0.1745 -0.2273
27272W        W42741  14.288   6.994   6.236  0.1563 -0.1934  0.1548
27273W        W42742  15.609  11.096   5.870  0.0353  0.2135 -0.2566
27274W        W42743  14.706   1.676   4.943 -0.1010  0.1978  0.2147
27275W        W42744   9.027  17.619   3.323 -0.0907 -0.1256  0.0550
27276W        W42745   1.689   3.871  15.492 -0.1221 -0.2580  0.0997
27277W        W42746  15.263  12.409  15.808 -0.1674  0.3637 -0.3512
27278W        W42747   6.161   5.125  14.531  0.1247 -0.4049 -0.2022
27279W        W42748   8.642   5.156  14.642 -0.2526 -0.0871  0.2419
27280W        W42749   4.025   2.402  15.500 -0.0264  0.1524  0.0714
27281W        W42750   4.446   9.663  13.550  0.0898 -0.1719 -0.0395
27282W        W42751  17.042   5.536   5.817  0.2756  0.2263 -0.0011
27283W        W42752  14.530   4.775   0.752 -0.2387 -0.3335 -0.1420
27284W        W42753   1.358   3.168  11.164  0.1707  0.2997  0.0038
27285W        W42754   2.767  16.018  12.175 -0.1354 -0.2588 -0.0393
27286W        W42755   0.989   0.829  11.865 -0.2426  0.0235 -0.0712
27287W        W42756  12.025   2.735  11.962 -0.0175  0.0471  0.1039
27288W        W42757  14.307  17.695   2.964  0.1157  0.0233 -0.0988
27289W        W42758  13.698  18.371   3.888  0.0265  0.0537  0.1944
27290W        W42759  10.917   4.803   4.004  0.2221  0.0791 -0.2943
27291W        W42760  16.992  11.533   1.072  0.2562  0.0668  0.2345
27292W        W42761   9.551   8.290   1.671 -0.0936  0.1271 -0.1264
27293W        W42762  12.257   9.536  12.069 -0.0676  0.1467  0.0213
27294W        W42763   8.065   5.525   3.781 -0.1969 -0.1381 -0.1269
27295W        W42764   7.469   2.415   3.797 -0.1145 -0.0694  0.1241
27296W        W42765  10.692  12.665  15.563 -0.0711  0.2912  0.4404
27297W        W42766  11.657  17.258   5.123 -0.0805 -0.0163 -0.3704
27298W        W42767   0.757   3.011  12.384 -0.1405 -0.0234  0.2127
27299W        W42768   6.486   9.221  16.013  0.0126  0.1038  0.0261
27300W        W42769   8.512   8.042   2.356 -0.0335  0.3426  0.2361
27301W        W42770  13.595   2.728   4.496 -0.2506  0.1541 -0.1569
27302W        W42771  14.888   5.956  11.833 -0.2926 -0.0138 -0.1917
27303W        W42772   8.804  17.422  14.325  0.1534 -0.1659 -0.0943
27304W        W42773  15.797  16.852  15.915  0.1133 -0.2195  0.1660
27305W        W42774   6.775  13.615  14.785  0.1472  0.1900  0.0622
27306W        W42775   4.014   3.390  13.096 -0.1051 -0.0926  0.0257
27307W        W42776   8.494   9.242   1.310 -0.1404 -0.1570  0.1050
27308W        W42777  18.416   7.084   5.095  0.0140  0.0055  0.1296
27309W        W42778   2.067   4.822   2.309  0.0218 -0.0479  0.0647
27310W        W42779   3.045  13.997   1.418 -0.1896  0.1736 -0.1637
27311W        W42780  17.689   8.372   3.297 -0.1181 -0.1221 -0.0185
27312W        W42781  15.196  10.834  15.217 -0.3151 -0.1393  0.0219
27313W        W42782   3.034   6.869   1.923  0.0407  0.0845 -0.1602
27314W        W42783   6.038  11.575   1.012 -0.2472  0.1812 -0.0948
27315W        W42784  17.461   7.021   5.213 -0.0093 -0.1247 -0.0703
27316W        W42785  14.913  13.165   4.709 -0.2071 -0.0905 -0.1523
27317W        W42786   0.934   2.553   5.412  0.0801 -0.0998  0.0196
27318W        W42787  11.467   6.911   5.479  0.1029  0.1824 -0.1422
27319W        W42788   4.069   9.069   4.740 -0.3767  0.1025  0.0493
27320W        W42789  12.619   2.232  15.367 -0.0747 -0.1481  0.3824
27321W        W42790   3.327  15.015  14.537  0.1476 -0.2899  0.1269
27322W        W42791  15.726  15.130   0.602  0.1275 -0.0792  0.0404
27323W        W42792   2.023  14.903   4.724 -0.2013  0.2926  0.0430
27324W        W42793  14.441   2.064   5.118  0.1149 -0.0152  0.3284
27325W        W42794  14.519  12.761  15.861  0.1409  0.0109  0.0568
27326W        W42795   7.374   3.615   2.117 -0.1907 -0.1131  0.0452
27327W        W42796  12.613  12.052  15.181  0.0275  0.2204  0.1989
27328W        W42797   4.591   5.688   4.443 -0.0515 -0.1331 -0.0309
27329W        W42798   7.523   1.585   2.651  0.0428  0.0575 -0.0298
27330W        W42799  14.895   2.258   2.697 -0.2460 -0.1702  0.1226
27331W        W42800   7.663   6.028  14.962 -0.1081 -0.1611  0.1687
27332W        W42801   1.131  14.545  13.620 -0.0401 -0.0857  0.2531
27333W        W42802   0.937   3.937  13.094  0.0422 -0.0626 -0.0118
27334W        W42803   8.262  13.485  14.951 -0.0240 -0.2936 -0.4245
27335W        W42804   5.705   2.947   1.923  0.0300 -0.1199  0.0919
27336W        W42805  16.772   8.304   4.714  0.2305  0.0397 -0.0062
27337W        W42806  10.409  17.809  11.337  0.4344 -0.2192  0.3183
27338W        W42807   8.335   4.239  14.973 -0.0051  0.0894  0.1769
27339W        W42808   6.653   5.944   2.022 -0.2276 -0.0516  0.2609
27340W        W42809   8.548   2.505  15.356 -0.2848 -0.2123  0.1605
27341W        W42810   7.768   6.995   5.142  0.1604 -0.2401 -0.3949
27342W        W42811  17.422   4.598   5.199  0.0171  0.0805 -0.3528
27343W        W42812  15.375   5.753   3.753 -0.1813 -0.3128 -0.0943
27344W        W42813  11.279   3.042   3.005 -0.0933  0.2343 -0.0174
27345W        W42814   0.881  11.851  15.052  0.1481  0.2202 -0.0385
27346W        W42815   5.231  12.918  11.895 -0.3113  0.1227  0.4807
27347W        W42816   8.998   9.354  15.552 -0.2644  0.0547 -0.2796
27348W        W42817   6.151   0.239  14.857  0.1634 -0.2046 -0.2197
27349W        W42818   3.913  17.010  12.325 -0.0104  0.1706 -0.0451
27350W        W42819   4.725  17.099  14.483 -0.1099  0.1893 -0.2443
27351W        W42820  18.429   2.302   1.693 -0.0572  0.2175  0.2345
27352W        W42821   1.989   6.028  15.564 -0.1776 -0.1924  0.0764
27353W        W42822  10.354  15.513   0.759 -0.0495 -0.2008  0.0901
27354W        W42823   8.125   2.404   0.414 -0.0281  0.0664 -0.1434
27355W        W42824  10.535  15.104   4.067 -0.0932  0.2590  0.2001
27356W        W42825  12.835   8.574   2.649 -0.3986  0.2905  0.2441
27357W        W42826  18.167   2.675  12.107  0.0951  0.0803 -0.0790
27358W        W42827   0.974   6.692  11.382 -0.2800 -0.1743 -0.0108
27359W        W42828   2.204  17.386   2.025  0.1585 -0.0390  0.1453
27360W        W42829   1.224  10.797   1.285  0.3300 -0.3618  0.2398
27361W        W42830  13.756   5.846  10.783  0.0473  0.0767 -0.0790
27362W        W42831   4.303  11.380   3.076  0.1752  0.0751  0.1917
27363W        W42832  12.621  14.080   3.473 -0.2284  0.0549 -0.0894
27364W        W42833  18.227  14.969   1.063 -0.2744  0.2866 -0.3052
27365W        W42834   2.891   7.839  15.198 -0.1069  0.0797  0.0246
27366W        W42835  16.925   8.998   1.359 -0.2837 -0.1043  0.0909
27367W        W42836  12.911   1.909   3.213 -0.0644 -0.0829  0.2116
27368W        W42837   7.605  12.369  14.685 -0.2333  0.1021  0.0790
27369W        W42838  17.509   0.653  13.437  0.2534  0.0920  0.2560
27370W        W42839   3.426  16.127   1.535 -0.0219 -0.0609 -0.2115
27371W        W42840   9.073   1.334  13.687 -0.0285 -0.0906 -0.0503
27372W        W42841  13.664   8.166   4.993 -0.2854  0.0240  0.2231
27373W        W42842   8.392  16.523  14.370  0.2606  0.2871 -0.2479
27374W        W42843   4.910   7.344   1.068 -0.2677 -0.0964  0.2560
27375W        W42844   3.254  16.379   1.120  0.0910  0.1125  0.0087
27376W        W42845  10.926  10.473  15.818  0.0363  0.2274  0.2052
27377W        W42846   7.288  16.074  15.631  0.1952  0.1398  0.0218
27378W        W42847  11.059  14.082  13.369  0.0109  0.2153 -0.0053
27379W        W42848   9.739  12.403   5.171 -0.3903 -0.0947  0.0092
27380W        W42849  14.209   8.626   5.151 -0.0138 -0.2661  0.1925
27381W        W42850   7.993  15.005   0.319 -0.2879  0.0405  0.2413
27382W        W42851  17.014  16.989  15.740  0.0453 -0.2849 -0.0294
27383W        W42852   5.986   1.667  14.352  0.3586  0.0626 -0.4649
27384W        W42853   7.591  13.665   0.987  0.0501  0.0892 -0.3234
27385W        W42854   3.162  16.281   4.395 -0.1280  0.0472 -0.0146
27386W        W42855  17.461   8.975   4.640 -0.1442 -0.1699  0.0802
27387W        W42856  16.334   2.322  13.942 -0.0315 -0.5184 -0.1628
27388W        W42857   1.930  15.122   3.193 -0.0604 -0.4029 -0.1181
27389W        W42858   2.306  13.220  11.342 -0.2104 -0.2633  0.3759
27390W        W42859   6.133   3.245   0.134 -0.0147  0.2458  0.0184
27391W        W42860   7.812  12.742  10.931 -0.1519  0.2626  0.4463
27392W        W42861   9.821   6.256   4.274  0.0226  0.6922  0.2793
27393W        W42862  14.512   1.952  10.532 -0.2366 -0.0754  0.3444
27394W        W42863   0.938   6.385  15.550 -0.1417 -0.1830 -0.0843
27395W        W42864  15.080   5.450   2.770 -0.3381 -0.0135 -0.2165
27396W        W42865  15.807   3.133   3.273  0.1120 -0.0610  0.0962
27397W        W42866   0.008   3.049  15.568 -0.0300 -0.2193  0.1858
27398W        W42867   5.739   0.856  11.667 -0.3939  0.2043  0.5246
27399W        W42868  10.981  16.548   4.007  0.0809 -0.0830  0.2454
27400W        W42869   4.524  14.057  11.023 -0.1897 -0.2272  0.0188
27401W        W42870  17.382   5.992  14.382  0.2218 -0.1321 -0.3056
27402W        W42871   8.004  12.054   3.917  0.2879  0.1369 -0.4060
27403W        W42872  12.842   3.230   4.475 -0.1834  0.0915  0.1151
27404W        W42873   3.287  13.213  12.075 -0.1655 -0.2006 -0.3133
27405W        W42874  13.951   6.006   4.637 -0.2337  0.0319 -0.1119
27406W        W42875   1.870  14.466  13.280  0.1884  0.1688  0.0250
27407W        W42876  11.496  17.204   3.803 -0.2027 -0.1537  0.1698
27408W        W42877   7.298   8.277  14.007  0.5649 -0.0216 -0.0056
27409W        W42878   0.890   4.421  15.380 -0.3402  0.1660 -0.4407
27410W        W42879  14.602   2.085   4.657 -0.2254 -0.1131  0.0943
27411W        W42880   8.583  12.195   4.591 -0.0201  0.0408 -0.0594
27412W        W42881   9.249   2.856  13.078  0.1747 -0.0098 -0.4367
27413W        W42882  14.292  17.262  13.299 -0.0288  0.1729 -0.0050
27414W        W42883  13.698   4.695   2.789  0.0617  0.0909 -0.3304
27415W        W42884  11.586  15.151   4.998  0.0019  0.0174 -0.2412
27416W        W42885  12.460  13.758  13.400 -0.0440  0.2269 -0.3078
27417W        W42886  13.546  10.159   5.337 -0.3595 -0.0273 -0.0792
27418W        W42887   6.168   3.596   3.591  0.4079 -0.1278 -0.4166
27419W        W42888   5.747  11.090   5.294 -0.2530  0.2286 -0.1655
27420W        W42889   3.434  11.792   5.397  0.1017 -0.0829  0.0641
27421W        W42890   8.582  14.528   5.150 -0.0497 -0.5125  0.0110
27422W        W42891   1.304  12.563   5.574 -0.2794  0.1457 -0.1570
27423W        W42892  17.283  11.328   5.051 -0.2281  0.1003 -0.1501
27424W        W42893  15.018  12.200   0.167 -0.1894 -0.2749  0.1733
27425W        W42894  11.946   0.989   4.604  0.2249 -0.3311  0.1095
27426W        W42895  13.954   2.583   4.220 -0.0923  0.0659  0.1567
27427W        W42896   4.798   3.864  10.933  0.0513 -0.1324 -0.1127
27428W        W42897  12.671  14.511  14.046  0.2096 -0.0741  0.1414
27429W        W42898   3.924   7.330  14.801  0.0758 -0.1769 -0.3579
27430W        W42899  15.910   5.461   4.492  0.2028 -0.4829 -0.0795
27431W        W42900  17.147  14.654  13.008 -0.1835 -0.0134 -0.2907
27432W        W42901   4.997  16.224   3.383  0.1085  0.3106 -0.0970
27433W        W42902   9.145   4.986   0.171 -0.1535 -0.0932  0.1081
27434W        W42903   8.364   8.523   2.360  0.0257  0.0880 -0.0732
27435W        W42904  15.609  11.240   2.652  0.0531  0.0895 -0.3392
27436W        W42905   8.184   7.036  13.128 -0.0213 -0.2629  0.2259
27437W        W42906   3.110   8.318   1.098  0.1617  0.1127 -0.2380
27438W        W42907   3.862   5.057   1.924 -0.2048  0.1915  0.0330
27439W        W42908   0.787   6.856  12.595 -0.0038  0.0349  0.2506
27440W        W42909   9.749   7.296  13.528  0.1671  0.0413  0.1724
27441W        W42910   4.920  12.832  14.973 -0.0400  0.1533 -0.1953
27442W        W42911   8.738  18.303   1.934 -0.0293 -0.3010 -0.1634
27443W        W42912   3.622  11.345   3.122  0.1650  0.1906  0.3972
27444W        W42913   6.824  13.246   2.207  0.2312  0.0059  0.0881
27445W        W42914  13.537   3.466   4.909  0.1023 -0.2059 -0.3546
27446W        W42915   1.198   3.048   5.333  0.1215 -0.0138  0.2618
27447W        W42916  17.107   7.466   3.088  0.1886 -0.0194 -0.4636
27448W        W42917  16.298   6.918   4.223  0.2236  0.0581 -0.1403
27449W        W42918  10.361  15.339  14.551 -0.1498  0.2446 -0.2280
27450W        W42919   2.165   5.576  14.178 -0.4722 -0.1399  0.0825
27451W        W42920  14.057   4.072   1.202  0.2224  0.0421 -0.1702
27452W        W42921  13.826   2.150   0.766 -0.1774 -0.0951  0.1587
27453W        W42922  14.367  14.221  14.941  0.0433  0.1737 -0.2733
27454W        W42923  13.750   1.828  13.156  0.1056  0.0219 -0.0235
27455W        W42924   9.500   6.213   3.901 -0.1561  0.1249 -0.0407
27456W        W42925   5.711   4.549   3.844 -0.0979  0.0034 -0.0023
27457W        W42926   5.410   0.486   3.631  0.3045 -0.3535 -0.0973
27458W        W42927   0.671   0.388   3.380  0.1832 -0.1778  0.0368
27459W        W42928  10.055  15.291  15.488  0.0937 -0.2462 -0.4121
27460W        W42929   1.601   9.430   3.396 -0.1839 -0.3104 -0.2329
27461W        W42930  15.858   4.849  14.303 -0.0933 -0.0590 -0.1966
27462W        W42931   2.058   9.081   0.854  0.2465 -0.4047 -0.1574
27463W        W42932   7.783   3.421   1.844 -0.0826  0.1010  0.1920
27464W        W42933   9.654   2.739   0.718  0.1637  0.0037  0.0389
27465W        W42934   2.579  15.584   2.465  0.0862  0.0855  0.1616
27466W        W42935   9.577  10.153  12.026  0.1273  0.4106 -0.1273
27467W        W42936  13.583   2.481   4.922 -0.0469  0.0473 -0.2564
27468W        W42937   3.231   5.546   3.509  0.2962  0.2734  0.0415
27469W        W42938  11.046  17.231  14.206 -0.3213 -0.0407  0.2600
27470W        W42939  14.800  18.327  16.014  0.1155  0.1558  0.0497
27471W        W42940  11.798   5.279  13.057 -0.0920  0.0932 -0.2592
27472W        W42941  12.266   2.884  13.059  0.4979 -0.0160 -0.1523
27473W        W42942   6.785   1.140  14.786  0.0708 -0.0275 -0.1965
27474W        W42943   5.630   7.412  15.572 -0.3144 -0.2714 -0.2604
27475W        W42944   7.793  15.663   2.092  0.0417  0.1208 -0.1194
27476W        W42945  14.957  12.619   4.493  0.0460  0.0741 -0.0150
27477W        W42946   8.021  12.747   1.172 -0.0018 -0.1857 -0.2639
27478W        W42947  17.409   3.626   5.687  0.0061 -0.1073  0.1494
27479W        W42948   6.787   6.679   1.689  0.1053  0.1669 -0.2245
27480W        W42949  11.099  14.421   1.668  0.3148  0.1612 -0.0386
27481W        W42950  11.746  11.545  11.065  0.2776  0.0982 -0.2036
27482W        W42951  14.229   3.779   0.801 -0.1859  0.2408 -0.2268
27483W        W42952  11.415   0.743   5.089  0.3952  0.1074 -0.1538
27484W        W42953   5.906   3.048  13.777 -0.0945 -0.1409 -0.1925
27485W        W42954   3.699   8.822   4.313 -0.1436 -0.0192  0.0801
27486W        W42955   3.815  14.828  15.252  0.0975 -0.0236  0.0228
27487W        W42956   5.373  10.355   0.861  0.1914  0.0450 -0.1142
27488W        W42957   4.013   5.261   2.873  0.0383 -0.0757  0.0407
27489W        W42958  10.651   7.464   6.101  0.0201  0.2167  0.3499
27490W        W42959   1.160   5.055   0.171  0.0013 -0.0137  0.0425
27491W        W42960   0.110  14.716   1.920  0.1040 -0.2676 -0.0582
27492W        W42961  14.901  15.750  13.368  0.1644  0.3330 -0.0154
27493W        W42962   2.060  15.570  11.321  0.2337 -0.1322  0.0546
27494W        W42963  14.761   0.129  12.968  0.1616 -0.1698  0.1059
27495W        W42964   2.210   3.381  11.691  0.0483  0.3763 -0.2206
27496W        W42965   8.022   1.789  15.304  0.0516  0.0192 -0.1662
27497W        W42966   1.236   6.571  14.123  0.2896 -0.3573  0.1621
27498W        W42967   5.831   2.800   3.019  0.1351 -0.0081  0.1503
27499W        W42968  17.835   3.818   5.406  0.2500 -0.0611  0.1437
27500W        W42969   5.206   2.051   4.883 -0.3002  0.0038 -0.1576
27501W        W42970   7.402   0.196  12.591 -0.0335 -0.1001  0.2952
27502W        W42971   2.747  14.304   2.186  0.0799 -0.0494 -0.0991
27503W        W42972   0.635  13.068   2.034  0.1477 -0.0822 -0.1978
27504W        W42973   9.699  15.573   2.944  0.2636  0.1068 -0.0522
27505W        W42974   1.127  12.240  15.159 -0.1223  0.1278 -0.0759
27506W        W42975  15.582   2.303  14.375 -0.0000 -0.0349  0.0277
27507W        W42976  13.034  11.881   3.272  0.1529  0.0228 -0.0091
27508W        W42977  17.384  14.475   1.470  0.0922  0.2828 -0.1842
27509W        W42978   7.820   2.089  14.976 -0.1320 -0.0102  0.1772
27510W        W42979  12.184   3.026   0.667 -0.0554 -0.4930  0.1380
27511W        W42980  17.908  14.741   0.658 -0.0857  0.1787 -0.1865
27512W        W42981  16.356   3.585   2.653  0.0321 -0.0490  0.0814
27513W        W42982  14.626   6.418   1.508 -0.3254  0.0232 -0.1840
27514W        W42983   5.277  14.023  13.447 -0.0784 -0.2950  0.1947
27515W        W42984   7.186   4.513   2.311  0.0984 -0.0743 -0.4249
27516W        W42985   2.121   8.147  15.657 -0.1558  0.5165 -0.0363
27517W        W42986   4.726   7.084  13.765 -0.1312  0.0677  0.1614
27518W        W42987  16.159   5.747   2.844  0.0893  0.2929  0.3149
27519W        W42988   6.423   1.082  10.478  0.3720  0.1387  0.2069
27520W        W42989   6.861   0.347  14.118  0.1292  0.0254 -0.0180
27521W        W42990  13.020   6.456  13.644 -0.1377  0.2352  0.1369
27522W        W42991   1.107   0.572   1.244 -0.2274 -0.3686  0.1943
27523W        W42992  17.619   7.563  15.148  0.1040 -0.0882 -0.1868
27524W        W42993   5.690   9.853  10.503  0.0311  0.0454 -0.2705
27525W        W42994   0.574  17.733   1.645 -0.3711 -0.2025  0.1178
27526W        W42995  12.602  12.832  14.781  0.3744  0.1054  0.3197
27527W        W42996   1.056  12.266   0.658 -0.0670 -0.1831 -0.1396
27528W        W42997  14.192  11.887  13.420  0.1101  0.0850 -0.0964
27529W        W42998   1.776  16.317   1.258  0.0056 -0.0194 -0.0871
27530W        W42999  10.529   9.860  11.105  0.0723  0.0610  0.0726
27531W        W43000  17.468  18.436  10.732 -0.2253  0.2190 -0.0865
27532W        W43001  17.952  14.718   3.167 -0.1012  0.4774  0.0287
27533W        W43002   1.854  11.553  11.672 -0.1590 -0.2744 -0.0479
27534W        W43003  18.061   3.722  13.461  0.0731  0.0871  0.2384
27535W        W43004  15.094   6.719  15.150  0.0646  0.2135  0.5025
27536W        W43005   6.202   1.378   0.800 -0.1602  0.2045 -0.1936
27537W        W43006   9.309  10.434  13.534 -0.3101  0.1523  0.4084
27538W        W43007   7.677  11.435  14.648  0.0633 -0.0237  0.0925
27539W        W43008  17.090   5.342  13.906 -0.0733  0.1899 -0.0047
27540W        W43009  14.188   2.502   0.851  0.0083 -0.1586  0.2033
27541W        W43010  14.935   5.647   2.298  0.2140 -0.3390  0.1196
27542W        W43011  17.768  15.654  12.586  0.1653 -0.1637  0.1109
27543W        W43012   6.276  11.027  15.451 -0.0335  0.0939  0.0333
27544W        W43013   2.866  15.828  15.199 -0.1149 -0.0978  0.3196
27545W        W43014  16.677  13.966  13.040  0.0302  0.1699  0.2894
27546W        W43015  13.731   2.786   3.087 -0.0740  0.1995  0.0613
27547W        W43016  11.261  10.598   1.526 -0.2573  0.1889  0.2647
27548W        W43017  15.016   8.176   2.143 -0.0030  0.0785  0.3083
27549W        W43018   1.884  14.434   0.473 -0.0756 -0.0091  0.2412
27550W        W43019  18.112   2.438  11.158  0.2181 -0.1282  0.5750
27551W        W43020  14.708   1.728  15.892 -0.3088 -0.1077 -0.1138
27552W        W43021  14.079  14.271  12.863  0.0472  0.0668  0.2297
27553W        W43022  18.131   5.619   4.133 -0.1003 -0.0893  0.4286
27554W        W43023  11.507  12.675  13.890 -0.0533 -0.0011  0.1279
27555W        W43024   0.986   9.659  10.865 -0.3122  0.1314 -0.1792
27556W        W43025   3.881  15.704   0.093  0.1149  0.0334  0.2091
27557W        W43026  13.201   4.711  11.338 -0.1915  0.0670  0.1387
27558W        W43027   8.705   4.610  15.888  0.1730  0.2149 -0.0057
27559W        W43028  17.948   5.963  14.274  0.0424 -0.5074 -0.0778
27560W        W43029  11.801  14.809   3.613 -0.0337 -0.3418  0.2144
27561W        W43030   8.039   6.243  15.176 -0.0786 -0.2257 -0.1417
27562W        W43031  13.390  16.007  13.156 -0.1454 -0.2816 -0.0482
27563W        W43032  10.330  16.416  10.711  0.3102  0.0373  0.0781
27564W        W43033  16.450   4.411   1.080 -0.1245 -0.1105  0.3969
27565W        W43034   5.004  15.867  11.502  0.0093 -0.0557  0.3929
27566W        W43035   2.343  10.497  11.015  0.5494  0.0312 -0.0737
27567W        W43036  14.055   3.987  12.425  0.0386 -0.0581  0.0774
27568W        W43037   7.725   3.854   4.393  0.1836  0.1168  0.2873
27569W        W43038   1.840  13.055   0.142  0.1284  0.1641  0.2058
27570W        W43039  14.452  17.400   0.017  0.2607  0.2141  0.1543
27571W        W43040  18.099  17.605   3.920 -0.0807 -0.1733 -0.2565
27572W        W43041   5.966   6.771  11.645 -0.0703 -0.1654 -0.0897
27573W        W43042  17.431   7.442   0.590  0.0853 -0.1470  0.2222
27574W        W43043   0.976  10.136   0.068 -0.0761 -0.1581  0.1983
27575W        W43044   7.262  14.510  13.072  0.1868  0.4038  0.1449
27576W        W43045   2.483   2.568  12.340 -0.1479 -0.2474  0.1131
27577W        W43046  15.868   2.301  11.985 -0.4053  0.1802  0.1989
27578W        W43047   9.280   2.578   1.039 -0.1161 -0.3554  0.0200
27579W        W43048  15.781   1.832   4.893 -0.0740 -0.2798 -0.1225
27580W        W43049  18.042   7.487   4.340 -0.0595  0.2173  0.6117
27581W        W43050  17.748  13.287   0.450  0.1473  0.2783 -0.0720
27582W        W43051  17.697  13.182   0.955 -0.2381  0.1697  0.2493
27583W        W43052  13.540   0.860  10.285  0.1983 -0.2602 -0.1255
27584W        W43053   5.568  16.359   0.576 -0.0034 -0.0232  0.0031
27585W        W43054  16.691  17.485   2.105  0.1719 -0.4359  0.3020
27586W        W43055  16.830  15.756  13.698 -0.1301  0.0552  0.3364
27587W        W43056   9.449  14.652  11.970  0.1805  0.1868  0.0843
27588W        W43057   5.980   5.284   3.277 -0.5904  0.2716  0.3445
27589W        W43058   0.574   2.419   2.516  0.0853  0.1937  0.3317
27590W        W43059  12.660   1.090  11.397 -0.2130 -0.1935  0.2099
27591W        W43060  16.119  11.376   1.502 -0.1283  0.0642 -0.1103
27592W        W43061  14.840   2.094  14.213  0.0990 -0.1748 -0.4351
27593W        W43062   3.620   4.284   0.350 -0.3138 -0.1622 -0.0797
27594W        W43063   7.993  16.168  14.372  0.1523 -0.0162  0.2292
27595W        W43064   2.339   0.600   2.468 -0.1091 -0.0020 -0.1920
27596W        W43065   0.850  10.328   3.854 -0.0031  0.3179  0.1467
27597W        W43066  13.236  10.249   3.152  0.2406 -0.4314  0.0482
27598W        W43067  15.668  14.256   1.578  0.0774 -0.5104 -0.1916
27599W        W43068   3.432   2.888  12.395 -0.3803 -0.1489 -0.1439
27600W        W43069   4.775   5.694   2.521 -0.0338  0.0409 -0.2190
27601W        W43070   1.427  15.744  15.877 -0.0665 -0.0728 -0.1155
27602W        W43071   4.820   7.358  11.750 -0.0012  0.1755 -0.1733
27603W        W43072   4.108  12.317   1.706 -0.0123 -0.1912 -0.0262
27604W        W43073   8.891  15.427  11.459  0.0539 -0.1227  0.1282
27605W        W43074  11.160   7.268  10.897  0.3401  0.0472 -0.1485
27606W        W43075  13.868   5.341   3.597  0.0566  0.0667 -0.0951
27607W        W43076  12.207   1.497  12.061 -0.0036  0.1066 -0.0609
27608W        W43077   1.169   5.900   2.161  0.0459 -0.0707  0.0000
27609W        W43078   8.376   7.455  14.473 -0.0371  0.1612  0.1735
27610W        W43079  12.339   1.955   4.256 -0.0229  0.3841 -0.2048
27611W        W43080   6.044   0.597  14.417  0.0749 -0.1210  0.1371
27612W        W43081   3.566   2.148   3.975 -0.1560  0.0715  0.0579
27613W        W43082   4.191  10.321   3.662 -0.3201 -0.3057  0.0640
27614W        W43083  18.038  10.951   3.860  0.1355 -0.0398 -0.0071
27615W        W43084  15.545   3.289  13.667  0.0339  0.0038  0.0241
27616W        W43085   7.584   2.430  11.737 -0.1519  0.2161 -0.1330
27617W        W43086  17.960  16.732   0.021 -0.0817 -0.1645  0.0374
27618W        W43087   9.875  16.949  15.349  0.1867 -0.2707  0.1272
27619W        W43088   3.949   5.431  14.722  0.2638  0.0996 -0.0352
27620W        W43089   0.002   4.236  14.815 -0.0162 -0.1479 -0.2861
27621W        W43090   0.071  13.036  12.205 -0.0264 -0.1512  0.1841
27622W        W43091  15.058  13.453   1.905  0.1932  0.0116 -0.2000
27623W        W43092   4.772   6.048  11.234 -0.0431 -0.2456  0.5238
27624W        W43093   3.055   0.954  14.175  0.0848  0.0641 -0.1473
27625W        W43094   6.189  14.067   2.338 -0.3097  0.1367  0.2489
27626W        W43095   7.836   5.528  12.735  0.0774  0.2598 -0.0930
27627W        W43096  16.406  17.400   4.175  0.1131 -0.2032  0.3418
27628W        W43097  12.510   6.088   0.184 -0.3116 -0.0541  0.0080
27629W        W43098  11.317   6.061  12.998 -0.1857 -0.0034  0.1100
27630W        W43099   5.975  15.713  10.272  0.2543  0.2275 -0.2709
27631W        W43100   0.411   7.105   3.404 -0.0197  0.4300 -0.4571
27632W        W43101   8.159  13.228   9.739  0.0608  0.1608 -0.1785
27633W        W43102  17.812  12.103  13.993 -0.0229  0.0903  0.0623
27634W        W43103  17.936   0.076  15.469 -0.4181 -0.0446  0.3943
27635W        W43104  10.400  10.637  15.719 -0.0017 -0.1294 -0.2818
27636W        W43105  14.713   4.550  12.373  0.0336  0.0298 -0.3741
27637W        W43106  11.872  13.837  14.042  0.4779  0.0290 -0.2899
27638W        W43107  14.267  17.514  14.366 -0.1225  0.1604 -0.0139
27639W        W43108  17.546   9.836  14.377  0.0526  0.3002 -0.1489
27640W        W43109   9.581  17.270  13.101 -0.1786  0.2503 -0.4298
27641W        W43110   2.603  16.098   5.204 -0.2051 -0.0605 -0.1069
27642W        W43111   3.118   9.876   1.457 -0.0792  0.3191 -0.0789
27643W        W43112  10.213   0.686   2.786  0.2908 -0.2444  0.0418
27644W        W43113  13.282  17.987  11.318  0.5517  0.3364  0.3098
27645W        W43114  16.030   3.766   3.521  0.3316 -0.0383 -0.0338
27646W        W43115  12.404   6.337  11.866 -0.0321 -0.0829 -0.0058
27647W        W43116  17.303   5.264  11.640  0.1152  0.0853 -0.4462
27648W        W43117   9.465  18.249  12.396  0.0694  0.1046 -0.1412
27649W        W43118   1.744  12.817   1.045 -0.2706 -0.0217  0.0672
27650W        W43119  18.404  14.512  13.677 -0.3015  0.4403  0.0744
27651W        W43120   8.043   4.645   3.240 -0.3547 -0.0222 -0.1571
27652W        W43121   2.153  17.913  13.839 -0.1082  0.1885  0.1269
27653W        W43122  14.322  17.451  15.271  0.4610 -0.2215  0.0206
27654W        W43123  18.018   2.958  14.148 -0.0599  0.1947 -0.1631
27655W        W43124  13.988  15.860   1.399  0.2495 -0.0153 -0.0124
27656W        W43125  14.286  15.025   0.693  0.1085 -0.2053 -0.1363
27657W        W43126   1.347  13.637  12.134  0.0886 -0.0072 -0.1148
27658W        W43127  14.189   8.383   3.120 -0.1038  0.0785  0.1530
27659W        W43128  10.933   1.029  14.747 -0.1038 -0.2084  0.1099
27660W        W43129   9.987   4.508   4.019 -0.0086  0.4694  0.0150
27661W        W43130  16.228   0.338  15.864  0.1828  0.1589 -0.0275
27662W        W43131  13.957  14.880   1.077  0.0449  0.0648 -0.0511
27663W        W43132  14.567  13.067  14.053  0.0103  0.0922  0.1159
27664W        W43133   3.648   0.118  13.446 -0.0550  0.1964 -0.2548
27665W        W43134  13.990   6.546   1.804  0.1444  0.0122 -0.0898
27666W        W43135  16.772  10.969   3.796 -0.2252  0.3567 -0.1293
27667W        W43136  15.193   3.521  10.929 -0.2643 -0.2135  0.1742
27668W        W43137  17.518  14.881   3.138 -0.0002 -0.0096 -0.1570
27669W        W43138   8.910   3.118  11.807 -0.0558  0.3842  0.1215
27670W        W43139   1.242   0.005   3.949  0.0969 -0.2899  0.2185
27671W        W43140   7.873  12.918   0.687 -0.0721  0.1720  0.0542
27672W        W43141  10.133   8.119  13.147  0.2425  0.0451  0.1944
27673W        W43142  15.252  12.148  10.295  0.2675 -0.0836  0.1594
27674W        W43143   1.470  11.883  11.489  0.0603  0.1146  0.1329
27675W        W43144   0.306  15.655  15.348 -0.2073  0.3289  0.0646
27676W        W43145   6.976   7.373  12.404  0.2257  0.2790  0.0482
27677W        W43146  10.613  12.841  13.768 -0.0454  0.0214 -0.0365
27678W        W43147   9.922   8.309   3.588 -0.1037  0.2475  0.4843
27679W        W43148   5.455  18.027  14.312 -0.0172  0.1182  0.2460
27680W        W43149   2.101   5.086   2.707 -0.0278 -0.2990 -0.0302
27681W        W43150   5.717   7.093   3.670 -0.0089 -0.1586  0.1449
27682W        W43151   4.633  15.599  13.017 -0.0605 -0.0650  0.0218
27683W        W43152   3.157  12.572   3.557  0.0987  0.1558  0.0867
27684W        W43153   7.578   1.626  15.417  0.0298 -0.1876  0.2699
27685W        W43154   0.732   4.941   4.627 -0.0989 -0.1912  0.0419
27686W        W43155   6.334  12.899   4.456 -0.3796 -0.3616  0.0573
27687W        W43156   1.628  13.149   1.901 -0.2825  0.2267 -0.1802
27688W        W43157   3.127  16.952  11.968  0.1287  0.1615 -0.1765
27689W        W43158  17.251  14.012   4.202 -0.1939  0.0148 -0.0437
27690W        W43159   7.418  12.877  15.537 -0.4537 -0.2244 -0.2628
27691W        W43160  16.714   2.174  11.149  0.0566 -0.1784  0.0800
27692W        W43161  16.371  13.346  13.972 -0.0419  0.0929  0.1037
27693W        W43162   0.410  18.213   3.517 -0.0960 -0.2648 -0.0841
27694W        W43163   9.093   8.166   1.646 -0.3723 -0.2037  0.2733
27695W        W43164  12.580  17.859   3.063  0.1984  0.2960  0.1552
27696W        W43165  17.413   6.818  13.397  0.0197 -0.1234  0.0728
27697W        W43166  10.910  12.153  10.082 -0.0347  0.4058  0.0313
27698W        W43167  17.202   8.523   3.358 -0.1461 -0.2225 -0.2267
27699W        W43168  16.835   9.037  15.582  0.1521 -0.2609  0.1851
27700W        W43169  11.811  12.531  10.927  0.2149  0.0564  0.3377
27701W        W43170   1.026  12.748   3.782  0.4720 -0.0486 -0.1295
27702W        W43171   2.423  13.008   0.074 -0.0900  0.1064 -0.0536
27703W        W43172   7.227  17.091  11.476 -0.1204  0.2207  0.1423
27704W        W43173   9.559   2.778  15.426  0.0070 -0.0661 -0.2100
27705W        W43174  15.660  14.739  14.854 -0.2075 -0.0121 -0.1846
27706W        W43175  15.983  17.382  11.431 -0.0233 -0.0755  0.1781
27707W        W43176  11.188   3.751  12.498 -0.0568 -0.0854  0.2739
27708W        W43177  18.375   3.994  15.293 -0.1507  0.1394 -0.1527
27709W        W43178   7.001   8.610  15.963 -0.4529 -0.0273  0.2308
27710W        W43179   0.857   9.834   2.763  0.1444 -0.0554  0.1571
27711W        W43180  16.443   9.646  12.688 -0.0156 -0.1424  0.1775
27712W        W43181  13.258   4.307  15.532  0.0250 -0.2256  0.0090
27713W        W43182  16.711   0.908   0.252 -0.1495  0.0513  0.0726
27714W        W43183  15.083   1.621   4.556  0.5218 -0.0195  0.0526
27715W        W43184  11.379   7.632   4.970 -0.2553 -0.1915  0.2206
27716W        W43185  14.525   8.967   2.174 -0.4980  0.0957 -0.0775
27717W        W43186  16.300  15.679   9.636 -0.1050  0.2578  0.2263
27718W        W43187   9.356  16.873  15.444 -0.1370 -0.1930  0.0947
27719W        W43188   3.184  18.035   0.337  0.0487 -0.2810 -0.0517
27720W        W43189  14.721   9.331   0.670 -0.4772 -0.1511  0.0654
27721W        W43190   9.502  12.873  11.975  0.5028  0.0379 -0.2130
27722W        W43191   8.838   6.680  14.883  0.3309  0.4296 -0.2963
27723W        W43192  11.040   2.032  12.527 -0.2374  0.2960 -0.3352
27724W        W43193   3.563   0.557   0.544 -0.0687  0.1400  0.2886
27725W        W43194   8.260   6.113   4.487  0.3754  0.1364  0.0583
27726W        W43195   9.212  11.308   1.770  0.1211 -0.0713 -0.1475
27727W        W43196  11.857   3.256   0.016  0.1327  0.1068 -0.1080
27728W        W43197  13.326   8.133  12.998  0.1786 -0.2199 -0.4205
27729W        W43198   6.147   7.368   4.139 -0.0091  0.3185  0.0435
27730W        W43199   3.147  13.213  13.531 -0.1184 -0.0303 -0.0193
27731W        W43200  11.307  10.589  11.170  0.0856 -0.1038  0.1935
27732W        W43201   3.716  12.904   5.044  0.1957 -0.1761  0.4080
27733W        W43202   4.968  13.958   5.222  0.2926  0.0767  0.1902
27734W        W43203   3.183  15.300  15.235  0.1266 -0.3701  0.1905
27735W        W43204   8.383  17.543   3.470 -0.0876 -0.1490 -0.0607
27736W        W43205   6.613  14.121  10.260 -0.2804  0.1376  0.0744
27737W        W43206   0.314  10.320   3.760 -0.1399  0.1282 -0.0263
27738W        W43207  15.674   7.834  14.640  0.3382 -0.1985  0.5184
27739W        W43208   6.308   7.088   5.877  0.0979 -0.1308 -0.1882
27740W        W43209   8.191   1.932   2.090 -0.1450  0.1478  0.2961
27741W        W43210  13.687   9.309   3.209 -0.1172 -0.0185  0.1983
27742W        W43211  12.908  14.054   2.379  0.1127 -0.4059  0.1614
27743W        W43212   4.018  11.728   4.821  0.0594 -0.1603 -0.2053
27744W        W43213  11.248  14.444  11.612 -0.3320  0.2420  0.0656
27745W        W43214   5.802  16.008   1.247 -0.1842  0.1068 -0.1849
27746W        W43215   6.451  10.761   1.546 -0.0607 -0.2232 -0.0797
27747W        W43216  11.367   3.213   1.585 -0.0383 -0.0477  0.0001
27748W        W43217   1.690   9.096   0.021  0.2735 -0.2072 -0.1740
27749W        W43218   0.075   8.642  15.485 -0.1912  0.1642 -0.0131
27750W        W43219   0.941   6.595   0.914 -0.2085 -0.0695 -0.3414
27751W        W43220  15.537  15.827   2.596 -0.3476  0.1017  0.0711
27752W        W43221  11.192   7.723  13.822 -0.1064 -0.1964 -0.2188
27753W        W43222  17.127   3.552   2.042 -0.3935  0.0378 -0.2865
27754W        W43223  10.656  18.197   3.831 -0.3833 -0.2210  0.1395
27755W        W43224   0.921  10.774  13.472 -0.5405 -0.1689 -0.1067
27756W        W43225  13.222   0.275  12.789  0.0106  0.0678 -0.0927
27757W        W43226   0.479   1.113   1.857  0.2431 -0.0112 -0.1246
27758W        W43227   4.111   1.870   3.717 -0.1635 -0.0793  0.3016
27759W        W43228   5.107  10.917  15.304  0.0925  0.1754 -0.0017
27760W        W43229  10.959  14.023  14.245 -0.0544 -0.3488 -0.5341
27761W        W43230   7.819  12.356  10.632  0.0761  0.1017  0.0025
27762W        W43231   8.262  17.393  12.576 -0.1833  0.0728  0.0811
27763W        W43232  12.908   1.298  12.745 -0.1985  0.1873 -0.1143
27764W        W43233   6.700   6.872  14.026  0.0033 -0.0295  0.0445
27765W        W43234   6.221  17.158  11.681  0.1390 -0.0491  0.2001
27766W        W43235  15.124   3.968  14.968  0.3131 -0.1755  0.0767
27767W        W43236  10.450   5.034   5.609  0.0190  0.0753 -0.5642
27768W        W43237   8.991   2.140   4.496 -0.0730  0.2147 -0.0754
27769W        W43238  15.300  15.405   2.499  0.0754 -0.0933  0.1337
27770W        W43239  16.260  16.117   1.111 -0.2115  0.2801 -0.3077
27771W        W43240  11.671  17.646   3.349 -0.1889  0.0265 -0.1456
27772W        W43241   7.739   1.653   4.537 -0.0317  0.1129 -0.0105
27773W        W43242  13.784   7.757  11.764 -0.0209  0.0974 -0.2664
27774W        W43243  15.541  10.127   5.484 -0.0819  0.0757 -0.1093
27775W        W43244  15.146  10.864  13.089  0.0831 -0.0121 -0.0381
27776W        W43245  12.176   9.819   5.260 -0.1196 -0.0359  0.1813
27777W        W43246   5.457   1.374   0.367 -0.0239 -0.2074  0.0042
27778W        W43247  17.839   4.821  14.938 -0.1149  0.3933 -0.1072
27779W        W43248   9.423   6.860   5.970  0.0603 -0.2851  0.2861
27780W        W43249   9.261   0.040  10.486  0.1281 -0.1197 -0.1166
27781W        W43250   1.774   2.414  13.911 -0.2545 -0.1309  0.1335
27782W        W43251   4.843   7.987  10.528 -0.0096 -0.1318 -0.1175
27783W        W43252   8.674   8.440   3.687 -0.0350 -0.1758 -0.1240
27784W        W43253   8.301   0.604   2.474 -0.0900  0.0092 -0.2298
27785W        W43254   2.589  14.702   2.497 -0.2160 -0.0789  0.1197
27786W        W43255   1.926  14.894   3.605 -0.0848 -0.1309 -0.2199
27787W        W43256   9.370   2.565   4.335  0.2588 -0.4984  0.2851
27788W        W43257   9.771   8.335  13.918  0.1597 -0.1172  0.2510
27789W        W43258   4.241   5.489  14.013  0.2984  0.0153  0.1174
27790W        W43259  10.669   4.720  14.064 -0.0797  0.0002 -0.2217
27791W        W43260  14.194  14.460   1.393  0.0600 -0.3133  0.0769
27792W        W43261  11.777  17.251  15.443 -0.1179  0.0830 -0.2127
27793W        W43262   8.312  12.963   2.741  0.1051  0.0087  0.1076
27794W        W43263  11.586  14.628  13.711  0.2418 -0.0261  0.0970
27795W        W43264   1.460   6.551  15.602  0.0667 -0.3013 -0.1014
27796W        W43265   3.476   1.303  12.867 -0.0944  0.1619  0.0110
27797W        W43266   0.520   2.243   4.229 -0.1416 -0.1790  0.0520
27798W        W43267  15.678  11.961   4.248  0.1151 -0.1724 -0.0219
27799W        W43268  17.846   5.725  14.966  0.0877  0.0161 -0.0877
27800W        W43269   1.812   1.684   0.628 -0.2331 -0.0268  0.0473
27801W        W43270   3.360  14.528   3.653  0.0342 -0.3899  0.2807
27802W        W43271  11.109  17.885  14.311 -0.0170 -0.3319 -0.0546
27803W        W43272   3.189   4.523   4.469 -0.3153 -0.2158 -0.2192
27804W        W43273  14.489  10.250   3.603  0.0485  0.0564  0.1656
27805W        W43274   2.847   8.062  14.008 -0.4128 -0.2542  0.1021
27806W        W43275  11.253   9.070   4.488 -0.0297 -0.1726  0.2036
27807W        W43276   3.280   2.488   4.686 -0.0492  0.1764  0.0512
27808W        W43277   6.168  14.359   4.571 -0.1436  0.0450 -0.0193
27809W        W43278  14.980  17.300  12.623  0.3710 -0.2094  0.0073
27810W        W43279   9.702  15.599  14.288  0.4229 -0.0185  0.0116
27811W        W43280   8.440   2.324   5.081 -0.1356  0.2832 -0.2023
27812W        W43281  18.172   6.398  14.394 -0.1783  0.1369  0.1913
27813W        W43282  17.862   1.042  11.029  0.0625 -0.1482 -0.0043
27814W        W43283  14.543   7.100  11.185  0.1323  0.2665  0.0525
27815W        W43284   5.311  14.887   1.631 -0.3467 -0.2280 -0.1601
27816W        W43285  16.520  10.735   0.022 -0.0831 -0.0170 -0.0658
27817W        W43286  15.043   0.424  12.595 -0.2989 -0.1760 -0.0782
27818W        W43287  12.636   5.296  12.888 -0.1339 -0.1906 -0.0621
27819W        W43288   4.393   9.106   2.363  0.0978 -0.1953 -0.2360
27820W        W43289   9.558  13.113   3.021  0.2118  0.4332  0.0679
27821W        W43290   6.218   0.721  15.622  0.0381 -0.1453  0.3135
27822W        W43291   0.106  12.813  13.732  0.3382 -0.3679  0.0868
27823W        W43292  16.768   3.634  15.844 -0.0385  0.3544 -0.2281
27824W        W43293   1.816   1.235   3.460  0.0255 -0.1665 -0.1768
27825W        W43294   1.856   5.983   0.818  0.0150 -0.2065  0.2223
27826W        W43295   9.976   0.355  13.030  0.0697  0.0386  0.0352
27827W        W43296  12.693   6.203  13.258 -0.4218  0.0879 -0.1747
27828W        W43297  18.309  16.306  12.027 -0.0922 -0.1067  0.1529
27829W        W43298   3.665  16.427   4.362 -0.2894 -0.0836  0.1063
27830W        W43299  12.738  12.245  12.933  0.0107 -0.1784  0.3760
27831W        W43300   4.501  13.869   4.160 -0.1036  0.2049 -0.0995
27832W        W43301   5.279  17.075  12.330  0.1680 -0.1735  0.0772
27833W        W43302   8.307  15.030   4.134 -0.2875  0.0342  0.5862
27834W        W43303   2.555   9.307   2.537  0.0359 -0.0018 -0.1083
27835W        W43304   1.417  12.411   2.548 -0.1165 -0.2599 -0.1695
27836W        W43305   2.932  15.512   6.196 -0.2412 -0.4012  0.1170
27837W        W43306  12.846  13.423   5.894 -0.1332 -0.2108  0.1882
27838W        W43307  10.440   0.154  11.805  0.1835  0.3297 -0.1393
27839W        W43308   4.241   5.194  13.223 -0.1881 -0.0400 -0.1309
27840W        W43309   9.872  16.823   3.045  0.0956  0.1913  0.3966
27841W        W43310   2.375   1.708  15.855  0.1454 -0.4015  0.3919
27842W        W43311  16.784  13.294  14.259 -0.0956  0.3037 -0.0143
27843W        W43312  13.172  10.384   0.614 -0.0263 -0.0695 -0.2011
27844W        W43313  11.003  15.471  12.607 -0.3780  0.0643  0.0700
27845W        W43314  16.172  12.066  15.691  0.2532  0.1505 -0.1989
27846W        W43315   8.529  14.029   3.957 -0.1684 -0.0706  0.0321
27847W        W43316  12.378  11.689   1.912  0.3835 -0.3028  0.0130
27848W        W43317  10.273  11.644   5.047 -0.0116  0.1837 -0.0152
27849W        W43318  11.340   4.910  14.596 -0.0702 -0.0207 -0.0377
27850W        W43319  10.537   0.093  12.891  0.1906 -0.1424 -0.1729
27851W        W43320   8.299   6.931   4.831 -0.1457 -0.0908  0.2454
27852W        W43321   4.531  17.429   4.955  0.2495 -0.0461  0.0799
27853W        W43322  11.146  17.063   0.670  0.0023 -0.4283 -0.2819
27854W        W43323   1.712   2.313   2.586  0.0039  0.3772 -0.0533
27855W        W43324   5.176   9.250  12.908 -0.0587  0.1601  0.0359
27856W        W43325  15.504   3.556   3.514  0.2629 -0.0219  0.0297
27857W        W43326   6.614  13.916   0.993  0.2442 -0.1157 -0.0259
27858W        W43327  17.441   9.259  13.481 -0.0837 -0.1454  0.1835
27859W        W43328   5.957  15.514   9.825 -0.2566 -0.0318  0.2361
27860W        W43329   1.708  12.104  12.841 -0.0358  0.1052  0.0214
27861W        W43330  16.131   1.374   1.417  0.0257  0.1573 -0.0427
27862W        W43331   9.350  15.119  12.189  0.0854 -0.1202  0.0961
27863W        W43332  11.273   5.276   4.647 -0.4707 -0.1011 -0.2804
27864W        W43333   4.996  17.487   3.198 -0.0763 -0.0286  0.2186
27865W        W43334   9.409   9.638  11.398  0.1640  0.1492  0.1181
27866W        W43335  14.597   7.605   5.649  0.2780  0.1982 -0.0702
27867W        W43336  18.152   3.326   0.011 -0.1364 -0.1313 -0.1165
27868W        W43337   7.601  16.977   2.231  0.0722 -0.1288 -0.2088
27869W        W43338   4.107   6.995   5.293  0.0078  0.1123 -0.0287
27870W        W43339   9.467   9.339   4.853 -0.0885 -0.2848 -0.2881
27871W        W43340  15.139  17.048  14.749 -0.0988  0.4278  0.4998
27872W        W43341   7.777   1.419  10.857  0.2137 -0.0158 -0.3028
27873W        W43342  11.028   5.795   3.912  0.0931 -0.1858 -0.0051
27874W        W43343   9.076  10.652  11.255  0.3060 -0.0997  0.0307
27875W        W43344   9.271   4.238  11.213 -0.0298 -0.1054 -0.1711
27876W        W43345   8.368   8.274   4.080 -0.0127  0.0355  0.0503
27877W        W43346  14.420  16.136   0.736 -0.2914 -0.1234 -0.0528
27878W        W43347   0.414   6.987   2.267  0.1789  0.0526  0.0147
27879W        W43348  12.689   9.139  15.749 -0.1648 -0.0818 -0.0121
27880W        W43349  18.060   4.812   4.564  0.0302 -0.1310 -0.2231
27881W        W43350  12.847   5.522   6.057 -0.0614  0.0291  0.0456
27882W        W43351   7.464  15.396  11.116  0.2579 -0.0155 -0.1926
27883W        W43352   5.452   9.418   3.638  0.2529  0.0185  0.0619
27884W        W43353  11.539   7.685  14.402  0.1243 -0.1978  0.2963
27885W        W43354   7.206   2.288   1.147  0.1755  0.1199  0.2314
27886W        W43355   8.854  11.401   5.493 -0.2115  0.1391 -0.0148
27887W        W43356  13.821  18.003   3.069  0.2002  0.2089 -0.0410
27888W        W43357  18.221  17.852  11.278 -0.2216 -0.1168 -0.0924
27889W        W43358   7.987   9.235   3.878  0.1576 -0.5669 -0.4458
27890W        W43359   4.578   2.732   4.853  0.2366  0.0862 -0.3217
27891W        W43360   2.369   9.416  14.446 -0.0845 -0.0919 -0.0328
27892W        W43361  16.634   7.452   4.960  0.0702 -0.2672  0.5346
27893W        W43362   5.118   9.125   2.920 -0.1556  0.2148 -0.1898
27894W        W43363  10.688   3.949  12.576 -0.1829 -0.1528 -0.0318
27895W        W43364   4.678   3.921  13.123  0.1502  0.0194 -0.2036
27896W        W43365   3.910  12.851  10.880 -0.0979  0.0097  0.0458
27897W        W43366  13.382   4.872   4.948 -0.1286 -0.1870 -0.0259
27898W        W43367   2.335   7.235   4.299 -0.3663 -0.0488  0.1436
27899W        W43368   1.242   0.889  10.789 -0.0328 -0.1760  0.1494
27900W        W43369   4.155  11.925  15.530  0.1083 -0.4068 -0.1008
27901W        W43370  11.090  16.865  12.124  0.0123 -0.2938  0.1274
27902W        W43371  13.749   0.831  15.509 -0.2853  0.3262  0.1188
27903W        W43372   5.668  11.975   1.083  0.3353  0.3875  0.0707
27904W        W43373  16.392   1.556   3.182  0.0162 -0.0435  0.3209
27905W        W43374  12.150  15.040   0.154 -0.0439 -0.1301 -0.2452
27906W        W43375  11.853   2.689  15.060 -0.2366  0.1408 -0.3076
27907W        W43376   9.128  12.424   0.738  0.0554  0.0519  0.2726
27908W        W43377  16.473   1.379   0.070  0.1506  0.1157 -0.0949
27909W        W43378   6.994  15.250  13.519  0.1537 -0.0158  0.3047
27910W        W43379   8.674   8.508   5.055  0.1612 -0.0570 -0.2726
27911W        W43380   0.957   2.842  11.296  0.0763 -0.1280 -0.1313
27912W        W43381  17.570   6.545  11.525  0.0381  0.0685  0.3278
27913W        W43382   4.146   8.056   5.641 -0.0109  0.1400  0.1399
27914W        W43383  16.037   9.429   2.864 -0.0015 -0.4648 -0.0121
27915W        W43384  17.154  13.798   5.142  0.1355 -0.2286 -0.0214
27916W        W43385  10.396   3.247   5.439  0.0031  0.1130  0.0125
27917W        W43386   6.971  15.517   1.613 -0.0281 -0.0665 -0.0987
27918W        W43387   3.712   7.935  11.350  0.2664 -0.2824  0.2327
27919W        W43388   1.511  12.205   0.390 -0.5059 -0.0835  0.3490
27920W        W43389  13.770   0.453  12.103  0.1023 -0.0142  0.0269
27921W        W43390   6.775  17.302  15.285 -0.1781 -0.1488  0.2086
27922W        W43391   2.412   7.539  13.698  0.2838 -0.2519  0.1296
27923W        W43392  13.268  13.010   4.382  0.3994  0.2442 -0.0456
27924W        W43393  15.695   8.152   6.303  0.3691 -0.0389  0.1607
27925W        W43394   4.790   8.458  12.837  0.0243  0.0863  0.3829
27926W        W43395  10.512   3.150  16.017  0.1775  0.1244  0.1822
27927W        W43396   0.977  14.248   0.410  0.3793 -0.2132  0.1353
27928W        W43397   9.022   5.777   3.786  0.2278 -0.0379  0.0029
27929W        W43398  10.481   7.382   3.387 -0.2921 -0.1552 -0.1956
27930W        W43399   5.439   1.797   2.675  0.0749  0.1237  0.1099
27931W        W43400  12.451  18.204  14.762 -0.0511 -0.2253  0.2212
27932W        W43401   7.941   7.745   2.907  0.1441  0.0503  0.2092
27933W        W43402  16.495  10.065  15.318 -0.0115  0.1713  0.2192
27934W        W43403   0.418   7.476   1.739 -0.2675 -0.2780 -0.0465
27935W        W43404   9.475   4.739  14.319  0.0075 -0.0222 -0.1884
27936W        W43405   3.734  13.626  12.994 -0.3241 -0.0893  0.2798
27937W        W43406  16.282   2.872   2.449 -0.1068  0.4154 -0.3252
27938W        W43407  11.142  17.824   4.418 -0.0312 -0.1319 -0.1035
27939W        W43408   2.836   2.821   3.439 -0.0501  0.1925 -0.0075
27940W        W43409   8.784   2.439   0.169 -0.1848  0.1087  0.0391
27941W        W43410  12.298   9.087   3.898  0.0611 -0.1337  0.0910
27942W        W43411   5.434  10.261   4.617  0.1066 -0.0300  0.0733
27943W        W43412   4.847  11.137  12.384  0.2297  0.1447 -0.2023
27944W        W43413   9.618   2.669   2.875  0.2734  0.1848  0.1131
27945W        W43414  14.162  11.556   3.930  0.0506  0.3569  0.1670
27946W        W43415  15.442  10.290  14.386  0.0227  0.3004  0.2602
27947W        W43416   3.139  10.322   1.688 -0.1108 -0.1111  0.0434
27948W        W43417  14.103  15.576   4.482  0.0575 -0.4728 -0.2007
27949W        W43418   1.758  10.682  13.265  0.0224  0.3835 -0.0870
27950W        W43419   7.674   1.389   0.262 -0.2270  0.1118  0.0959
27951W        W43420   5.333   0.742  15.160  0.2468 -0.3246  0.1343
27952W        W43421  10.914  16.463   2.632 -0.1414 -0.1346 -0.2143
27953W        W43422  16.100  10.426   3.223  0.0139  0.1198  0.3111
27954W        W43423  10.979  13.009  13.366  0.0009 -0.1812 -0.1008
27955W        W43424   8.675   0.661  14.907 -0.0096  0.4046  0.0590
27956W        W43425  16.113   5.302   1.907  0.1344 -0.1521 -0.0167
27957W        W43426  14.302  13.597   3.125  0.3473  0.2424 -0.1575
27958W        W43427  14.779   3.837  13.453 -0.0772  0.2564 -0.1046
27959W        W43428   2.036  10.383  13.793  0.1484  0.2947 -0.1654
27960W        W43429   4.275   9.518   4.019  0.2382  0.0581  0.2995
27961W        W43430  11.853   0.326  12.506 -0.2628  0.0627  0.1031
27962W        W43431   6.148   0.518  13.659  0.0670  0.0005 -0.0819
27963W        W43432   0.711   9.165   1.874  0.0223 -0.3536 -0.0496
27964W        W43433  10.752  17.574  13.905  0.2205  0.2325  0.2348
27965W        W43434   2.053  15.869  13.060 -0.1102  0.1231 -0.3572
27966W        W43435  11.387   4.812   3.827  0.3907 -0.1943 -0.0590
27967W        W43436  14.558   2.129   3.859  0.0626  0.3057  0.0113
27968W        W43437  10.048   3.712   2.420  0.0543  0.0671 -0.3227
27969W        W43438  16.275  17.611  15.242 -0.1352  0.1994 -0.1974
27970W        W43439  17.517  14.294   3.302  0.0217 -0.0398  0.2051
27971W        W43440  11.533   6.030  11.267 -0.0183 -0.0715 -0.1059
27972W        W43441   7.717   6.210   3.438 -0.1041 -0.1749 -0.6443
27973W        W43442   4.460  10.165   1.382 -0.0613  0.0352 -0.2808
27974W        W43443   5.258   7.482   3.708 -0.1608  0.0359  0.2027
27975W        W43444   1.510  14.669   3.338 -0.1235  0.2489  0.2721
27976W        W43445  13.509  17.613   4.812 -0.0043 -0.2199 -0.2203
27977W        W43446   7.976  15.314  10.337  0.1987  0.0188  0.1521
27978W        W43447  14.483  14.424   4.979 -0.1242 -0.0345 -0.0066
27979W        W43448   2.255   0.944   4.330 -0.0271 -0.0683  0.2378
27980W        W43449  17.693  13.223   1.518 -0.1868  0.2061  0.0886
27981W        W43450   3.929  17.793  15.638 -0.3034 -0.0467 -0.2712
27982W        W43451  13.547   5.251  11.420 -0.1368  0.2315  0.2891
27983W        W43452   5.831   3.911   1.543  0.0783 -0.2510 -0.0764
27984W        W43453   9.857   0.032   0.576 -0.1424 -0.3581  0.2500
27985W        W43454   9.313  10.306   3.463 -0.2623  0.0864 -0.5985
27986W        W43455  11.482  11.507   2.030 -0.1730 -0.1004 -0.0988
27987W        W43456   8.202  18.264  11.365  0.3023 -0.1285 -0.0688
27988W        W43457   6.726  16.148  14.034  0.0557  0.0066  0.1489
27989W        W43458  17.755   8.410   1.488  0.0519 -0.2795  0.1582
27990W        W43459   9.471  12.790  10.776 -0.1964 -0.1199 -0.0188
27991W        W43460  14.189   7.881  11.327  0.1549 -0.1272  0.2146
27992W        W43461  15.469  12.753  10.644  0.2903  0.1622  0.1463
27993W        W43462  10.924   5.547   4.406  0.0105  0.2479 -0.0661
27994W        W43463  14.958   2.947  11.105 -0.1485  0.1591 -0.0972
27995W        W43464  12.665  18.343   2.871 -0.0627 -0.0496  0.2930
27996W        W43465   5.524  13.797  12.742  0.2207  0.1227 -0.5757
27997W        W43466   3.262   7.194  13.490 -0.1327  0.0363  0.4590
27998W        W43467   8.402   8.088   3.056  0.2748 -0.0929 -0.2436
27999W        W43468   4.743  16.362  10.763  0.2666 -0.0769 -0.1161
28000W        W43469  15.750  11.241   1.153  0.0825 -0.0449 -0.2402
28001W        W43470   7.641  15.070  15.838 -0.0323  0.0137  0.1037
28002W        W43471   0.260   0.663   3.278  0.0419  0.2189 -0.2447
28003W        W43472  12.108  10.504   3.846 -0.1670 -0.2132 -0.0103
28004W        W43473  12.898  11.053  15.289 -0.2940 -0.0880 -0.1533
28005W        W43474   3.265  11.179   5.069 -0.0094  0.0488 -0.1765
28006W        W43475  17.557   1.932   4.047  0.3133 -0.0356  0.0940
28007W        W43476   2.211  11.891   0.004  0.1800  0.1656  0.1347
28008W        W43477   6.441   2.559  14.169  0.0141  0.0966  0.1433
28009W        W43478   5.616  15.348  11.539 -0.3037  0.0099 -0.3299
28010W        W43479  14.810  16.925   1.019  0.0007 -0.0888 -0.2259
28011W        W43480  12.114  17.126   4.861  0.0818  0.2234 -0.0220
28012W        W43481   6.300   8.196   4.778  0.0242  0.0628  0.0620
28013W        W43482  17.152   6.168   1.864  0.0196  0.1364 -0.0456
28014W        W43483   9.247  13.722   4.062  0.0562 -0.2231 -0.1668
28015W        W43484  16.197   1.768  15.499  0.2374 -0.3125  0.2536
28016W        W43485   2.155   3.516  12.468 -0.1113  0.0788 -0.2120
28017W        W43486  15.004  13.586  16.003  0.3116  0.3111  0.1388
28018W        W43487   3.573  12.112  13.882 -0.1509  0.0754  0.1205
28019W        W43488  16.706  11.140   2.952  0.0035 -0.0529  0.0362
28020W        W43489   2.579  10.632  11.952 -0.0287 -0.0530  0.0814
28021W        W43490   5.423  15.855  11.840 -0.3436 -0.0267 -0.1182
28022W        W43491   3.566   6.461   4.833 -0.0247 -0.5279  0.1456
28023W        W43492  17.058  18.219   5.607  0.0232 -0.0653 -0.0648
28024W        W43493   3.809   3.974   3.369 -0.1885  0.2631  0.0119
28025W        W43494  11.745   9.726   0.534 -0.0618 -0.2761 -0.1131
28026W        W43495   3.645  14.039   4.939  0.1449  0.1444  0.1556
28027W        W43496  11.442   5.720  11.651  0.1608 -0.2799 -0.0481
28028W        W43497  17.502  16.464   0.957  0.1703  0.1713 -0.0545
28029W        W43498  13.323   9.422   2.855  0.3412 -0.1985  0.1917
28030W        W43499   4.715  14.007   4.671  0.2347  0.4700  0.1902
28031W        W43500  15.448   6.785  13.353 -0.1118  0.3506  0.1966
28032W        W43501   1.836   3.027  11.848  0.0004  0.0356  0.1754
28033W        W43502  14.379   0.989   3.256  0.0471 -0.0620  0.2099
28034W        W43503   3.133   8.334  15.004 -0.0093  0.1197  0.1755
28035W        W43504   3.917  15.731   0.770 -0.2355  0.0250 -0.0643
28036W        W43505   9.541   0.771  10.746 -0.0307 -0.3944 -0.0319
28037W        W43506  13.954  14.300  10.765  0.3251  0.1884  0.3141
28038W        W43507  15.754   7.322   5.357  0.1320  0.0111 -0.2202
28039W        W43508   2.180   2.299  11.968  0.1487  0.2387 -0.1343
28040W        W43509   1.525  13.979  15.564 -0.1398 -0.0808 -0.3604
28041W        W43510  13.332  13.377  10.508  0.2024  0.1413  0.6193
28042W        W43511   6.489  10.479   2.673  0.0129  0.1977 -0.4457
28043W        W43512  18.074   7.225  11.240 -0.1069 -0.3754  0.0013
28044W        W43513   9.986   3.172  13.365  0.1453  0.0523  0.3089
28045W        W43514   5.481   3.672   5.403 -0.4523  0.0116  0.0866
28046W        W43515  13.397   1.034   4.850 -0.0383  0.0058 -0.0940
28047W        W43516   6.187  10.206  14.452  0.1305 -0.1642 -0.2177
28048W        W43517   7.697   8.435   1.722  0.2249  0.1384  0.1071
28049W        W43518   3.056  11.716  13.860 -0.2605 -0.2377  0.2726
28050W        W43519   6.545  16.240   2.011 -0.0034 -0.0073  0.1782
28051W        W43520   8.199   4.598  10.800  0.0018 -0.0644  0.3251
28052W        W43521   2.938  13.212   3.639 -0.1103 -0.2422  0.0685
28053W        W43522   2.200   5.580  13.678 -0.0288 -0.0146  0.1025
28054W        W43523  13.722   8.126   3.511  0.0661  0.1902  0.2851
28055W        W43524   5.092  14.850  12.552  0.1743 -0.1847  0.3926
28056W        W43525   1.222   5.671  14.604 -0.0215  0.0247  0.0492
28057W        W43526   3.690  15.664   2.208 -0.3252  0.1686 -0.0378
28058W        W43527   8.409  13.362   2.348  0.2710  0.1304  0.1944
28059W        W43528  15.001   7.032  13.282  0.0390  0.2362  0.1852
28060W        W43529  11.109   0.371  13.959  0.4749 -0.3462  0.0904
28061W        W43530  10.059  15.840   4.523  0.3081 -0.0399  0.1446
28062W        W43531   0.733  14.275  13.789  0.1861  0.3353 -0.0402
28063W        W43532  12.687  13.349  13.660  0.0509 -0.1794 -0.0223
28064W        W43533  12.803  10.672   5.329  0.1754  0.0132 -0.0936
28065W        W43534   3.491   2.113  11.464  0.0491  0.1334  0.1753
28066W        W43535  11.357   0.065   3.139 -0.1362  0.0019 -0.1232
28067W        W43536  15.030   9.335   2.768  0.3356 -0.4702  0.2921
28068W        W43537  17.870  11.092  13.148  0.4624  0.2444  0.6183
28069W        W43538   1.813   3.723   1.023  0.1827  0.0255  0.1220
28070W        W43539   7.308   1.824  12.297  0.1789  0.2619 -0.0667
28071W        W43540  10.398   2.186  14.555 -0.1584 -0.0874 -0.1442
28072W        W43541  14.606   5.977   4.034  0.0281 -0.0164  0.2495
28073W        W43542   4.080   1.941   5.603  0.1235  0.2828  0.4930
28074W        W43543   6.233  14.619   2.550  0.0340 -0.1083 -0.2242
28075W        W43544  18.456  17.601  12.073 -0.0694  0.1435  0.0790
28076W        W43545  16.213  17.320  15.687  0.0964  0.1354 -0.1966
28077W        W43546  18.043   0.328   4.477  0.2350 -0.0930 -0.0352
28078W        W43547   0.217  11.198  10.707 -0.0982 -0.0381  0.1854
28079W        W43548   0.173   4.519  11.794  0.0467 -0.1792  0.1213
28080W        W43549  10.140   2.992   0.722 -0.0125  0.2604 -0.3076
28081W        W43550  11.143  14.547  15.476  0.0990 -0.0549  0.5240
28082W        W43551   5.900   3.346   3.150 -0.1209 -0.2101 -0.2440
28083W        W43552  14.094   4.660   0.476 -0.5251  0.2404  0.2529
28084W        W43553  15.577   2.812  14.195 -0.2074 -0.1207  0.0147
28085W        W43554  17.893  15.237  12.941 -0.1894 -0.1596 -0.3052
28086W        W43555   2.227  16.437  13.557  0.2452 -0.0433 -0.2188
28087W        W43556   1.476  17.221   2.593  0.1465  0.0558 -0.4701
28088W        W43557  11.655   6.015   0.276  0.3140  0.1159 -0.1554
28089W        W43558   8.995   5.510  15.728 -0.0873 -0.1895 -0.0887
28090W        W43559  13.608  10.827   3.514  0.0332  0.1337 -0.2785
28091W        W43560  18.177   1.588   4.760 -0.0378 -0.0818 -0.2893
28092W        W43561   0.265   0.120  11.712 -0.1222  0.1568  0.1836
28093W        W43562   8.536   6.766  13.483 -0.1549 -0.3197  0.5386
28094W        W43563   7.493   1.293  13.008  0.0533 -0.2513 -0.2777
28095W        W43564   7.388   8.386   4.425 -0.1433 -0.0092 -0.0743
28096W        W43565  12.934   6.271   4.699 -0.0488  0.1308 -0.2681
28097W        W43566   3.592   9.325   5.096 -0.0614  0.2450 -0.2034
28098W        W43567   1.055  15.928   2.530 -0.0420  0.5612  0.0831
28099W        W43568   7.125  13.610   3.819  0.0843 -0.4190 -0.0689
28100W        W43569   1.524  13.571   1.566 -0.1088 -0.3489 -0.1050
28101W        W43570   4.124   5.241   1.059  0.0036  0.0621  0.2339
28102W        W43571   1.209  14.161  11.172 -0.2097 -0.1068  0.0138
28103W        W43572   5.281  14.355  11.186 -0.2263 -0.1364  0.2658
28104W        W43573  14.862   6.863   2.232 -0.1127  0.1756 -0.1354
28105W        W43574  16.407  13.583   3.457  0.1247  0.2201  0.0565
28106W        W43575  13.604   1.406  13.387  0.2070 -0.2034 -0.0464
28107W        W43576   7.290  11.924  15.972 -0.1052 -0.0242  0.1655
28108W        W43577  10.335   5.941  15.198 -0.1354  0.3608 -0.1179
28109W        W43578   6.735  13.310  12.221  0.1378  0.1623  0.0077
28110W        W43579  14.940   3.082  12.503 -0.1957  0.0086 -0.0745
28111W        W43580   6.286  10.244   0.094 -0.1349  0.1123 -0.2639
28112W        W43581   6.162   1.181  14.417 -0.3138 -0.1631  0.3369
28113W        W43582  15.151  13.461   5.503 -0.2020  0.0735 -0.4030
28114W        W43583   6.981   1.254  13.585 -0.0566  0.1417 -0.3158
28115W        W43584   6.560   1.876  13.112  0.2314  0.2051 -0.1776
28116W        W43585   6.462   1.454  10.104 -0.1381  0.1697  0.0070
28117W        W43586  11.159   0.994  13.438  0.2674 -0.6496 -0.0316
28118W        W43587  10.072   6.588  12.447  0.2986 -0.1792 -0.2741
28119W        W43588  14.653  11.728  11.113  0.0656  0.3082 -0.0672
28120W        W43589  11.385   4.247  13.909  0.1079 -0.2942 -0.0405
28121W        W43590  15.810   6.391   5.084  0.1515 -0.1732 -0.1517
28122W        W43591  14.127   8.643  13.456  0.0368 -0.0780  0.1973
28123W        W43592   5.121   9.900   4.712 -0.0113  0.1255  0.0326
28124W        W43593   3.917   1.275  10.348  0.0389 -0.3243 -0.2183
28125W        W43594  15.865  10.915   0.635  0.0452 -0.1843 -0.0692
28126W        W43595   3.143  11.669  15.105 -0.3415 -0.0102 -0.0856
28127W        W43596  17.498   5.528   5.456 -0.0140  0.3495 -0.2793
28128W        W43597  15.802  13.500  12.739 -0.1763  0.0773  0.0671
28129W        W43598   1.687  10.575   1.033  0.0372  0.0603  0.1126
28130W        W43599   4.491  17.257   0.839  0.1643  0.1028 -0.3857
28131W        W43600  12.378   4.954  14.692  0.2667  0.0026 -0.3127
28132W        W43601  10.753  16.196   3.059  0.1130 -0.0713 -0.2694
28133W        W43602  18.171  17.833   0.178 -0.2187  0.2470 -0.0369
28134W        W43603   5.800   3.603  11.770 -0.1298  0.3402 -0.2565
28135W        W43604  17.315   5.949  15.600  0.0286 -0.0901 -0.3170
28136W        W43605  15.900  12.037  12.846  0.0024 -0.3670  0.1312
28137W        W43606   8.080   6.420   2.510 -0.0464 -0.0856  0.0062
28138W        W43607  15.656  10.854   0.053  0.2263  0.0720 -0.0068
28139W        W43608   5.389  17.412  11.038  0.0358 -0.2058  0.2619
28140W        W43609   5.716   6.728   2.934 -0.2299  0.0082  0.3083
28141W        W43610   9.698   4.141  12.528  0.0797  0.0150 -0.0209
28142W        W43611  15.633   6.571  12.608  0.2401  0.3498 -0.0239
28143W        W43612  12.028   4.675   5.278  0.4372 -0.1292 -0.1868
28144W        W43613   3.567  11.182   0.686 -0.2996 -0.2945  0.0009
28145W        W43614   9.109   2.189   1.273  0.0160  0.2550  0.0726
28146W        W43615   6.182  11.206  11.406  0.1422 -0.1017 -0.2260
28147W        W43616  12.776   2.581   2.645  0.5817  0.1639  0.2806
28148W        W43617   1.153  11.190  14.529  0.3049 -0.0495  0.1738
28149W        W43618   1.350  11.662   4.610  0.4314  0.0220 -0.0119
28150W        W43619  12.106   4.475  12.792 -0.0323 -0.2436 -0.0510
28151W        W43620   2.520  10.530   2.715  0.1002 -0.4163 -0.0140
28152W        W43621   6.321   0.229  10.906 -0.0293  0.1638 -0.4760
28153W        W43622  13.325  12.748   0.629  0.0298 -0.0067  0.1477
28154W        W43623  12.479  11.138   3.939  0.1348 -0.1465  0.2861
28155W        W43624   8.913   9.329   3.347 -0.1108  0.2399  0.1431
28156W        W43625   0.358  10.596  14.825  0.2122  0.2454  0.0204
28157W        W43626  17.911   2.025   1.060  0.0955 -0.0633  0.1341
28158W        W43627   0.762   8.228  12.621 -0.0653 -0.1308 -0.2138
28159W        W43628   3.485  14.549   5.012  0.1314 -0.1501  0.1065
28160W        W43629   5.705   5.270   2.861 -0.0842  0.0003  0.1645
28161W        W43630   4.610  11.506   4.257  0.1389  0.0247  0.0337
28162W        W43631  10.691  17.334  15.431  0.1257  0.0004 -0.1737
28163W        W43632  10.688  11.602   4.644  0.0648  0.1445  0.1126
28164W        W43633   3.778  16.853   2.732 -0.4598 -0.4280  0.1551
28165W        W43634  14.351   3.954  11.616  0.1564  0.0135  0.3785
28166W        W43635  12.071  17.476   3.592  0.0702  0.0772 -0.0488
28167W        W43636   9.150  10.180  11.231  0.0535 -0.0299  0.2050
28168W        W43637  11.941  10.812  13.172  0.2443 -0.2979 -0.0651
28169W        W43638  16.437  17.967  12.168  0.4072 -0.1411  0.0242
28170W        W43639  13.699  15.118   0.700  0.2389 -0.0712 -0.1832
28171W        W43640   4.061  18.239   1.748  0.1637 -0.0337  0.2075
28172W        W43641   3.275   2.548   3.370 -0.1277  0.1855  0.0643
28173W        W43642  11.425   4.112   0.937  0.0578 -0.3299  0.2742
28174W        W43643  15.886   1.992  13.735  0.2179 -0.1529  0.0921
28175W        W43644   6.665   8.989  15.474 -0.0711 -0.0421 -0.2416
28176W        W43645   3.537  17.581   3.763  0.2033  0.0020 -0.1866
28177W        W43646   8.207  14.733   3.693 -0.0553  0.1270  0.0446
28178W        W43647  17.719   8.998   5.559 -0.2579  0.2633 -0.0812
28179W        W43648  11.586   8.205   1.395  0.0635 -0.0219 -0.0791
28180W        W43649   3.129   5.001  15.005 -0.0760 -0.5360  0.0815
28181W        W43650  11.451   1.295   0.198  0.1428  0.0655 -0.0433
28182W        W43651  16.452   4.944   4.302  0.4069 -0.0089 -0.0320
28183W        W43652   7.171   8.451  12.223  0.0308  0.0731  0.1720
28184W        W43653  11.507   5.852   5.818 -0.0292 -0.1875  0.3348
28185W        W43654   5.534  14.017   4.173 -0.1553  0.0768  0.1651
28186W        W43655  13.308   3.893   0.594 -0.0931 -0.2608  0.2570
28187W        W43656  18.192  15.693  13.034  0.0063 -0.1078  0.2971
28188W        W43657   9.908  16.339  11.566  0.1812 -0.5334 -0.0062
28189W        W43658  14.517  12.622   2.839 -0.2759 -0.0381 -0.1951
28190W        W43659  11.164   1.381  13.793  0.0039 -0.1645 -0.0455
28191W        W43660   8.529   9.369  13.756  0.0294  0.3246  0.1391
28192W        W43661   7.983   8.150   2.125  0.1711 -0.1538 -0.0094
28193W        W43662  13.262  15.544  15.595 -0.2021  0.2421 -0.0059
28194W        W43663   2.960  16.608   4.082 -0.2671 -0.2428  0.2465
28195W        W43664   2.333   7.241   2.016 -0.0050  0.0876 -0.0495
28196W        W43665  12.638  13.238  14.473 -0.0220 -0.0720 -0.0606
28197W        W43666   9.447   1.037  11.654 -0.1401  0.1168 -0.1018
28198W        W43667  12.120  12.868   0.072  0.3523 -0.1937 -0.1190
28199W        W43668   5.717   4.603  15.971 -0.0330  0.4298 -0.1255
28200W        W43669   8.103   7.496  11.100 -0.2106 -0.2187  0.0459
28201W        W43670  10.451  14.026   3.378  0.0776 -0.2030  0.1353
28202W        W43671   6.171   1.066  15.260 -0.0658 -0.0166  0.3483
28203W        W43672  16.602   1.643   1.512  0.1479  0.2474  0.2021
28204W        W43673   2.400  15.541   1.905  0.0382  0.2035 -0.0779
28205W        W43674   8.348   9.096   4.189  0.0306  0.2012  0.2883
28206W        W43675   2.332   6.371  15.604  0.2653  0.2302  0.1393
28207W        W43676  10.349   7.166   1.232 -0.4104  0.2680 -0.2970
28208W        W43677  14.149   0.027   4.317 -0.1197  0.0075 -0.2521
28209W        W43678  14.123  12.012   2.272  0.0219 -0.1313 -0.0901
28210W        W43679  14.806   4.539  12.936  0.3846 -0.2076 -0.0007
28211W        W43680  11.427   8.165  14.112  0.1832 -0.2347 -0.0725
28212W        W43681   0.844   4.180   3.584  0.1018 -0.2465  0.1194
28213W        W43682  11.953   7.923  11.017  0.1167 -0.3113 -0.2554
28214W        W43683   5.596   3.068  12.377  0.1237  0.4113  0.4374
28215W        W43684  16.544  13.724  11.709 -0.0935 -0.0978  0.3100
28216W        W43685   9.416   6.100  11.964  0.0257  0.0292 -0.0273
28217W        W43686  10.338  12.726  12.288  0.2864  0.0939  0.0128
28218W        W43687  11.784  16.652   0.675 -0.0544 -0.1325 -0.0130
28219W        W43688   0.372   8.223   2.262 -0.0813  0.1824 -0.0432
28220W        W43689  14.284   9.586  14.306  0.1313 -0.0452  0.0441
28221W        W43690  11.171  18.312   1.362 -0.3669 -0.0940  0.1364
28222W        W43691   5.528   1.320  11.788 -0.0131  0.1486 -0.1559
28223W        W43692   6.662   6.483   2.120  0.0042  0.0266 -0.0782
28224W        W43693   6.414   0.235  15.378 -0.1160  0.2715  0.1047
28225W        W43694   1.754   2.005   2.176  0.0441  0.1907 -0.0752
28226W        W43695  15.548   2.477   4.307 -0.0635 -0.2496 -0.0241
28227W        W43696  17.338   4.073   5.284  0.3019  0.1133  0.0739
28228W        W43697  14.518   8.266   4.986 -0.2062  0.4554  0.1444
28229W        W43698  14.364   4.016   2.641 -0.1485  0.3209 -0.3661
28230W        W43699  11.357   6.418  12.657  0.1690  0.0041  0.0664
28231W        W43700  16.768  13.149  15.306 -0.1839  0.2779  0.2328
28232W        W43701  12.490   1.136   5.236 -0.1520 -0.0711  0.0599
28233W        W43702  15.715   9.280   3.600  0.1151 -0.0087 -0.0712
28234W        W43703  10.316   9.025  15.721 -0.0962  0.2035 -0.1689
28235W        W43704  14.348   9.388   9.494 -0.2675  0.0014 -0.0489
28236W        W43705  10.796   8.124   2.418 -0.0298  0.1253  0.0093
28237W        W43706  13.132  12.532  10.798 -0.2632 -0.2079  0.0366
28238W        W43707  14.979  15.896  11.332  0.0051  0.3264  0.2483
28239W        W43708   2.156   0.570  12.287  0.0188  0.0003 -0.0981
28240W        W43709  15.643   6.123   5.930  0.0534 -0.3744 -0.1774
28241W        W43710   9.090  10.294  12.093 -0.0284  0.0406 -0.2728
28242W        W43711  15.774   6.615   2.878  0.1477  0.1952 -0.1689
28243W        W43712   6.715   1.124  15.418  0.2103  0.0045 -0.2839
28244W        W43713   5.342   1.431   3.581  0.0160  0.0603 -0.1838
28245W        W43714   6.846   6.187  10.785 -0.0221  0.0578  0.3326
28246W        W43715  13.497   0.041   0.647 -0.1703 -0.1033  0.3663
28247W        W43716   5.743  10.290  14.726  0.0919 -0.1048  0.1187
28248W        W43717  15.761   9.252   0.463  0.2658  0.1050 -0.0460
28249W        W43718   5.078  11.073   0.211  0.2015 -0.2993  0.3579
28250W        W43719   1.073   8.168   0.976  0.3983 -0.2372 -0.0714
28251W        W43720   9.789  10.318  12.858  0.0412  0.2825 -0.0324
28252W        W43721   4.234  17.488  14.377 -0.0908 -0.1836 -0.3172
28253W        W43722   0.012  14.144  15.613  0.1316 -0.2985  0.0758
28254W        W43723  14.185   7.480   5.239  0.1943  0.2564 -0.0463
28255W        W43724   9.746  12.189  11.426 -0.1940  0.2663  0.0397
28256W        W43725   6.208  17.103  14.164  0.0443  0.1216 -0.0061
28257W        W43726  17.374  13.794  10.766 -0.1147 -0.0079 -0.2115
28258W        W43727  16.053   2.315  12.847  0.0896 -0.0715  0.1105
28259W        W43728  10.444   9.276   3.961  0.1777 -0.0179  0.0005
28260W        W43729  13.062  17.578  15.743 -0.1699 -0.5006  0.3229
28261W        W43730   8.496   4.084  10.688 -0.0225 -0.1389 -0.1086
28262W        W43731  15.530   5.070   1.545 -0.0963 -0.0584 -0.0014
28263W        W43732  15.138   3.597   5.674 -0.2931  0.0849 -0.0644
28264W        W43733   4.473   6.834  10.875 -0.1333  0.0738 -0.0574
28265W        W43734   9.568  16.057  15.387 -0.0342 -0.0331  0.3271
28266W        W43735   3.600   9.526  15.605  0.1177 -0.0777 -0.3275
28267W        W43736  18.393   6.427  15.472  0.2645  0.2987 -0.3962
28268W        W43737   3.176  11.561  11.311 -0.0199 -0.0890  0.3237
28269W        W43738   4.471  16.887  12.217  0.1521 -0.0179 -0.1365
28270W        W43739  11.916   1.006   3.204 -0.0823 -0.0122  0.2823
28271W        W43740  14.174  15.830   4.067 -0.0004 -0.0798  0.0497
28272W        W43741   0.193  11.291   5.219  0.3719  0.2784 -0.3165
28273W        W43742  17.497   3.980   6.355  0.0690  0.3012 -0.0610
28274W        W43743  15.919   4.409  15.983  0.2167  0.0706 -0.1508
28275W        W43744  12.411   6.665   0.023 -0.1318  0.1186  0.0443
28276W        W43745   4.630   0.163  12.107  0.2292 -0.2125  0.0976
28277W        W43746   2.565   0.714  15.242 -0.0538 -0.4303 -0.2746
28278W        W43747   5.560  16.062  11.259  0.1731 -0.2882 -0.0353
28279W        W43748  15.169   4.414  12.564 -0.1762 -0.1188 -0.2054
28280W        W43749   7.220  17.831  14.090 -0.0253 -0.1638 -0.0701
28281W        W43750  16.747   0.013  13.705  0.2321  0.0065 -0.1562
28282W        W43751   3.266  10.577  10.863  0.1417 -0.1734  0.0196
28283W        W43752  14.802   9.958  13.145 -0.3915  0.2275  0.1760
28284W        W43753   9.993  18.387   2.979 -0.1351  0.2017  0.3822
28285W        W43754  16.461  15.398   4.121  0.2792  0.1859 -0.0021
28286W        W43755   3.100  11.132   0.531 -0.1819  0.0849  0.0464
28287W        W43756  13.884   8.275   2.605 -0.2213  0.4020 -0.2730
28288W        W43757  15.397   0.677  12.386  0.0675  0.1448 -0.1240
28289W        W43758   0.727   0.653   2.510 -0.0704  0.2196 -0.0976
28290W        W43759  16.091  15.511  14.788 -0.1340  0.0742  0.1246
28291W        W43760  16.308   1.627   4.200  0.1528  0.0847 -0.2098
28292W        W43761  12.810   0.581  16.006 -0.2298  0.0673 -0.0511
28293W        W43762   7.155  10.755  14.352 -0.3037 -0.0888 -0.3729
28294W        W43763   0.248   9.809  11.975  0.0212 -0.2438  0.0986
28295W        W43764   5.505   0.626   0.923  0.2303 -0.0280 -0.0363
28296W        W43765  12.484  10.018  14.552 -0.1660 -0.2371 -0.2465
28297W        W43766   8.836   7.252   0.183  0.0000  0.1171  0.0675
28298W        W43767  11.469  15.783  14.114 -0.2479  0.3289  0.3146
28299W        W43768   1.306  10.339   1.396 -0.0179  0.0412 -0.0328
28300W        W43769  12.950   0.974  12.389  0.2414 -0.2887  0.1407
28301W        W43770   7.475   2.077   4.182 -0.2466 -0.0193 -0.0981
28302W        W43771   3.597   9.753  14.838  0.1635  0.1155  0.2740
28303W        W43772   6.256  16.125  14.208 -0.0409 -0.0790 -0.0765
28304W        W43773   8.245  15.773   3.351  0.0695 -0.2739  0.0822
28305W        W43774  15.965   7.039   4.567  0.0788 -0.0926  0.4889
28306W        W43775  14.455  10.927   1.546 -0.2974  0.1029  0.1352
28307W        W43776  12.469   7.391  13.964 -0.0451  0.0395  0.1721
28308W        W43777  13.200   2.655   5.194  0.1979 -0.2262 -0.0010
28309W        W43778   5.145  15.619  12.233 -0.1857 -0.1193 -0.0617
28310W        W43779  13.041  15.400  11.905 -0.1080 -0.0952  0.0267
28311W        W43780   8.810   8.188   4.688  0.2509  0.3744  0.1384
28312W        W43781   3.111   9.361   4.875  0.0883 -0.0709 -0.1661
28313W        W43782   5.646   4.529  14.227  0.0674  0.1693 -0.0525
28314W        W43783  18.377  11.796  15.597 -0.1612 -0.2228  0.0426
28315W        W43784   3.975   9.259  15.436 -0.2113 -0.2136 -0.3195
28316W        W43785  16.441   7.069  12.275  0.0935  0.2707  0.0582
28317W        W43786  13.752  14.581   1.903 -0.0785  0.1548 -0.0772
28318W        W43787   1.126   5.037  14.029  0.1444 -0.4296  0.1371
28319W        W43788   0.578   9.293  11.267 -0.4597 -0.0680  0.1131
28320W        W43789  14.110   7.243  10.989 -0.0714  0.1898  0.0519
28321W        W43790  13.197   4.723  14.335  0.2069  0.2205  0.1777
28322W        W43791   3.950   8.663   6.485  0.1250 -0.0445 -0.0871
28323W        W43792   2.017   1.416  15.672 -0.0456  0.3524  0.1953
28324W        W43793  14.722   4.698  15.923  0.0167 -0.3886 -0.0907
28325W        W43794   1.831  11.331   4.584  0.1875 -0.3931  0.2246
28326W        W43795   6.732   2.097  13.531  0.0624 -0.1650  0.0231
28327W        W43796  14.603  11.547  14.817 -0.0564 -0.1213  0.2939
28328W        W43797   6.179  13.928  13.138  0.1197  0.1853  0.0200
28329W        W43798   3.996   4.536   2.304  0.1042  0.0365  0.1751
28330W        W43799  14.020   1.317   4.536  0.3104  0.2215  0.0130
28331W        W43800  16.560   3.446   3.659  0.1388  0.3231 -0.3055
28332W        W43801  14.038   5.508   4.538  0.0758  0.3594 -0.0203
28333W        W43802   9.867  11.554  15.899  0.0798  0.0275 -0.0207
28334W        W43803  12.609  18.127   2.378  0.4646 -0.2482  0.0230
28335W        W43804  10.709   4.363  14.458 -0.3173 -0.0065  0.0255
28336W        W43805  13.622   0.994   1.143  0.1306  0.2177  0.0424
28337W        W43806   5.859  16.112   4.082 -0.1479 -0.0855  0.0301
28338W        W43807  16.370   2.021   0.678 -0.0132  0.0077  0.1316
28339W        W43808  17.283   8.856  12.541  0.1106 -0.2339  0.0987
28340W        W43809  12.437  11.881   4.794 -0.2999 -0.3105 -0.2397
28341W        W43810   0.270  17.058   2.468  0.5162 -0.2685  0.0254
28342W        W43811   1.440   3.917   2.112 -0.0957 -0.0234 -0.3683
28343W        W43812   7.225   8.527  13.543  0.0632  0.2691 -0.2434
28344W        W43813   5.000  17.988  14.474  0.0246 -0.0131 -0.0577
28345W        W43814   4.612   0.379   1.390  0.0306  0.0480  0.4042
28346W        W43815  13.252  17.892  10.809 -0.0405  0.3311 -0.4415
28347W        W43816   2.018  10.352  11.811  0.3078 -0.0585  0.0066
28348W        W43817   8.441   4.475  14.173 -0.0548 -0.2938  0.1828
28349W        W43818   7.498  17.808   5.178  0.1816 -0.0439  0.1806
28350W        W43819  12.232  10.742  13.957  0.0755  0.1544  0.0745
28351W        W43820   6.046   9.246  12.799  0.0476  0.0602 -0.0119
28352W        W43821  16.353   9.290   4.533  0.3879  0.0392 -0.0126
28353W        W43822   3.012  14.197  11.695  0.2784  0.0356 -0.2637
28354W        W43823   4.154  17.073   4.753  0.3007 -0.2963 -0.1296
28355W        W43824   1.181  14.924  12.243 -0.2043  0.0019  0.1071
28356W        W43825   5.581  13.279  12.969 -0.0374  0.1682 -0.1970
28357W        W43826  15.431   1.263   5.270  0.0982 -0.1154 -0.1400
28358W        W43827  17.560  17.041   1.922  0.2424 -0.2622 -0.1935
28359W        W43828   1.195   9.114  13.611 -0.2655 -0.0095 -0.3792
28360W        W43829   5.882  10.120   3.642  0.2362  0.2323  0.3963
28361W        W43830  11.899   4.982   4.017  0.1641 -0.1163 -0.2183
28362W        W43831  14.746   2.525  13.687  0.1212  0.1023  0.0568
28363W        W43832  11.748   1.668   0.281  0.0850 -0.0566 -0.1793
28364W        W43833  10.580  12.159  15.430 -0.0762 -0.2386 -0.2060
28365W        W43834  10.064   4.447   1.931 -0.1049 -0.1544  0.0045
28366W        W43835   3.913   0.048  12.923  0.1170  0.0890  0.1344
28367W        W43836   6.149   4.209  15.893  0.0820 -0.0583  0.0047
28368W        W43837   9.820   6.612   2.331  0.0494  0.3146  0.0730
28369W        W43838  18.333  15.233  11.126  0.0769 -0.1570  0.0268
28370W        W43839  17.388   9.040  13.013  0.0440 -0.2411  0.0370
28371W        W43840   7.705  14.642  12.881  0.3136 -0.0955  0.3087
28372W        W43841   6.866   8.502  15.420 -0.2841  0.1962  0.0301
28373W        W43842  14.669  13.183  13.309 -0.2657  0.0496  0.1485
28374W        W43843  17.163   8.901  14.496 -0.3049 -0.1719  0.0497
28375W        W43844  17.885   0.613  14.924  0.0174 -0.2983 -0.1984
28376W        W43845  12.010  15.012   3.156 -0.1474 -0.0687  0.2903
28377W        W43846  10.486  12.101  12.250  0.0602 -0.4298  0.0143
28378W        W43847   1.514   9.992   0.672 -0.2003  0.1492 -0.0804
28379W        W43848   5.629  11.997  13.857  0.4508 -0.0667  0.0250
28380W        W43849  10.114  15.466  12.874  0.0595 -0.0941 -0.0748
28381W        W43850  15.265  12.498   5.523  0.1705 -0.1219 -0.1483
28382W        W43851   1.491  12.825  11.367 -0.0161  0.2527 -0.2032
28383W        W43852   9.587  16.855   1.216 -0.1170  0.1742 -0.2081
28384W        W43853   6.858  11.893  14.633  0.2475  0.0705  0.1179
28385W        W43854   4.245  10.996  13.104 -0.3061  0.0320 -0.0741
28386W        W43855  12.689   5.325  14.663 -0.1352  0.0991 -0.2108
28387W        W43856  14.744  11.763  11.934 -0.3706  0.0169  0.0678
28388W        W43857   9.691  17.410  14.285 -0.2688 -0.0720  0.0215
28389W        W43858   4.849   7.953   1.001  0.3050  0.0796 -0.2411
28390W        W43859   3.888   5.724  12.208 -0.0171 -0.1665  0.0922
28391W        W43860   7.683   9.113  10.423  0.1008  0.2689 -0.0401
28392W        W43861  14.726   7.123   6.461 -0.2308  0.1556  0.2350
28393W        W43862   2.849  16.064   1.372 -0.2277  0.0537  0.0995
28394W        W43863   7.575   3.775  12.844  0.0537  0.2339 -0.1241
28395W        W43864   1.178  15.487  13.111  0.0503 -0.0548  0.2320
28396W        W43865  14.088   1.289   1.251 -0.2212  0.0837 -0.1708
28397W        W43866  18.281   4.830  11.620 -0.0784 -0.2242 -0.0869
28398W        W43867  11.893  16.478  15.469  0.0157  0.0713  0.1819
28399W        W43868  18.150   8.609   3.203 -0.0489  0.2859 -0.0226
28400W        W43869   9.690   6.499  13.939  0.3384 -0.0394  0.2638
28401W        W43870   5.942   6.693  12.433 -0.1023  0.0724 -0.1089
28402W        W43871  16.870   1.346  13.679  0.1541 -0.3034  0.0810
28403W        W43872  12.007   4.862  13.851 -0.1217 -0.0599  0.1049
28404W        W43873   4.937   3.059  11.614 -0.0883  0.0109  0.1715
28405W        W43874  18.401   0.234  12.132 -0.0005 -0.1505  0.2104
28406W        W43875  10.489  18.234   3.240 -0.0022  0.2697  0.0605
28407W        W43876  15.818  17.049  13.139  0.2355 -0.1509  0.0430
28408W        W43877   6.053  11.706  14.513 -0.4780 -0.2278  0.0205
28409W        W43878  14.938   8.200   2.680 -0.0472  0.2284 -0.5178
28410W        W43879  10.328   4.711  13.046  0.2181 -0.1163 -0.0469
28411W        W43880   9.877   2.354   1.838  0.0710  0.1829 -0.1260
28412W        W43881   4.579   1.876  10.359 -0.0188  0.2273 -0.0120
28413W        W43882  14.263   3.998  14.770 -0.0323  0.0410  0.0702
28414W        W43883  14.765   2.995  14.026 -0.2965  0.0871 -0.1379
28415W        W43884  12.815  11.115   2.355 -0.2892 -0.0543  0.2437
28416W        W43885   2.864  15.123  11.741  0.2796  0.2022  0.0421
28417W        W43886   3.920   6.168   2.671  0.0863  0.0065 -0.1990
28418W        W43887  18.220  10.379  15.424  0.1028 -0.2732  0.0005
28419W        W43888   2.335   6.859   4.727  0.2805 -0.0306  0.0721
28420W        W43889   5.798   4.636   1.681 -0.0272 -0.0257  0.0959
28421W        W43890   0.683  10.910   5.124  0.0202  0.2877  0.1199
28422W        W43891  11.573  14.250  13.370 -0.1243 -0.0648 -0.2100
28423W        W43892  12.804   7.263   5.481 -0.0628 -0.5472  0.1062
28424W        W43893   5.625  13.643   5.440  0.0539  0.1040 -0.1697
28425W        W43894   4.520   9.353  15.607 -0.2317  0.1038  0.0222
28426W        W43895  14.516  12.940  11.666 -0.2071 -0.0819 -0.0297
28427W        W43896   4.475   4.415   2.638  0.1439 -0.2090  0.1162
28428W        W43897  14.907  11.651  13.812 -0.1091 -0.3696  0.0166
28429W        W43898  11.698  14.275  11.112  0.0778  0.1460  0.1199
28430W        W43899  11.706   1.743   3.378 -0.2576  0.1469  0.3262
28431W        W43900   2.627   4.168  12.003 -0.3519  0.2099  0.1842
28432W        W43901   3.029  15.949  13.334  0.3599  0.1671  0.0714
28433W        W43902  13.288   6.056   2.955  0.3362 -0.0548 -0.0723
28434W        W43903   2.261  11.887   0.959  0.3265 -0.0732 -0.4302
28435W        W43904   6.422  11.249   4.584 -0.0895  0.3130 -0.1346
28436W        W43905   0.099   4.512  15.637  0.1222 -0.1980  0.0207
28437W        W43906   1.860   9.339  13.637 -0.0562  0.2394  0.2735
28438W        W43907   1.916   5.736   3.397  0.0634  0.0300 -0.0057
28439W        W43908  15.255  10.438   9.832  0.0301  0.2104 -0.1117
28440W        W43909   0.721  12.081   0.955 -0.0047  0.1026 -0.0416
28441W        W43910  14.194  10.680   1.207 -0.0964  0.0882  0.0291
28442W        W43911  10.141   0.515  14.527 -0.2034 -0.0737  0.0103
28443W        W43912   0.584   8.403   1.779 -0.1085 -0.0542 -0.1642
28444W        W43913   4.311  16.188  14.850  0.3312  0.1930  0.0411
28445W        W43914   0.186   7.752   3.982  0.0785  0.0897  0.2534
28446W        W43915   4.520   2.159   1.072 -0.1393  0.0981  0.1650
28447W        W43916   1.307  13.686   1.982 -0.2276  0.0419 -0.0946
28448W        W43917   1.360   8.286  14.396  0.0216  0.1290  0.0340
28449W        W43918   5.172  11.044   2.706  0.1263 -0.3685  0.0988
28450W        W43919  17.618   2.943   3.798 -0.1105  0.0365 -0.2210
28451W        W43920  12.177  14.645   2.891  0.1099 -0.0003  0.0634
28452W        W43921  13.932  13.807   2.843 -0.0659  0.1032  0.0241
28453W        W43922   8.572   3.699   2.088  0.0170  0.1374  0.1013
28454W        W43923   0.244   9.478   0.199  0.0386  0.0051 -0.0236
28455W        W43924   6.171   1.151   2.669 -0.0659  0.0154  0.0620
28456W        W43925   7.169  12.615  14.945  0.0238  0.2029  0.3489
28457W        W43926   7.088  10.793   5.191  0.4231  0.0033 -0.2577
28458W        W43927   4.345  10.435   0.018  0.2990  0.1509  0.1881
28459W        W43928  13.133  15.914  13.616  0.1222 -0.1571 -0.2053
28460W        W43929  17.728   1.621  14.112 -0.0864  0.2932 -0.0251
28461W        W43930   4.194  17.735   5.228  0.2730 -0.0758  0.0717
28462W        W43931   3.670   4.164   5.419  0.2782 -0.1231 -0.1875
28463W        W43932   7.608  14.721  13.930  0.1868  0.3053  0.0166
28464W        W43933   1.691   7.041   1.599  0.0863  0.2193 -0.2747
28465W        W43934   1.507   9.080  14.921 -0.3074  0.0491 -0.0079
28466W        W43935   2.359  16.853   2.955 -0.3509 -0.1483  0.0430
28467W        W43936   8.790  17.029   4.762 -0.2262 -0.0588  0.0462
28468W        W43937   9.107  11.011  15.481 -0.1484 -0.0132 -0.2752
28469W        W43938   8.911   2.792  13.456 -0.0566  0.0513 -0.2191
28470W        W43939   2.791   2.315   3.351  0.2233  0.0294 -0.0469
28471W        W43940  14.907  10.772  10.944 -0.2804  0.0871  0.1116
28472W        W43941  10.913   2.843   9.864 -0.0569  0.1194 -0.0905
28473W        W43942   9.721   6.651   0.132  0.2240  0.1317 -0.2310
28474W        W43943  11.721  11.593   1.167  0.0598 -0.0402 -0.0231
28475W        W43944   4.216   1.544   2.871  0.0804 -0.1672  0.3999
28476W        W43945   7.073  14.014   0.520  0.1570  0.2720  0.1733
28477W        W43946  14.335  10.273   4.736 -0.1364 -0.2023 -0.1248
28478W        W43947   3.172  10.384   1.171 -0.0651  0.0572  0.1793
28479W        W43948   9.945  16.240   4.047  0.2136 -0.2372  0.0385
28480W        W43949  12.486   6.647   2.571  0.2443 -0.2057  0.1162
28481W        W43950   0.174  13.984  12.288 -0.3110 -0.0249  0.1774
28482W        W43951   9.088   9.749  14.818 -0.1822  0.1742 -0.1164
28483W        W43952  18.409  13.745   0.491  0.2219 -0.0728  0.3824
28484W        W43953   7.602   2.571   1.348 -0.2076  0.3697 -0.0274
28485W        W43954   2.731   0.904   2.770  0.2075  0.2319 -0.2935
28486W        W43955   4.114   7.127   3.043  0.3784 -0.1093  0.0303
28487W        W43956  15.832   3.232  14.070 -0.3931 -0.0803 -0.4700
28488W        W43957   7.673   1.088  11.804 -0.2538  0.2428 -0.0887
28489W        W43958   2.243   8.310   2.965 -0.0035  0.0686  0.2272
28490W        W43959   6.112  16.610  15.143  0.0561 -0.0157 -0.1411
28491W        W43960   6.259   3.497  12.180  0.0452  0.0174 -0.2145
28492W        W43961   5.025   3.343   4.977 -0.1913 -0.1620 -0.3054
28493W        W43962   9.136  17.383  10.423  0.0244 -0.4094  0.3538
28494W        W43963   9.587  17.548  10.480  0.2369 -0.2625 -0.0306
28495W        W43964  11.508   8.455  15.947  0.0604 -0.1620  0.1044
28496W        W43965  11.416  13.050   4.339 -0.2778  0.0290  0.0018
28497W        W43966  17.841   7.728   6.340 -0.0409  0.2703  0.1147
28498W        W43967  17.526  13.489   5.471 -0.0708 -0.0813  0.2728
28499W        W43968   4.519  11.841   2.531  0.2413 -0.0041 -0.1705
28500W        W43969   5.422   8.573  15.863 -0.1351 -0.3080 -0.0905
28501W        W43970  15.368  13.160  12.581  0.0582 -0.2950  0.1717
28502W        W43971   9.050  17.979   2.507  0.0054 -0.0374  0.1479
28503W        W43972   3.604   5.831  11.790  0.1363  0.1073  0.1001
28504W        W43973   0.527  12.466  11.413  0.1697 -0.0720 -0.6495
28505W        W43974  12.109  17.832  14.822 -0.0984  0.2268  0.1393
28506W        W43975  16.713  13.460  12.135 -0.1166 -0.0383 -0.0815
28507W        W43976  10.379  17.035   3.345 -0.1039 -0.0096  0.4336
28508W        W43977   9.717  17.879   1.427 -0.3149  0.0506 -0.1929
28509W        W43978   5.657  11.443   3.418  0.0850  0.1405 -0.3095
28510W        W43979   4.676   8.159   5.517  0.4819  0.1625 -0.3421
28511W        W43980   5.820   4.551  13.164 -0.1718 -0.3638  0.0283
28512W        W43981  16.790  13.013   0.974 -0.1218  0.1255  0.2595
28513W        W43982   2.891   3.249  11.028 -0.1933 -0.1447  0.0402
28514W        W43983   6.278  10.869   2.316 -0.2408  0.0470 -0.0843
28515W        W43984   7.970   8.397   0.932 -0.1779  0.4170 -0.1216
28516W        W43985  12.015   7.166   4.074  0.1713  0.0470 -0.1122
28517W        W43986   7.920  16.696   2.586 -0.0782  0.2034  0.1751
28518W        W43987  17.241   2.632  11.528  0.0023  0.2430  0.0729
28519W        W43988  11.174   1.709   3.479  0.1234  0.2671  0.1642
28520W        W43989   8.922   4.412   4.886 -0.1626 -0.1609  0.1265
28521W        W43990   0.768   1.542   3.019 -0.1351  0.0689 -0.0291
28522W        W43991   0.279   9.234  14.505 -0.0125  0.0558 -0.2967
28523W        W43992   4.317  18.413  14.643  0.0198 -0.1200  0.1344
28524W        W43993  12.735  13.877   0.233 -0.2836 -0.0126 -0.0559
28525W        W43994  13.948  17.170   4.279 -0.0270  0.1465  0.1268
28526W        W43995   0.698   9.041   1.060 -0.0824  0.1064 -0.0277
28527W        W43996   4.469   8.160  12.339 -0.0928 -0.1166 -0.2581
28528W        W43997   6.033   2.165  11.416 -0.2708 -0.0732  0.1930
28529W        W43998   0.388  15.806   4.875 -0.1195  0.0838  0.2150
28530W        W43999   3.242   2.756   0.567 -0.1006  0.0909 -0.0878
28531W        W44000  13.318  11.682  13.724  0.1234 -0.2107 -0.1349
28532W        W44001   6.638  18.442   4.941 -0.2700 -0.1336 -0.0370
28533W        W44002  15.183  16.005  14.760  0.0546 -0.0382  0.1182
28534W        W44003  17.362  13.987   3.732 -0.2630  0.0524  0.0106
28535W        W44004  11.143   7.024  13.273 -0.0200 -0.2797 -0.0903
28536W        W44005  16.385   0.467   2.656  0.2688  0.5290 -0.0282
28537W        W44006  10.037   1.284   2.529  0.0298  0.0562 -0.2666
28538W        W44007  11.275   9.282  12.188 -0.1748  0.0073  0.2006
28539W        W44008   6.749  11.729   9.810  0.0788 -0.1963  0.0125
28540W        W44009   3.017  15.851  14.297 -0.1195  0.0589  0.0615
28541W        W44010   6.797  17.469  11.261 -0.0742 -0.2282  0.0141
28542W        W44011  15.158   9.467  13.923  0.1592 -0.0510 -0.1880
28543W        W44012   3.594  15.086   2.683  0.1626 -0.1909 -0.1766
28544W        W44013  16.542   7.589   1.283 -0.0173  0.0491  0.1339
28545W        W44014   8.787  13.061   0.084 -0.2423 -0.0730 -0.3387
28546W        W44015  16.909   1.518  12.272 -0.0065 -0.0376 -0.0581
28547W        W44016   0.972   0.720   5.105  0.1347  0.1767 -0.0038
28548W        W44017  12.145   4.401   2.512  0.2453  0.0906 -0.1969
28549W        W44018   1.462  10.832  11.295  0.0242  0.4327  0.1064
28550W        W44019  15.117   5.899   4.111  0.1493  0.1314  0.0917
28551W        W44020   0.661  13.530  13.476 -0.1365  0.2027 -0.1071
28552W        W44021  16.967  17.018   2.746 -0.3121  0.1656  0.2410
28553W        W44022  17.293  11.814  11.845  0.1159  0.0536  0.2379
28554W        W44023   3.523   1.450   5.604  0.3740  0.1251 -0.0216
28555W        W44024  10.410   1.803   1.264  0.0874  0.1316  0.0701
28556W        W44025   3.774  14.119  13.019  0.1900  0.1359  0.0831
28557W        W44026   1.569  10.473  15.702 -0.0575 -0.0051  0.3878
28558W        W44027   0.879  13.804   0.216 -0.2139 -0.0700  0.0577
28559W        W44028  12.723   6.098   3.897 -0.2231  0.2929  0.0365
28560W        W44029  16.049  16.606   3.682  0.1273  0.2095 -0.0910
28561W        W44030  11.497  16.365  12.332 -0.0335 -0.1432 -0.0624
28562W        W44031   3.168   9.863   2.552  0.2205 -0.1420  0.0532
28563W        W44032   1.951  12.509  13.993  0.4397 -0.1564 -0.2337
28564W        W44033   8.904   7.170   1.565 -0.0521  0.3200 -0.2865
28565W        W44034  12.149   6.595  11.499  0.1547 -0.3526  0.2168
28566W        W44035  12.971   6.543   6.145  0.0882 -0.1565 -0.0826
28567W        W44036  14.540  11.110  11.179  0.1133  0.3707  0.0369
28568W        W44037   0.657   6.187   1.505 -0.1164 -0.0331  0.1526
28569W        W44038   7.450  14.459  12.497  0.0926 -0.0217  0.1033
28570W        W44039   9.651   5.760  12.809  0.2170 -0.2997  0.0513
28571W        W44040   7.795  18.265  12.670 -0.0039 -0.0549  0.1298
28572W        W44041   5.175  18.162  11.692  0.0533 -0.1597  0.1787
28573W        W44042  17.127   4.564   2.507 -0.3661 -0.1711  0.0039
28574W        W44043   9.225  17.442  13.985  0.1169  0.0570  0.0451
28575W        W44044  16.926   6.447  12.439  0.1876  0.2645  0.0485
28576W        W44045  17.165   5.268   3.788 -0.0312 -0.0346 -0.1909
28577W        W44046   2.937  12.830   0.643 -0.1495 -0.0597  0.0486
28578W        W44047   7.933  11.890   3.316 -0.1138 -0.3039 -0.2707
28579W        W44048  10.431  15.669  12.435 -0.0393  0.0587 -0.1955
28580W        W44049  14.223   0.212  14.349 -0.0366  0.2564  0.1324
28581W        W44050   1.344  10.986  10.745  0.1948 -0.0547 -0.0043
28582W        W44051   3.686   4.915   3.799 -0.0260  0.1659 -0.4842
28583W        W44052  10.886  12.795   2.423 -0.0126  0.3184  0.2551
28584W        W44053   7.258   3.602  12.176  0.0562  0.0486  0.1570
28585W        W44054   4.182  10.530   1.643  0.2403  0.2418 -0.1575
28586W        W44055  16.853  15.502  13.270  0.0050 -0.0541  0.1215
28587W        W44056   1.785   5.292  13.824  0.3318  0.0055 -0.2495
28588W        W44057  10.169  14.923   1.737  0.0397  0.1481  0.1611
28589W        W44058  11.046  10.922  14.539 -0.0201 -0.1320 -0.1187
28590W        W44059  11.426  10.909   3.436  0.1671  0.4945  0.0985
28591W        W44060  12.262   1.604   1.722  0.0111  0.1354  0.1082
28592W        W44061   5.388   3.587  14.294 -0.3684  0.0309 -0.1625
28593W        W44062   8.761  11.380  15.824  0.0465 -0.0819  0.4271
28594W        W44063   1.800  12.060  11.801 -0.1446  0.1482  0.1018
28595W        W44064  11.303  15.957  13.621  0.0469  0.1472 -0.2787
28596W        W44065  13.934   2.522   0.386 -0.1056  0.0917 -0.0159
28597W        W44066  16.884   6.177  15.594  0.2586  0.2470  0.0073
28598W        W44067  18.459   6.682  13.366  0.3227  0.1796  0.0355
28599W        W44068  10.642   5.409  12.744  0.0246 -0.1977  0.2324
28600W        W44069   3.122   7.827  14.723  0.3358 -0.0029 -0.2941
28601W        W44070   1.669   4.579  11.956  0.2285 -0.1581  0.0071
28602W        W44071   1.638   2.600   5.427  0.0632 -0.1608 -0.2720
28603W        W44072  14.694  10.684   1.160 -0.0168 -0.2162  0.1303
28604W        W44073  11.292  12.142   4.145  0.2057 -0.2393  0.4567
28605W        W44074  17.482  16.838   1.509 -0.0590 -0.0790  0.1554
28606W        W44075   3.681   4.997  12.732  0.0662 -0.1679 -0.0304
28607W        W44076  16.417   1.552  14.877  0.1698 -0.2674 -0.0823
28608W        W44077   6.764  18.090  12.243 -0.0627  0.0638 -0.1386
28609W        W44078   7.403   7.193   3.613  0.0559 -0.1050  0.1417
28610W        W44079   5.023  15.247  14.886 -0.0913  0.0373 -0.1947
28611W        W44080   4.519   0.034   1.846 -0.1119  0.0632  0.0909
28612W        W44081   9.675   3.661  12.553  0.2003  0.4007  0.1837
28613W        W44082  10.979  17.654   5.013 -0.0547 -0.1480 -0.0249
28614W        W44083   8.589   5.570   3.602  0.0341  0.0962 -0.2922
28615W        W44084   4.354   4.632  14.367 -0.0147  0.2920  0.0430
28616W        W44085  17.307  10.594   0.132  0.1783 -0.1419  0.2175
28617W        W44086   2.863   0.897  11.841 -0.1535 -0.0768  0.0832
28618W        W44087  14.388   1.405  12.913 -0.1449 -0.0361 -0.0087
28619W        W44088  13.976   5.375  15.320  0.1033  0.1584 -0.0772
28620W        W44089  14.540   8.363  11.574 -0.0229 -0.1429  0.0023
28621W        W44090  16.457  18.207  15.530  0.0035  0.5612 -0.0651
28622W        W44091   1.136   9.360  15.870 -0.3074 -0.0122  0.0791
28623W        W44092   5.698   4.755   4.300 -0.2127 -0.0509  0.0095
28624W        W44093   9.824   7.976  11.068 -0.1018 -0.0268  0.0625
28625W        W44094  13.433   5.288  15.210  0.1144  0.0639  0.2428
28626W        W44095   4.524   7.839  10.984  0.0487 -0.1995  0.2574
28627W        W44096   2.708   3.398  13.685 -0.2579  0.0648 -0.2048
28628W        W44097   7.060  15.864  12.391  0.0435 -0.1465 -0.0678
28629W        W44098  14.777   6.415  15.501  0.0774 -0.0045  0.2938
28630W        W44099  11.835   7.415   5.701 -0.1447  0.0974  0.0695
28631W        W44100  11.966   9.009  14.375 -0.2979  0.3217  0.0363
28632W        W44101   5.601  17.854  11.452 -0.0817  0.1322 -0.0601
28633W        W44102  18.183   8.619   5.303  0.1475  0.2257  0.1417
28634W        W44103  18.063  11.184   4.517  0.0762 -0.0189 -0.0947
28635W        W44104   1.864  14.758   0.816 -0.0162 -0.0028 -0.3182
28636W        W44105   1.562  17.223  14.348  0.0662 -0.0659  0.0341
28637W        W44106  18.225   9.424   2.104 -0.1113 -0.0556  0.4218
28638W        W44107  11.056  12.303  15.184 -0.1728  0.2617  0.3532
28639W        W44108   9.816   1.298  10.750 -0.1651 -0.2263 -0.1797
28640W        W44109   3.397   7.163   0.041 -0.2000  0.4109  0.2965
28641W        W44110   9.609  10.003  12.486 -0.0154 -0.0324  0.1037
28642W        W44111   6.813  11.589  13.439 -0.0236 -0.1968 -0.0656
28643W        W44112  10.917   5.058  14.304 -0.0998 -0.0802 -0.1052
28644W        W44113  13.624  17.623   1.606  0.0054  0.0211 -0.1193
28645W        W44114   3.408  12.721   1.301 -0.0387  0.0813  0.0238
28646W        W44115   1.580   2.110   0.472 -0.4462  0.1186  0.1336
28647W        W44116  10.147  11.455   0.279 -0.0453 -0.0480 -0.0900
28648W        W44117   3.517  15.390   0.842  0.1198 -0.1263  0.1133
28649W        W44118  11.099  10.950  11.617 -0.5550  0.0740 -0.1062
28650W        W44119   0.853  15.001   4.091  0.0749 -0.2311 -0.2040
28651W        W44120   7.958  13.422   4.863 -0.0927 -0.1741  0.2196
28652W        W44121  11.264  11.673   4.782  0.3802 -0.0151 -0.3414
28653W        W44122  16.141   6.810  13.896 -0.2087 -0.0670 -0.2075
28654W        W44123  12.709  10.365   1.653 -0.1330  0.2660 -0.4927
28655W        W44124   9.786   7.126   4.097 -0.1354  0.0034  0.1661
28656W        W44125  15.619  15.207   3.390 -0.3397 -0.0152 -0.3191
28657W        W44126   8.769   7.052  12.008  0.1424  0.1948 -0.0298
28658W        W44127  16.752   4.454   1.569  0.5364 -0.0551 -0.0255
28659W        W44128   4.564  12.442  11.654  0.2909 -0.1751  0.0051
28660W        W44129   2.946  10.931  15.514  0.1646  0.0883  0.1294
28661W        W44130  12.281   5.205   4.332 -0.1503 -0.0003  0.2439
28662W        W44131  17.249   2.002  15.736  0.4123 -0.2971  0.0459
28663W        W44132   4.926  14.398   0.668  0.1128  0.0593 -0.2671
28664W        W44133  14.944   5.055  11.273 -0.0618  0.0665 -0.1551
28665W        W44134   4.262  16.331  12.701  0.1089 -0.0081 -0.2699
28666W        W44135  13.796  13.814  14.256 -0.1798  0.1648  0.1343
28667W        W44136   1.385  11.239   2.134  0.0609  0.0415 -0.1023
28668W        W44137  15.704   5.173  15.546 -0.0576 -0.2212 -0.0480
28669W        W44138   7.089   7.097  14.201  0.1245 -0.0555  0.1528
28670W        W44139   5.101   8.769   4.758 -0.0268  0.0424 -0.0151
28671W        W44140   1.897   0.638  14.402 -0.4976 -0.0670  0.0235
28672W        W44141   7.835  16.450   3.874  0.3520 -0.1519  0.0957
28673W        W44142  12.649   5.468  11.764  0.2194 -0.1398  0.2352
28674W        W44143  12.820   6.260   2.838 -0.1824 -0.0330 -0.0698
28675W        W44144  11.932   8.401  10.843  0.0314 -0.0130 -0.0435
28676W        W44145  10.723  10.539   4.342  0.3186  0.1026 -0.0936
28677W        W44146  14.548  15.728   0.552 -0.0529 -0.0362 -0.2706
28678W        W44147   6.342  16.486   5.020 -0.2599 -0.1019 -0.0026
28679W        W44148  18.194  14.135  10.790 -0.2322  0.1188 -0.2317
28680W        W44149  16.380   0.119   1.588 -0.0384  0.1331 -0.1239
28681W        W44150   7.459  18.353  14.791  0.3367  0.4448 -0.1795
28682W        W44151   8.298  11.639   3.032  0.3107  0.4575  0.0335
28683W        W44152   6.761  12.264   5.213 -0.0514 -0.1449 -0.0803
28684W        W44153  11.811   5.355   4.417 -0.0293 -0.0303 -0.1824
28685W        W44154   1.828   2.416   1.942  0.3940 -0.1026 -0.1549
28686W        W44155   6.612   3.764   3.349  0.3899  0.1380 -0.0757
28687W        W44156   9.307   1.605  12.266  0.1186  0.0419 -0.1324
28688W        W44157  14.242   2.212  10.948  0.0285  0.2252 -0.1805
28689W        W44158  10.525  12.323  10.871  0.0313 -0.0296 -0.1621
28690W        W44159  12.001  11.060  10.976  0.1351 -0.2904 -0.0775
28691W        W44160  12.059   3.142  15.059  0.2922  0.0751 -0.1944
28692W        W44161   0.126   9.992  16.014  0.1214  0.0352  0.0600
28693W        W44162  14.469   6.842  15.380  0.0080  0.2308  0.0722
28694W        W44163  11.972   9.338   1.521 -0.1349  0.2926 -0.0720
28695W        W44164   9.124  16.609   1.979  0.3242  0.1191 -0.1417
28696W        W44165  17.314   5.366  12.607  0.1499 -0.0566 -0.4208
28697W        W44166  16.109  11.231  15.726  0.0148 -0.1680  0.0936
28698W        W44167  15.281   3.290   5.256  0.1555  0.2634  0.2551
28699W        W44168  17.689   6.450   5.100  0.1776 -0.3749  0.1678
28700W        W44169   9.744  14.347  10.591  0.0837  0.2641  0.4385
28701W        W44170  12.665  10.303  10.938 -0.1046  0.3698 -0.1758
28702W        W44171  14.071   3.030   0.894 -0.3527  0.2372 -0.0341
28703W        W44172  14.710  11.540  15.693  0.1997  0.0341 -0.2075
28704W        W44173   6.701   3.844  12.919  0.1992  0.3483 -0.1047
28705W        W44174  12.682  17.976   0.804 -0.1761  0.0406 -0.1446
28706W        W44175  10.415   5.785   1.681 -0.0953  0.0350 -0.0398
28707W        W44176  12.002   9.675   3.505  0.0572 -0.1519  0.0627
28708W        W44177   6.505   6.495   3.393  0.0832  0.1812 -0.0338
28709W        W44178  14.679  16.571  15.988 -0.0694 -0.0909 -0.1367
28710W        W44179  10.652  18.267  14.245  0.0054 -0.0037 -0.2543
28711W        W44180  14.553   4.431   3.524  0.1115 -0.1091 -0.1960
28712W        W44181   4.285  12.206   0.522 -0.2751  0.2210 -0.1308
28713W        W44182   6.882   5.274   0.788 -0.2139 -0.0076  0.0142
28714W        W44183   6.199   0.313  12.970 -0.0121  0.0940  0.4977
28715W        W44184  11.842  11.432  12.515 -0.0540 -0.0652  0.0688
28716W        W44185   7.137  17.331   4.237 -0.0034 -0.6166  0.1545
28717W        W44186   7.259   3.188   3.842 -0.0153  0.1948 -0.0036
28718W        W44187  14.437  15.776  12.445  0.0044  0.1154 -0.2391
28719W        W44188   5.367  14.342   4.540 -0.2922  0.0245 -0.0738
28720W        W44189  13.444   1.209  13.813 -0.1150  0.2159  0.1067
28721W        W44190   1.752   4.220   3.373  0.2268 -0.0897 -0.0474
28722W        W44191   5.959  15.474  11.163  0.3371  0.2112 -0.0130
28723W        W44192   9.731   8.821  13.865 -0.1740 -0.2676  0.0772
28724W        W44193   9.741   9.732  11.018 -0.0423  0.0378 -0.0089
28725W        W44194   4.781  16.393   4.954 -0.0650 -0.2765 -0.0466
28726W        W44195  12.081  14.004   1.746  0.1540 -0.0393 -0.0480
28727W        W44196   0.585  16.223   4.172 -0.0409  0.0718 -0.0193
28728W        W44197   2.511   4.183   0.029  0.0099  0.3746  0.1433
28729W        W44198  12.036   2.817  14.560  0.3485  0.0124  0.0396
28730W        W44199  12.574  12.109   3.427  0.1066 -0.3125 -0.0672
28731W        W44200  17.609   1.579   1.940  0.3482 -0.1228 -0.1837
28732W        W44201   2.614  17.268  13.923 -0.0347 -0.1188 -0.0464
28733W        W44202   1.956   5.271   2.151 -0.3033  0.2748 -0.0422
28734W        W44203  12.278  12.077   2.526  0.1205  0.1499 -0.1033
28735W        W44204  15.239  17.523  14.893 -0.0780  0.2212  0.0238
28736W        W44205  13.533  18.338   3.357  0.1372  0.0487  0.1921
28737W        W44206   0.149   5.035  14.518 -0.1425 -0.1943  0.3560
28738W        W44207  15.243   5.485  13.984 -0.2951 -0.0124  0.0073
28739W        W44208  15.390  12.378   4.477 -0.2012  0.0934 -0.1718
28740W        W44209  14.792   0.084   3.853  0.0125  0.0138  0.1906
28741W        W44210   5.805  17.550  14.984 -0.0028 -0.0448  0.1822
28742W        W44211   4.196  10.759  14.851  0.3229 -0.0416  0.3857
28743W        W44212   7.813   7.969   0.672  0.1986  0.0450  0.2104
28744W        W44213   8.407  13.892  10.860 -0.1093 -0.2183  0.0888
28745W        W44214   6.884   7.312   5.453 -0.1659 -0.1222 -0.5094
28746W        W44215   7.726   3.396   4.185 -0.0178 -0.1415  0.1722
28747W        W44216  13.333   8.783  14.135  0.0591  0.2478  0.1237
28748W        W44217   6.209  16.858  12.132 -0.0136 -0.3200 -0.2312
28749W        W44218   9.066   3.688  12.517 -0.0865 -0.2283  0.0836
28750W        W44219   8.723  14.247   0.515  0.3250  0.0487 -0.2569
28751W        W44220   6.868   3.534  11.027 -0.1382  0.2294  0.1457
28752W        W44221   7.324   7.867  12.986  0.2476 -0.0241 -0.1954
28753W        W44222   5.465   9.894  11.059  0.0905 -0.1461  0.0124
28754W        W44223  16.517  16.603  11.106 -0.2415  0.1248  0.0438
28755W        W44224  11.209  12.347   3.168  0.0952  0.2440 -0.1867
28756W        W44225  11.955   6.489  15.675 -0.2163 -0.1031 -0.0326
28757W        W44226  12.344   3.972  14.588 -0.0090  0.1097  0.0873
28758W        W44227  13.627   9.731  12.151 -0.1073 -0.2778 -0.1480
28759W        W44228  18.282   4.695   5.148  0.3747 -0.0111 -0.1305
28760W        W44229   6.459   0.693  11.816 -0.0011  0.3797  0.0588
28761W        W44230   4.347  12.843   6.239  0.3482  0.1579  0.1722
28762W        W44231   3.754   9.606   0.215  0.1035  0.0857 -0.0308
28763W        W44232   6.740   7.862   2.650  0.1314  0.0437  0.1616
28764W        W44233  16.566   3.277  14.146 -0.2873 -0.1057  0.1380
28765W        W44234   5.294   4.536  10.955 -0.0912 -0.1910 -0.3791
28766W        W44235  12.453   6.027   4.832  0.1510 -0.0191 -0.1400
28767W        W44236   4.760  18.288   4.648  0.1899  0.2860  0.0371
28768W        W44237  10.762  13.867   0.990 -0.1873  0.0838 -0.0704
28769W        W44238   8.359   8.074   0.694 -0.0415  0.1160 -0.2972
28770W        W44239   1.476   3.273  15.228  0.0346 -0.0063  0.2151
28771W        W44240  14.638   5.926   0.533 -0.0967 -0.0936 -0.1020
28772W        W44241   5.171   1.999   3.533  0.1854  0.2356  0.0974
28773W        W44242  17.033  14.893   3.126 -0.0050 -0.1109  0.1511
28774W        W44243  11.741  10.307   5.923 -0.1950 -0.0066 -0.1311
28775W        W44244  12.175   7.626  14.962 -0.1657  0.0789 -0.0191
28776W        W44245  10.827   6.663  15.182  0.0749  0.0751 -0.1564
28777W        W44246   8.991   5.070  12.633  0.2731  0.0659  0.0045
28778W        W44247  13.982  17.065  15.629 -0.2421  0.1427  0.1637
28779W        W44248   4.141  17.811   3.989  0.0328 -0.2238 -0.2313
28780W        W44249   9.685   3.326   2.099 -0.2140  0.1329  0.2851
28781W        W44250  12.845   4.515   1.737  0.1418 -0.0890  0.1302
28782W        W44251   0.143  17.487   4.888  0.0819 -0.0365  0.2909
28783W        W44252  14.055   0.488  12.948  0.0512 -0.2751  0.0313
28784W        W44253  15.121   9.632  10.852 -0.3847  0.1396  0.0339
28785W        W44254  14.090   6.692  15.078 -0.1087  0.0081 -0.1470
28786W        W44255  12.790  15.194   1.063  0.2667 -0.1134 -0.1488
28787W        W44256  14.511  16.810  13.191  0.0293  0.1133 -0.4895
28788W        W44257   8.822   3.499  15.873  0.0588 -0.0773 -0.1753
28789W        W44258  17.067   3.508   0.816  0.0527 -0.1030 -0.1274
28790W        W44259   3.758  14.857   1.729 -0.0916  0.0289 -0.0736
28791W        W44260   2.884   3.047  13.138  0.0978 -0.1667  0.2246
28792W        W44261  18.263   2.871  15.120  0.0662  0.0637 -0.3199
28793W        W44262  14.961   2.204   4.999 -0.0681 -0.1605  0.0483
28794W        W44263   1.051   1.138   0.305  0.2471  0.1331  0.0876
28795W        W44264   9.015  11.919   3.994 -0.3306  0.0088  0.2700
28796W        W44265  13.748   8.079  12.189 -0.0486 -0.0115  0.0471
28797W        W44266   8.722  11.734  14.323  0.0827  0.1118  0.4373
28798W        W44267  17.550   4.373   0.922 -0.0432 -0.0622 -0.1031
28799W        W44268  16.614   9.046   0.901 -0.0143  0.0835  0.1366
28800W        W44269  16.569  12.019  12.592 -0.2317 -0.0843  0.1229
28801W        W44270   5.942   9.607   3.521  0.0817  0.1026 -0.2585
28802W        W44271  12.047   0.583  13.707  0.3233 -0.1015 -0.0285
28803W        W44272  14.080  15.212   5.556 -0.3989 -0.0413 -0.2220
28804W        W44273   0.214  17.381   1.231 -0.1002 -0.0363 -0.0177
28805W        W44274  10.106  18.460   1.926 -0.3886  0.0449 -0.4741
28806W        W44275   9.938  11.656  10.606  0.1542 -0.0789  0.2436
28807W        W44276  14.253   1.656  14.070  0.0170 -0.2126  0.0239
28808W        W44277  13.313  10.852   4.575  0.1185  0.0203 -0.2667
28809W        W44278  16.322   8.582  15.840  0.0944 -0.0425 -0.2107
28810W        W44279   5.873  14.875  14.373 -0.1070  0.1005  0.2195
28811W        W44280   5.085   4.601   3.742 -0.0029 -0.0131 -0.0686
28812W        W44281  12.925  14.119   0.764  0.3650 -0.2101  0.2206
28813W        W44282  12.089   9.486   0.865 -0.0533  0.0714 -0.2397
28814W        W44283  14.824  15.754  14.443 -0.3078  0.1088 -0.3420
28815W        W44284   9.660   5.176   0.627  0.1023 -0.2057 -0.0455
28816W        W44285  15.237   4.607   2.664 -0.1324 -0.2487 -0.2834
28817W        W44286   7.735  10.874   3.090 -0.2916  0.3773  0.0093
28818W        W44287   5.341  10.785  12.905  0.1051  0.3871  0.1184
28819W        W44288  16.570   8.195  11.997 -0.0230 -0.1427  0.3116
28820W        W44289   2.295   0.856   0.757  0.0954  0.3191  0.2285
28821W        W44290   6.274  10.519  14.020 -0.3104  0.3628 -0.0408
28822W        W44291   1.647   2.654   1.536 -0.0765  0.2412 -0.0506
28823W        W44292   3.425   3.829  14.038 -0.0527  0.2600 -0.1465
28824W        W44293  18.026   2.382   0.644  0.1956 -0.0571 -0.0512
28825W        W44294  16.850   0.131   2.797  0.1962 -0.1303  0.0768
28826W        W44295  10.197  16.317   1.493  0.2948  0.0510 -0.2250
28827W        W44296   1.229   3.071   2.658 -0.3055  0.0722 -0.2832
28828W        W44297   1.252  14.420  10.117 -0.1268  0.2471  0.0311
28829W        W44298  16.324  18.111  10.453  0.0993  0.5593 -0.1846
28830W        W44299  16.515   3.493   4.262 -0.1537  0.1881 -0.1295
28831W        W44300  17.483   1.227   2.385  0.1323 -0.2642 -0.0977
28832W        W44301   9.496   2.988   4.649 -0.0986  0.3751 -0.0290
28833W        W44302  10.162   9.636  13.098 -0.3405 -0.2060  0.3033
28834W        W44303   5.567   1.729  12.143 -0.0522 -0.1236 -0.2340
28835W        W44304   3.151  10.459   4.533  0.3494  0.5019  0.0669
28836W        W44305   1.200  13.306   4.500  0.0807 -0.0937  0.1459
28837W        W44306  12.586   9.745  13.929 -0.1298  0.1928  0.0310
28838W        W44307   4.445   5.098  12.204  0.0921 -0.0472  0.0128
28839W        W44308   0.063   9.506   3.316 -0.0247  0.1514 -0.1933
28840W        W44309   9.235  14.786   1.772  0.1151  0.1100 -0.2047
28841W        W44310  13.796  11.147  14.824 -0.1381  0.2801  0.2566
28842W        W44311  10.938   3.932   4.040 -0.1256  0.1499  0.2520
28843W        W44312  11.426  11.211   0.982 -0.1665 -0.0437 -0.0968
28844W        W44313  12.772   7.359   0.565 -0.0473 -0.0272 -0.1110
28845W        W44314   0.540  12.516  13.600  0.0594  0.3302  0.0026
28846W        W44315   5.825  12.223  14.683 -0.1005  0.1046 -0.0290
28847W        W44316  14.637  10.466   2.290  0.1665 -0.2377  0.4584
28848W        W44317   1.562  15.874  13.770 -0.0505  0.0248 -0.1892
28849W        W44318   9.107  18.145  14.957 -0.3137  0.0753 -0.0084
28850W        W44319   9.988   4.721  12.211  0.0962  0.2547 -0.0934
28851W        W44320  10.789   2.061  11.637  0.0593 -0.2171 -0.0307
28852W        W44321   0.025   5.414   1.703 -0.1645 -0.0421  0.0293
28853W        W44322   9.313   6.702  10.877  0.0685  0.1456  0.1129
28854W        W44323   2.504   1.958  13.574  0.1200 -0.1246  0.0141
28855W        W44324   9.135  10.485   3.060  0.3833 -0.0024  0.0862
28856W        W44325   1.159  15.801  14.480  0.4250  0.1270 -0.1978
28857W        W44326  10.316  12.389  11.560 -0.2133  0.1145 -0.1088
28858W        W44327   5.075   8.110   0.547  0.2988 -0.2134 -0.2033
28859W        W44328  16.522   8.309  12.651  0.0393  0.1719  0.1340
28860W        W44329   9.994  15.134   2.746 -0.0946  0.0249  0.1047
28861W        W44330  17.027   9.880  11.658  0.0527 -0.1167  0.2351
28862W        W44331   7.432   5.150   0.922  0.0165  0.2226 -0.3652
28863W        W44332   9.354  10.009   4.409  0.5704  0.0394 -0.0342
28864W        W44333  14.483   8.282  13.622 -0.0926 -0.0875  0.1931
28865W        W44334  14.901   4.549   4.903 -0.1559  0.1681 -0.1134
28866W        W44335  10.945   0.101   2.526 -0.2119  0.2553 -0.2988
28867W        W44336  16.676   5.146  10.955  0.3021 -0.0350 -0.0931
28868W        W44337   4.359   6.098   3.003 -0.2005  0.0698  0.1569
28869W        W44338   0.811   3.455  13.314 -0.1825 -0.1999 -0.0797
28870W        W44339  10.742   1.623  13.937 -0.2878  0.3570 -0.0414
28871W        W44340  10.911  12.020  11.949  0.1373 -0.0466 -0.1773
28872W        W44341  10.770  10.217   3.583 -0.4135 -0.2533 -0.0725
28873W        W44342  14.637  13.964   0.111  0.0345  0.4115  0.1011
28874W        W44343  15.394   2.206   3.471 -0.1147  0.0604  0.1521
28875W        W44344  14.387  16.848   0.250  0.0646  0.5096 -0.0139
28876W        W44345   8.438  13.087   1.906  0.0037 -0.1725 -0.3079
28877W        W44346   0.432   6.450  15.387 -0.2548 -0.1080 -0.2802
28878W        W44347   0.124  15.256   2.521 -0.0026 -0.4152 -0.0102
28879W        W44348  10.529   9.943   2.483  0.3338 -0.2835 -0.2164
28880W        W44349   4.085  15.861   5.281 -0.0499  0.1039  0.0753
28881W        W44350  12.708  14.725   0.778 -0.1874 -0.0284 -0.2864
28882W        W44351   2.674   8.014   2.755  0.1829  0.0302  0.1667
28883W        W44352  18.205  13.387   0.175 -0.1492  0.0821 -0.1713
28884W        W44353  17.999  12.303   2.103 -0.0193 -0.1168 -0.2030
28885W        W44354   4.334  14.098   2.444 -0.1495  0.2712  0.1510
28886W        W44355   9.680  16.371  11.091  0.0749  0.1162  0.0936
28887W        W44356   4.267   4.257  13.121 -0.0411 -0.1644 -0.0092
28888W        W44357   6.124  16.349   0.282  0.0555  0.0730 -0.0156
28889W        W44358  17.361   5.205   1.986 -0.1591 -0.2049 -0.1874
28890W        W44359  14.006   8.372  10.113  0.2722 -0.2283  0.1711
28891W        W44360   7.179   0.818  15.627  0.1064  0.0558  0.1249
28892W        W44361   5.834  11.104   0.293 -0.0709 -0.3811  0.0283
28893W        W44362   4.280   0.744  11.733  0.0005 -0.3633  0.1386
28894W        W44363   2.295   2.735   1.538 -0.1070  0.2768 -0.4048
28895W        W44364   9.636   4.333   3.628 -0.0438  0.3377 -0.2922
28896W        W44365   7.627   5.063   1.448 -0.1659 -0.0501  0.2419
28897W        W44366  15.037   9.625  12.882  0.1354  0.0946 -0.1112
28898W        W44367   4.841   2.549   2.386 -0.0673 -0.0132 -0.4259
28899W        W44368   4.139   0.919  11.249  0.2322  0.0096 -0.0150
28900W        W44369   5.126  16.466  12.585  0.0922 -0.0114 -0.0922
28901W        W44370   4.469  11.556  11.637  0.0370 -0.0564 -0.0265
28902W        W44371   2.602  14.588   2.967  0.0456  0.0946 -0.1887
28903W        W44372   6.186  18.179   3.016  0.0131 -0.0732 -0.1441
28904W        W44373  13.628  10.942   5.677  0.1512  0.2789 -0.0040
28905W        W44374  15.627  15.480   2.928  0.3268 -0.2023  0.0001
28906W        W44375   2.346  15.840   5.630 -0.1307  0.1457 -0.0744
28907W        W44376  16.486  14.957   4.395 -0.4963  0.2330 -0.1184
28908W        W44377   4.282   4.779  15.939  0.0534 -0.2636 -0.1588
28909W        W44378  10.188   9.677   4.627  0.1735  0.0502  0.1050
28910W        W44379   0.405  17.968  12.000  0.0574  0.2374  0.0138
28911W        W44380   0.641   5.937   3.954 -0.1619  0.1116 -0.3634
28912W        W44381  11.793   4.863  15.451  0.1700 -0.0709  0.1630
28913W        W44382  16.102  17.764   4.989 -0.0921  0.1743  0.0910
28914W        W44383  10.177   4.625   1.344  0.2287  0.2556 -0.1119
28915W        W44384  15.972   4.892  12.966  0.1985 -0.2284 -0.0418
28916W        W44385   5.478   0.945   3.535 -0.0625 -0.1186  0.0111
28917W        W44386   0.420  13.373   4.952  0.0171  0.2033 -0.2304
28918W        W44387  12.415  15.784  15.205 -0.3558 -0.3153 -0.0188
28919W        W44388  16.784  11.678   0.172  0.1225 -0.0541  0.0273
28920W        W44389   4.536   7.061   2.702 -0.0263  0.0540 -0.1412
28921W        W44390  16.369   7.658   0.472  0.0149 -0.0192 -0.0124
28922W        W44391  17.064  17.774  14.815  0.0240 -0.0317  0.1815
28923W        W44392  10.456   8.228   4.727  0.0901  0.0429  0.1207
28924W        W44393   1.505  15.002   2.160  0.2079  0.4028  0.1989
28925W        W44394   3.818  13.641   4.497 -0.1752 -0.0957  0.0606
28926W        W44395  18.274   6.016  12.236 -0.1455 -0.0415  0.0937
28927W        W44396   8.754   6.144  12.370  0.1274  0.2146  0.3189
28928W        W44397   0.829  12.313  15.701 -0.0802  0.2374  0.0767
28929W        W44398  10.213  13.566  12.199  0.2662 -0.2580  0.2619
28930W        W44399   9.529   7.668  15.163 -0.2006 -0.2285 -0.2051
28931W        W44400  11.236   9.437   9.381  0.3392  0.1035 -0.0284
28932W        W44401  13.363  11.060   2.148 -0.0244  0.1863 -0.2331
28933W        W44402   7.446   4.213   0.846  0.2634 -0.1880  0.1929
28934W        W44403   5.212   8.309  12.420  0.0707  0.0325 -0.1105
28935W        W44404  13.910   2.521   5.800  0.2210  0.0052 -0.1451
28936W        W44405  15.775   8.447   4.290  0.1458 -0.1263  0.1154
28937W        W44406   4.697   9.149   1.261 -0.1469  0.2896  0.0767
28938W        W44407  11.421  14.771   2.306 -0.0473  0.0695  0.0298
28939W        W44408  12.115  13.831   3.399 -0.1473 -0.1363 -0.0597
28940W        W44409  16.155   4.998   1.495 -0.4011  0.0741  0.0693
28941W        W44410  13.790   4.046  15.402  0.1229 -0.0294 -0.0737
28942W        W44411   3.332   6.194   4.524  0.1026 -0.0488  0.2127
28943W        W44412  13.248  13.314   0.944  0.0093 -0.1451 -0.2615
28944W        W44413   1.109  11.396  12.927 -0.3874 -0.1218  0.2941
28945W        W44414   4.930   1.969   2.992 -0.2213 -0.2805  0.1390
28946W        W44415  17.632  11.624  11.400  0.3493 -0.0842 -0.2786
28947W        W44416  10.185  16.857  15.701  0.2483 -0.2644  0.2823
28948W        W44417   1.879  17.137  11.843 -0.0588 -0.2878  0.1826
28949W        W44418   3.466   9.311   2.827  0.2850  0.0613  0.0931
28950W        W44419   0.338   7.354  15.932 -0.1185 -0.3301  0.2229
28951W        W44420  13.844   8.616  14.438 -0.2034 -0.2196  0.2036
28952W        W44421  16.887   7.627  13.938 -0.0751  0.1121  0.0034
28953W        W44422   5.955   5.088  11.116  0.1234 -0.3852  0.1782
28954W        W44423   1.180   9.104   1.766  0.1870 -0.0493  0.3144
28955W        W44424   2.102   5.889  12.857 -0.1232  0.3215 -0.3445
28956W        W44425  12.790  12.800  11.267  0.2174  0.1962 -0.0919
28957W        W44426  18.229   1.253  12.655 -0.0988  0.1297  0.1488
28958W        W44427  17.231  12.208   1.622 -0.0761  0.2327 -0.3859
28959W        W44428   9.726  10.022   0.117  0.2483  0.1140  0.2806
28960W        W44429   3.024   8.663  15.625  0.1286 -0.4369 -0.1177
28961W        W44430  13.907   3.316   6.014 -0.1813 -0.0665 -0.1389
28962W        W44431   1.958  16.608  11.124  0.0235 -0.1898 -0.1554
28963W        W44432  11.261  14.931   1.755  0.2382  0.1002 -0.0539
28964W        W44433   5.382  15.183  12.080 -0.3352  0.0479 -0.1823
28965W        W44434  13.681  13.255   1.305  0.3052 -0.2206 -0.1953
28966W        W44435   7.956  17.387  14.698  0.1155  0.2190  0.0427
28967W        W44436   2.245   6.577   3.271 -0.1587 -0.0913  0.3395
28968W        W44437  12.488  14.031  13.833  0.0710 -0.2028 -0.1077
28969W        W44438  10.354   7.992   2.190  0.0755 -0.0187 -0.2908
28970W        W44439   9.034   0.929   1.052 -0.0311  0.1728 -0.2301
28971W        W44440   9.753  10.546   4.201  0.0095  0.0312 -0.1580
28972W        W44441  10.406   0.072   1.221  0.1265 -0.0720  0.4391
28973W        W44442   2.509  10.095   0.843 -0.0343 -0.1484  0.0771
28974W        W44443  12.207   7.163   0.068 -0.1187 -0.2465  0.3226
28975W        W44444  11.058   9.101  14.404 -0.0026 -0.0026 -0.0997
28976W        W44445   1.588   6.593   1.896  0.0750  0.1214  0.3228
28977W        W44446  12.884   6.137   5.216  0.3204  0.1438 -0.0634
28978W        W44447   8.357   2.777  13.236  0.0173  0.4800 -0.2374
28979W        W44448  17.679  13.639   0.815 -0.0965  0.0312  0.0433
28980W        W44449   4.828   9.122  13.631  0.3837  0.0344 -0.1267
28981W        W44450   5.508   8.826   3.743 -0.2804 -0.0281  0.0613
28982W        W44451  10.025   7.648  11.469 -0.0814  0.2289 -0.3382
28983W        W44452   4.141  15.681  11.809 -0.0386 -0.3468  0.0563
28984W        W44453   4.124   7.919   0.707  0.1100  0.0234  0.0273
28985W        W44454   7.279   1.641   4.258 -0.1580 -0.0056  0.0939
28986W        W44455  12.253  16.251  15.152 -0.1895 -0.0971  0.0368
28987W        W44456   3.174  10.019   4.275 -0.0762  0.0042  0.1151
28988W        W44457   2.850   1.300  11.493 -0.0475  0.0697 -0.3020
28989W        W44458   8.898  13.831  10.594  0.1728 -0.0956  0.1433
28990W        W44459   0.950  17.718   2.536 -0.1691  0.3789 -0.1453
28991W        W44460  16.569   2.595  15.254  0.1084 -0.0231  0.3121
28992W        W44461  13.545   4.334  13.242  0.0675 -0.0337  0.0926
28993W        W44462   7.838  14.311   1.761 -0.2839  0.2160 -0.3316
28994W        W44463   0.192  13.122   1.813 -0.2941 -0.0284  0.2183
28995W        W44464   5.152   6.884   2.923  0.0045 -0.0326 -0.0359
28996W        W44465   9.216  17.949  12.021  0.0862  0.3156 -0.1806
28997W        W44466   6.899   6.685   0.827 -0.0023  0.2610  0.0555
28998W        W44467  11.197  16.121  11.060  0.1117  0.0113 -0.3838
28999W        W44468   4.929  13.969   1.538 -0.1378  0.2577  0.0797
29000W        W44469  16.685  10.607  14.005  0.2924 -0.4684 -0.1605
29001W        W44470  10.109  16.636  14.054  0.3819 -0.1001 -0.0387
29002W        W44471   6.789   1.612   3.110 -0.0263  0.2374 -0.0183
29003W        W44472   0.345   3.249  12.141 -0.1982 -0.2073 -0.0260
29004W        W44473   2.406   5.664  14.807  0.2377 -0.1603  0.3832
29005W        W44474   5.439  17.783   0.850  0.0076  0.0696 -0.1621
29006W        W44475   8.423   6.421   4.950 -0.0930 -0.0573  0.1667
29007W        W44476   8.517  15.129  13.191  0.1244  0.0389 -0.1182
29008W        W44477  16.859   5.679   5.408  0.0714 -0.1165  0.0244
29009W        W44478   1.744   1.121  14.258  0.1744 -0.1048 -0.2337
29010W        W44479   9.298   3.904   2.426 -0.0485  0.2726  0.0668
29011W        W44480  16.566  10.003   4.948 -0.1104 -0.0216 -0.0650
29012W        W44481  10.289  11.516  12.821  0.0139 -0.0312 -0.2060
29013W        W44482  16.099   5.216   0.170  0.2666  0.0516 -0.1712
29014W        W44483  16.549  11.581   2.605  0.1818  0.0181  0.0836
29015W        W44484  12.729   4.387  10.325  0.6345  0.3035 -0.1039
29016W        W44485  11.419   4.125   2.586 -0.0549 -0.3578  0.2079
29017W        W44486   5.479   8.175   0.840 -0.1697 -0.2898  0.3374
29018W        W44487   0.569  18.145   4.511 -0.0431  0.0030 -0.1133
29019W        W44488   0.480   7.745   4.695  0.1263  0.0527  0.2292
29020W        W44489  17.110  15.577   0.383  0.0824 -0.0110 -0.2182
29021W        W44490  16.260  10.236  13.406 -0.1065  0.0078 -0.0404
29022W        W44491   9.117   9.858   9.885 -0.0198 -0.0246 -0.0795
29023W        W44492  17.437  11.242  11.208  0.3436  0.1319  0.3462
29024W        W44493  14.310   5.952  14.724  0.0157  0.1854  0.3080
29025W        W44494   4.504   8.113  14.899 -0.0646  0.1076 -0.2686
29026W        W44495  11.452  12.301  10.059 -0.2999  0.3652 -0.0884
29027W        W44496  11.741   6.143   4.949  0.2332  0.1970  0.2986
29028W        W44497  12.496   5.360  12.343  0.1530  0.2780  0.0067
29029W        W44498  10.163   6.285   5.755 -0.0599 -0.0915 -0.0098
29030W        W44499   1.102  12.010   1.697 -0.1301  0.0524  0.1102
29031W        W44500   4.610  17.760   3.142 -0.0347  0.0816  0.0668
29032W        W44501   0.345   2.360   0.383  0.0440  0.2180 -0.0679
29033W        W44502  14.995   5.327   4.504  0.4556  0.1889  0.3969
29034W        W44503   3.524  13.304  12.635  0.0216 -0.3680 -0.0479
29035W        W44504  18.433   3.513   5.638 -0.3898  0.0563  0.0824
29036W        W44505   9.390   5.655  11.691  0.0408  0.1160 -0.2413
29037W        W44506   3.551  12.300   4.320  0.2786 -0.0562  0.0936
29038W        W44507  11.031  16.667   5.184  0.1462 -0.1145  0.2187
29039W        W44508  18.443  14.743   2.465 -0.2428 -0.1257  0.0534
29040W        W44509   3.357   6.347   4.064 -0.5788 -0.1028  0.1927
29041W        W44510  13.242   2.075  13.324 -0.1775  0.0514  0.1981
29042W        W44511   7.240   7.094   5.090  0.0858  0.3706 -0.0261
29043W        W44512  18.079  13.385  11.796  0.1845  0.3102 -0.0768
29044W        W44513  10.509   6.883   4.621  0.0077  0.0008  0.0941
29045W        W44514  10.564   7.533   3.845  0.1946 -0.0437 -0.0010
29046W        W44515  13.409  17.185  14.838 -0.0607 -0.1721 -0.1089
29047W        W44516   7.220  13.117   3.156  0.1960 -0.0005 -0.1840
29048W        W44517  12.527   7.578   0.141 -0.0287  0.3825 -0.2123
29049W        W44518   9.097   5.393   2.234 -0.2061  0.1317 -0.1143
29050W        W44519   9.727  15.263  11.215 -0.0366  0.2105  0.0123
29051W        W44520  12.171   1.427   1.159 -0.0509  0.1085  0.1618
29052W        W44521  16.797   8.391  13.726 -0.1813 -0.0559  0.0357
29053W        W44522  16.048   5.991  11.481 -0.2017 -0.0344 -0.2268
29054W        W44523  12.943  12.008   2.371 -0.5007  0.2985 -0.0440
29055W        W44524  17.134  17.177  12.272 -0.3510 -0.0590 -0.2118
29056W        W44525   0.445  16.255  15.699 -0.0032  0.2828 -0.2043
29057W        W44526   7.602  18.141   3.334  0.2525  0.1086  0.0515
29058W        W44527  13.793  11.619   1.514  0.0366 -0.2502 -0.2407
29059W        W44528   8.453   1.834  13.148 -0.4226  0.0479 -0.1176
29060W        W44529  11.160   2.806  12.204 -0.1181  0.2591 -0.1554
29061W        W44530   8.157  12.226  15.699 -0.0936 -0.0138 -0.1155
29062W        W44531  10.110   9.826   0.321 -0.0743  0.0454 -0.0126
29063W        W44532  14.411   1.644   4.455 -0.2154 -0.2046 -0.0716
29064W        W44533   5.479   3.756  15.673  0.1872  0.2240 -0.2441
29065W        W44534   0.584   8.767   2.180  0.1003  0.1768 -0.2142
29066W        W44535   2.041   4.299   5.620  0.1058  0.2418 -0.1143
29067W        W44536  12.492  15.020  15.288  0.1040  0.1431  0.0359
29068W        W44537   2.030   8.409   4.244  0.2053 -0.3268  0.1168
29069W        W44538  12.476  12.129  12.449  0.0286 -0.1246 -0.4137
29070W        W44539   7.397  16.517   2.488  0.2058 -0.1092  0.0974
29071W        W44540   8.821   8.298  15.129 -0.0344  0.0467 -0.1692
29072W        W44541   7.823   8.830   1.122 -0.0522 -0.3944  0.3698
29073W        W44542  16.826  17.225   4.376  0.1602  0.2210 -0.0553
29074W        W44543  16.350   9.135   2.473 -0.3084 -0.2893 -0.0893
29075W        W44544   8.651  11.067   0.374 -0.0841 -0.1747 -0.3201
29076W        W44545   2.339   8.942   4.985 -0.1797  0.1541  0.0386
29077W        W44546   0.273  10.707  12.433 -0.2738  0.0547 -0.1017
29078W        W44547  14.086  12.942   9.758 -0.0289 -0.0296 -0.1558
29079W        W44548   6.204   5.362   2.102  0.1672 -0.0478  0.2662
29080W        W44549  12.847  10.419   0.076 -0.3367 -0.2451 -0.1979
29081W        W44550  11.439  15.670  10.968 -0.0348  0.1382 -0.1051
29082W        W44551  13.273   9.219  11.517  0.4016 -0.3403 -0.1213
29083W        W44552   7.143   4.732   0.839 -0.1863 -0.2006  0.1502
29084W        W44553   3.988   8.168   4.838  0.1056  0.1145 -0.1270
29085W        W44554  16.156  13.731  11.434  0.0885 -0.2787 -0.1242
29086W        W44555   9.096  12.627   2.529  0.2042  0.1280 -0.0515
29087W        W44556   5.770   6.881   4.739 -0.0790 -0.0917  0.0404
29088W        W44557   5.771   8.296  14.548 -0.2621  0.0854 -0.1537
29089W        W44558  12.905   2.770  11.960 -0.0943 -0.1334 -0.0164
29090W        W44559   8.604  18.308  11.068  0.0264  0.0489  0.4444
29091W        W44560   1.607  16.274  15.289  0.2343 -0.3000 -0.1607
29092W        W44561   1.084   9.889  14.506  0.2789 -0.0309 -0.2954
29093W        W44562  10.982   4.742  12.140  0.0014  0.0445 -0.1051
29094W        W44563  16.576  13.204  14.791  0.0269 -0.2491  0.0097
29095W        W44564   9.092   5.257  14.404  0.1109  0.0384  0.0584
29096W        W44565   8.595  14.921   3.377 -0.1686  0.1220 -0.1921
29097W        W44566   5.165   9.409   5.461 -0.0978 -0.2199 -0.0244
29098W        W44567  11.556  17.033  11.135  0.2062  0.1728  0.0809
29099W        W44568   4.410  14.565   2.216  0.1107 -0.5692 -0.1301
29100W        W44569   3.775   4.204  14.065  0.0738 -0.0853  0.2511
29101W        W44570   8.065  13.723  11.244  0.0969  0.1937  0.2150
29102W        W44571   2.559   6.726   1.987  0.2209 -0.0066  0.1398
29103W        W44572  15.429  11.130   0.404 -0.1143 -0.5126  0.1862
29104W        W44573   1.916  17.915   4.401  0.1003  0.2063 -0.2144
29105W        W44574  15.366  18.176   4.806  0.1862  0.0987 -0.3520
29106W        W44575   9.729   1.208  14.109  0.2158 -0.0063 -0.0610
29107W        W44576  12.794   3.006   0.671 -0.3444 -0.0785  0.2077
29108W        W44577  13.403   9.617   1.268 -0.0168 -0.1943 -0.1947
29109W        W44578  17.395   5.568  15.249 -0.5353 -0.1077  0.0123
29110W        W44579  16.485  18.218   3.016 -0.0687  0.0868  0.3018
29111W        W44580   1.049  17.803  11.464  0.0701 -0.2530 -0.3997
29112W        W44581  17.930   6.899  11.706  0.6025 -0.2256  0.0943
29113W        W44582  15.041  17.262  10.863 -0.4778 -0.1874 -0.2006
29114W        W44583   6.199   0.872  14.016 -0.2343 -0.1417 -0.0139
29115W        W44584  11.395   7.895  12.612  0.0771  0.0195  0.3586
29116W        W44585  14.091   9.366   3.731  0.1457  0.1553 -0.0571
29117W        W44586   6.973   1.477  16.008 -0.0302  0.3031  0.0188
29118W        W44587   6.517   8.559  11.995  0.5087 -0.3200 -0.4106
29119W        W44588  17.369   4.362   4.722 -0.3506 -0.1585 -0.2852
29120W        W44589   5.525  10.878  14.631 -0.2133 -0.1822 -0.0750
29121W        W44590   4.053  17.586   1.454 -0.1346  0.1057 -0.1945
29122W        W44591  16.208  18.188   1.075 -0.0995 -0.2231  0.1218
29123W        W44592  12.519   5.510   1.817 -0.3819  0.0572 -0.0591
29124W        W44593  10.593   3.275  10.574 -0.0964  0.2042  0.0852
29125W        W44594   2.438  10.197  15.057 -0.4339  0.0394  0.1633
29126W        W44595  10.517   0.817   4.222  0.1261 -0.0747  0.0285
29127W        W44596   5.287  14.032  12.305  0.0168 -0.0444  0.1582
29128W        W44597  11.391   8.278   0.803  0.3613  0.0603 -0.3274
29129W        W44598  16.383  15.875  15.581 -0.0603  0.2196  0.1054
29130W        W44599   3.291  17.380  15.847 -0.3272 -0.0017  0.0570
29131W        W44600   6.365   2.086   2.308  0.3155  0.0460  0.0490
29132W        W44601   8.127  12.927   2.200 -0.1463  0.3336  0.1206
29133W        W44602   9.959  16.016   0.134 -0.0448 -0.0990  0.0976
29134W        W44603   3.689   8.658   5.901  0.1480  0.1156 -0.0034
29135W        W44604  10.119   2.035   5.333  0.0581  0.2422  0.2820
29136W        W44605   4.016  18.258   2.699 -0.1770 -0.0871 -0.1951
29137W        W44606  10.919   5.984  14.060 -0.1879  0.0690 -0.0419
29138W        W44607  13.305   6.802  11.638  0.1799 -0.3291  0.0321
29139W        W44608  18.193   8.419   4.841 -0.0736  0.0022  0.2085
29140W        W44609   8.526   8.145  12.881  0.0069  0.1180  0.0119
29141W        W44610  15.973   9.424   2.263 -0.1729 -0.0846  0.0425
29142W        W44611  16.663  11.944   4.122 -0.2811  0.0677 -0.3083
29143W        W44612   8.464  14.673   0.270 -0.1402  0.3665 -0.1532
29144W        W44613   4.504  16.475   2.351 -0.0991  0.3315 -0.0213
29145W        W44614  17.217  13.885  13.889  0.2328  0.0307 -0.2737
29146W        W44615   3.246   5.094   0.678  0.0864  0.0124  0.1424
29147W        W44616  12.638   9.883   1.285 -0.0891  0.0015  0.0935
29148W        W44617   6.514   1.465  15.116 -0.0349 -0.2057 -0.5024
29149W        W44618   0.800  16.370  14.197  0.0977  0.1739 -0.1564
29150W        W44619  16.052   8.397  12.526  0.2339  0.0562 -0.1559
29151W        W44620  12.213   8.975   4.840 -0.3001  0.0085 -0.0573
29152W        W44621   1.348  11.014  13.189  0.0509 -0.0792  0.0541
29153W        W44622  15.536   7.452   2.626 -0.0319  0.0315 -0.3024
29154W        W44623   2.485  17.301   0.595  0.0237 -0.3011 -0.1503
29155W        W44624  16.215  11.134   3.236  0.3677 -0.4202  0.1053
29156W        W44625   3.962  14.472  11.246 -0.1635  0.0193 -0.0462
29157W        W44626   7.668   6.343   3.943 -0.2022 -0.1450 -0.3833
29158W        W44627  15.450  10.812   3.777 -0.1508 -0.0141 -0.1149
29159W        W44628   8.930  14.069  11.065 -0.2411  0.0348  0.0487
29160W        W44629  18.324   9.445  13.913 -0.0352  0.6357  0.0542
29161W        W44630  18.144  15.288  13.347  0.1766  0.3240 -0.2115
29162W        W44631   3.801  14.734   4.621  0.0151 -0.2607  0.0227
29163W        W44632   7.404   9.427   2.614  0.0265 -0.1189  0.2420
29164W        W44633   2.531  16.142  14.959  0.1073  0.3580 -0.3228
29165W        W44634   5.873   8.628   1.713  0.1375  0.0476  0.4802
29166W        W44635   2.123   6.754   0.131  0.0590 -0.0658 -0.1784
29167W        W44636  13.585   4.002  11.548  0.2623  0.2035  0.0892
29168W        W44637   9.742  15.636   2.418  0.2674  0.4000  0.4289
29169W        W44638   3.565   5.442  12.499  0.0362  0.1118  0.1603
29170W        W44639  10.301   3.634   0.070 -0.4448 -0.2729 -0.2436
29171W        W44640   9.754  17.785  15.281  0.0820  0.1968 -0.0005
29172W        W44641   1.607   2.013  11.060  0.0401  0.1870 -0.2859
29173W        W44642  16.161  11.632  15.416  0.0354  0.2848 -0.2302
29174W        W44643  17.785   9.999  14.866  0.1626 -0.1694 -0.1772
29175W        W44644   9.957   9.349  11.277  0.0584 -0.3076 -0.1099
29176W        W44645   5.106   2.231   2.587 -0.1991  0.1927 -0.0315
29177W        W44646   1.960   1.864   6.354  0.0368  0.0724  0.0119
29178W        W44647   6.310   3.086  11.751  0.0599  0.0099  0.1415
29179W        W44648  12.723  13.884  12.769  0.1195  0.3082  0.3680
29180W        W44649   1.216   8.072  12.422  0.0234  0.2985  0.1062
29181W        W44650   6.885   5.908   0.009 -0.0674 -0.0262 -0.0171
29182W        W44651  10.208  14.707   0.014 -0.2495 -0.3314  0.0984
29183W        W44652   7.181   3.383  15.045 -0.0722  0.0009  0.1988
29184W        W44653   5.386  14.344  15.793 -0.0083  0.0261  0.0953
29185W        W44654   3.283   3.031   3.528 -0.0431  0.0180  0.0848
29186W        W44655   8.015   4.495  14.449 -0.2209 -0.0252 -0.1518
29187W        W44656  14.857  15.282   2.771 -0.0376  0.1306 -0.4034
29188W        W44657  11.657  10.822   5.086 -0.0764 -0.0137 -0.0808
29189W        W44658   1.762   8.962  13.994 -0.2736  0.1094  0.0530
29190W        W44659   8.784   9.713  14.176  0.1325  0.1099 -0.1643
29191W        W44660  14.492  10.598   3.983  0.0373  0.1784  0.0803
29192W        W44661   8.844   9.857   1.837  0.1663  0.2335 -0.0140
29193W        W44662   4.327  17.069  15.261  0.0382 -0.1360 -0.1900
29194W        W44663   1.931  10.893  13.727 -0.0410  0.1351  0.0065
29195W        W44664  14.967   8.527  11.821 -0.0864  0.0270  0.0862
29196W        W44665   2.897  11.999   0.887 -0.0618 -0.1167 -0.2587
29197W        W44666   6.300   8.227  13.778  0.0273 -0.0428  0.0929
29198W        W44667   6.161  12.040   1.241  0.0896  0.0082  0.0485
29199W        W44668   8.333  10.665   3.638 -0.0968 -0.1638  0.0547
29200W        W44669   1.319  10.631  15.306 -0.0267  0.1564 -0.1183
29201W        W44670   6.368  10.564  13.026 -0.1190  0.1172 -0.1282
29202W        W44671   5.796  11.126  15.645 -0.2725  0.2103 -0.1352
29203W        W44672   1.015   5.221  14.569  0.4420 -0.1498 -0.0158
29204W        W44673  15.812   0.462   0.945  0.1286  0.0590  0.0975
29205W        W44674  18.279   2.526   5.460 -0.0091 -0.2031 -0.1425
29206W        W44675   2.800  17.584   5.813 -0.0748  0.2632 -0.1801
29207W        W44676   3.253  12.689   4.990  0.0834 -0.1323  0.1237
29208W        W44677  16.653  16.676  15.471  0.0882  0.0727 -0.0913
29209W        W44678  14.948  18.091  11.080  0.1141 -0.1251  0.1100
29210W        W44679  10.070  14.856  12.646  0.1271 -0.3093 -0.0845
29211W        W44680  13.641   9.072  12.476 -0.0326  0.0598  0.0613
29212W        W44681  13.274  15.807   5.671 -0.1613  0.0106  0.1256
29213W        W44682  16.884  11.122  13.902 -0.0066 -0.0052 -0.1934
29214W        W44683   8.953  16.806  15.147  0.0435  0.2320  0.0199
29215W        W44684  16.713   6.494   4.938  0.0590  0.0144  0.1332
29216W        W44685   9.263   0.500   0.724 -0.1628  0.3027 -0.1443
29217W        W44686  16.475  11.517  11.849  0.0212 -0.1081  0.3668
29218W        W44687   6.701  10.316  12.389  0.0947 -0.0072 -0.2653
29219W        W44688   2.465  13.092  11.957 -0.2877 -0.1070  0.2704
29220W        W44689  13.233   5.879  13.784 -0.2659 -0.2056 -0.1420
29221W        W44690  12.391  12.428  14.393  0.0768 -0.5976  0.1195
29222W        W44691   3.291   1.628   2.619 -0.1654  0.1183 -0.0611
29223W        W44692   0.812   9.981  12.523 -0.2326  0.4099  0.1767
29224W        W44693   6.106   2.962   2.150  0.0985  0.0956 -0.0726
29225W        W44694  15.815   6.069   5.449  0.1701  0.0026  0.1072
29226W        W44695   3.786  17.332  10.839 -0.2333  0.1461 -0.1258
29227W        W44696   2.831   7.169   3.366 -0.0452 -0.0394 -0.0028
29228W        W44697  12.351  15.023   2.020 -0.0704 -0.1075 -0.1387
29229W        W44698   2.803   9.709  12.746  0.2034  0.2074  0.1966
29230W        W44699  11.980  10.943  15.003  0.1643  0.1904 -0.2307
29231W        W44700  12.327   8.225   1.963 -0.0610 -0.3205 -0.0337
29232W        W44701  17.109   9.769  10.529  0.0507  0.3981 -0.1194
29233W        W44702   2.649  14.541  12.866  0.0462 -0.2168 -0.1136
29234W        W44703  16.527   7.964  13.841 -0.0214  0.0196 -0.1462
29235W        W44704   6.821   6.523  11.164  0.0049  0.2592 -0.1819
29236W        W44705   7.787  10.841   4.579 -0.0128 -0.0446  0.0225
29237W        W44706   1.887  10.956  15.890  0.0879 -0.0487 -0.1882
29238W        W44707   2.160   6.336  12.100 -0.0035  0.3930 -0.0083
29239W        W44708  10.687  17.540  14.440 -0.0272 -0.0800 -0.2148
29240W        W44709   2.853   1.613   0.908  0.2311 -0.0095 -0.0225
29241W        W44710  16.618  10.579   2.388 -0.0047 -0.2406  0.1020
29242W        W44711  13.568  10.475  15.141 -0.1988 -0.0509  0.0289
29243W        W44712  10.885  16.241  15.608  0.0693 -0.1533 -0.0728
29244W        W44713  10.996  15.522   9.510 -0.0795  0.0557  0.2555
29245W        W44714   3.695   5.586  13.388 -0.1709 -0.0550 -0.4101
29246W        W44715   5.995   7.260  15.321  0.1657  0.2575  0.2810
29247W        W44716   1.045   0.814   2.165 -0.0800 -0.3513  0.1241
29248W        W44717   7.306  17.659   1.765  0.1102 -0.2816  0.0750
29249W        W44718  10.544  14.538  11.240  0.1462 -0.1227  0.0441
29250W        W44719  10.973   8.629   2.723 -0.1894  0.0559 -0.0034
29251W        W44720  10.266   4.864  11.194 -0.2777 -0.1301 -0.2843
29252W        W44721  14.337  11.248  15.925 -0.1231 -0.0011 -0.2359
29253W        W44722   4.902  16.466   1.442  0.0580 -0.1341  0.2667
29254W        W44723   0.024   5.353   0.629  0.1455 -0.0456  0.2060
29255W        W44724   6.812   9.636  15.185 -0.1181  0.2406  0.1426
29256W        W44725  14.370   1.056   1.742 -0.0527  0.1863  0.1072
29257W        W44726  12.858  15.420  14.397  0.0777  0.0824 -0.0033
29258W        W44727   9.603  16.492   0.750 -0.2531  0.1056  0.1182
29259W        W44728   9.370   5.271   4.011  0.0576  0.1603  0.0434
29260W        W44729  13.346  18.274  15.648 -0.0056 -0.0305 -0.0751
29261W        W44730   0.889  14.854  14.602  0.1950 -0.2047 -0.1409
29262W        W44731  16.324   3.141   5.140  0.2296  0.0028 -0.0226
29263W        W44732  14.990  15.693   4.860  0.0960 -0.0736 -0.1194
29264W        W44733  13.646  17.153   0.839  0.1593 -0.2551  0.1568
29265W        W44734   5.754   2.188  15.904 -0.0737 -0.0573  0.0180
29266W        W44735   1.160  17.465  11.839  0.2374 -0.2104  0.1934
29267W        W44736   0.607  18.388   0.135 -0.0376 -0.0633  0.0727
29268W        W44737  10.830  10.877  15.195 -0.2812 -0.1767  0.0686
29269W        W44738  10.227   5.733   1.217  0.1273  0.0002 -0.3380
29270W        W44739   1.475   1.917  12.513 -0.3515 -0.1120  0.1253
29271W        W44740  17.425   6.212  13.934  0.0950  0.1173  0.1916
29272W        W44741   1.275   8.987  15.397 -0.2221 -0.1513 -0.1631
29273W        W44742   8.078  14.287   2.209 -0.0606 -0.0885 -0.1200
29274W        W44743   7.562  16.814  12.770  0.3678  0.2391  0.2187
29275W        W44744   9.704   6.947   3.309  0.1228 -0.2336 -0.2519
29276W        W44745   1.019  13.042  14.057  0.1108  0.0364 -0.1506
29277W        W44746   8.698   4.135   5.463 -0.0639 -0.4771  0.1905
29278W        W44747  14.999   9.374  11.360 -0.1068  0.1869 -0.2642
29279W        W44748   2.497  11.051  15.331  0.0721 -0.0911  0.0924
29280W        W44749  12.815   6.612  11.690  0.0622 -0.4238  0.1139
29281W        W44750  14.839   9.964  10.490  0.0401 -0.0931 -0.0033
29282W        W44751   8.361   0.628  12.803 -0.0731 -0.1342 -0.0940
29283W        W44752   0.808   4.098   4.685 -0.1805  0.2300  0.3062
29284W        W44753  18.326   0.973   1.985  0.2064  0.2140 -0.3150
29285W        W44754   9.425  10.410   0.495  0.0895 -0.0904 -0.0037
29286W        W44755  14.851   0.420   0.518 -0.0436 -0.0711  0.0330
29287W        W44756   6.322  15.367   0.218  0.5199 -0.4196  0.0181
29288W        W44757   1.735   1.573  15.238  0.0912 -0.0320  0.1449
29289W        W44758  12.347   5.430   2.791 -0.1204 -0.0116  0.1385
29290W        W44759   9.774   0.660   0.645  0.0828  0.1935  0.0748
29291W        W44760  15.539  13.347   3.004  0.2892  0.1529 -0.0929
29292W        W44761   3.640  18.226  13.800  0.0602 -0.1193 -0.0559
29293W        W44762   0.999   5.655   0.549 -0.0560  0.2217 -0.0934
29294W        W44763   0.545  17.365   2.141 -0.1889 -0.3782 -0.0070
29295W        W44764  11.822   5.643   0.003 -0.1870  0.0359  0.0190
29296W        W44765  13.206   3.026  14.892 -0.0458 -0.1940 -0.3285
29297W        W44766  16.312  17.112   2.004  0.2292  0.3227 -0.0114
29298W        W44767   1.380  11.629  14.634 -0.1827 -0.0157 -0.0623
29299W        W44768  14.825  16.047  12.733  0.2197  0.1233  0.1783
29300W        W44769  12.168  15.299  11.959 -0.0056  0.0251  0.4223
29301W        W44770   9.231   1.563  11.140  0.0552 -0.1297 -0.0589
29302W        W44771  14.598   7.752  12.244  0.1354  0.2660  0.0535
29303W        W44772  14.338  15.416   3.273 -0.6709 -0.1070  0.3041
29304W        W44773   5.051  15.215  11.278 -0.0041 -0.0681  0.0194
29305W        W44774   2.792   0.026  12.175  0.4876  0.1625  0.1663
29306W        W44775   5.402  15.123   4.729 -0.1925 -0.0394  0.0907
29307W        W44776  13.675  11.887  13.318  0.0252  0.0162  0.0313
29308W        W44777   7.894  16.147   0.849  0.0349 -0.1728  0.3598
29309W        W44778  13.842   6.242  15.081  0.2671 -0.2256  0.0008
29310W        W44779  13.767   0.043  15.879  0.2348 -0.1638  0.3241
29311W        W44780   8.601  12.987   9.971  0.0798 -0.2058 -0.2450
29312W        W44781  12.691  13.382  12.700  0.1033 -0.0697  0.1148
29313W        W44782   0.865   3.462  12.049  0.0114 -0.0125  0.0066
29314W        W44783  17.699  13.066  11.999  0.0190 -0.1245  0.0015
29315W        W44784   0.174  15.787  15.795 -0.0399 -0.0267  0.3468
29316W        W44785   5.072   4.019   6.088 -0.3884  0.2886  0.0503
29317W        W44786   4.122  17.278   2.802  0.4205  0.0287  0.2656
29318W        W44787   1.396   5.493  11.852 -0.0217 -0.0644  0.2554
29319W        W44788   6.713  13.109  11.138  0.1075 -0.2773  0.0286
29320W        W44789   9.908  10.022   4.224  0.1663  0.5073 -0.1124
29321W        W44790  14.545   1.509   1.787 -0.0544  0.1473  0.1331
29322W        W44791   7.865  13.329   3.247  0.0734  0.1401 -0.0800
29323W        W44792   4.695  14.103  14.646  0.1554  0.2511  0.0549
29324W        W44793   0.326   8.608   0.333 -0.0527  0.0023  0.0359
29325W        W44794  18.167  13.074   1.102  0.1557 -0.1588  0.1202
29326W        W44795  13.130   7.357   4.917  0.0527  0.0149 -0.2622
29327W        W44796   7.432   8.413  14.506  0.1219  0.0498 -0.0103
29328W        W44797   4.418  15.896   0.917 -0.0116  0.2220 -0.2592
29329W        W44798   8.105  16.371  13.906  0.1831  0.1550 -0.2119
29330W        W44799  16.574   5.654   4.478 -0.0296  0.1018 -0.0119
29331W        W44800   8.288  14.836  10.953 -0.0464 -0.2968  0.1806
29332W        W44801  15.099   3.571   4.796 -0.0263 -0.2683 -0.1492
29333W        W44802  10.038   0.188  10.978 -0.1357  0.1193  0.1775
29334W        W44803  11.914   8.486   1.189 -0.0461  0.2046  0.2050
29335W        W44804  16.610  11.779   1.445  0.0659  0.0521  0.2132
29336W        W44805  16.364   2.722  12.754  0.5580 -0.2987 -0.0165
29337W        W44806  18.377  16.151  14.277 -0.0867  0.1243 -0.0739
29338W        W44807  18.447  18.237  13.256  0.0184  0.0838 -0.1926
29339W        W44808   0.980   4.523  12.317 -0.0570  0.3311 -0.2542
29340W        W44809   1.505   9.268  13.206 -0.2036  0.1679  0.0862
29341W        W44810  10.537   0.497  13.934  0.1889 -0.0881 -0.2208
29342W        W44811   0.888   7.145  15.108  0.2065  0.2613  0.1827
29343W        W44812   6.448   8.847  13.744 -0.1783  0.1400 -0.2408
29344W        W44813   6.702  11.496   0.470  0.0823 -0.2143 -0.2025
29345W        W44814  13.074  11.134  11.100  0.0530  0.1139 -0.0622
29346W        W44815  13.026  13.035  12.863  0.0192 -0.2776 -0.2186
29347W        W44816   3.404   6.372   3.517  0.2661 -0.2233 -0.2018
29348W        W44817  11.812   1.225   2.710 -0.0015 -0.1523  0.1248
29349W        W44818   7.653   7.802   3.788 -0.0376 -0.1345  0.2244
29350W        W44819  12.511   4.117   1.723 -0.2075  0.2062 -0.1992
29351W        W44820   9.450   5.631  14.752 -0.2640 -0.1610  0.0154
29352W        W44821   3.926  14.435   9.679 -0.3387 -0.1833  0.1752
29353W        W44822  12.848  11.416  14.935  0.0308 -0.0411 -0.1931
29354W        W44823   9.819  16.150  14.266  0.3117 -0.1110  0.0032
29355W        W44824   6.400   7.614   1.516  0.0647  0.0348 -0.0995
29356W        W44825  11.606  16.326   0.375 -0.2804  0.0190  0.2222
29357W        W44826   8.308  16.565  12.474 -0.1904 -0.0912 -0.1716
29358W        W44827  12.596  11.600   3.091  0.0089  0.0604  0.1341
29359W        W44828  14.509  10.007   2.449  0.0807  0.0550  0.3076
29360W        W44829  16.651   1.067  13.347 -0.3099  0.2172 -0.1360
29361W        W44830  17.457   9.705  15.208  0.1379  0.0594  0.1785
29362W        W44831   0.970   2.113  13.449 -0.1326 -0.0752  0.1682
29363W        W44832   5.948   3.303   1.278 -0.1376  0.1166  0.2448
29364W        W44833  17.870  11.545   4.226 -0.0354  0.0931  0.1653
29365W        W44834   8.874   8.215  13.741 -0.3489 -0.1276 -0.0649
29366W        W44835   6.892  15.343   2.243  0.4230 -0.1302 -0.4551
29367W        W44836  13.594  15.949   2.923  0.1243 -0.0147  0.0908
29368W        W44837   4.831   8.963  12.643 -0.2363  0.1037  0.3220
29369W        W44838   5.537  15.185  11.055 -0.2265  0.1288  0.1772
29370W        W44839   3.773   4.191  12.199 -0.2118 -0.0150 -0.0188
29371W        W44840   7.517   8.631  10.369  0.0592 -0.0646 -0.4652
29372W        W44841   7.332   4.454   4.849 -0.0528 -0.2343 -0.2362
29373W        W44842  10.899   7.011   1.366  0.2607  0.2399 -0.1387
29374W        W44843  11.339  15.382   4.564  0.1347  0.3848 -0.1867
29375W        W44844  16.179  17.645  14.117 -0.0124 -0.0238 -0.1973
29376W        W44845   2.681   1.322   3.123 -0.0810  0.0823  0.0600
29377W        W44846  16.315  13.246  11.459 -0.3499  0.1472 -0.3503
29378W        W44847   9.424   8.764  15.449  0.0169  0.0496 -0.0271
29379W        W44848   2.942  12.067   2.253  0.2278 -0.0922 -0.0936
29380W        W44849  16.742  12.433  11.812 -0.3986  0.0454 -0.0823
29381W        W44850  12.782  12.938   3.267  0.2694 -0.0996 -0.0672
29382W        W44851   2.936   8.202  15.595  0.0332 -0.0695 -0.0176
29383W        W44852   0.836  12.679  14.859  0.1400  0.0951  0.2245
29384W        W44853   6.925  14.330   1.621 -0.2662 -0.2390  0.1674
29385W        W44854   6.312   2.104   3.413 -0.0377 -0.0136  0.1736
29386W        W44855  13.392   8.240  11.780  0.2284 -0.0494 -0.0128
29387W        W44856   0.633   6.875  12.082 -0.1611  0.2344  0.1987
29388W        W44857  12.606  14.545  15.094 -0.1936 -0.0077 -0.2241
29389W        W44858   2.893   0.716   4.920  0.3191 -0.0841 -0.0537
29390W        W44859   3.952  18.037  15.064  0.1364 -0.0647  0.1430
29391W        W44860  15.693   8.123  12.930  0.1772 -0.2381  0.1652
29392W        W44861   9.186   4.366   1.566 -0.1766 -0.0541  0.3912
29393W        W44862  17.592   2.761   2.464 -0.0556 -0.2817 -0.0974
29394W        W44863  16.405  17.943   4.626 -0.1807 -0.0450 -0.0641
29395W        W44864   6.980  16.796  13.467  0.1212  0.0645 -0.2261
29396W        W44865  12.167  18.367   2.552 -0.2596 -0.0162 -0.0442
29397W        W44866  14.348  17.190   1.012  0.0141 -0.2349  0.0521
29398W        W44867   2.840  13.058   2.360  0.0764 -0.0578 -0.0767
29399W        W44868   2.186  12.183   3.561 -0.1656  0.0947 -0.0113
29400W        W44869  10.522   8.529   0.908 -0.0791  0.1156  0.1382
29401W        W44870  17.710  11.012   4.884  0.0242 -0.1605  0.0316
29402W        W44871  11.398   8.669  14.286 -0.1920  0.1392 -0.0075
29403W        W44872   4.418  11.720  11.132  0.1933  0.3277 -0.1297
29404W        W44873   9.682   6.604   1.801 -0.0584 -0.1355  0.0199
29405W        W44874  17.098   3.495   0.326  0.0767 -0.0588  0.2406
29406W        W44875  17.175   6.705   4.190  0.0334  0.0567 -0.0781
29407W        W44876   6.654   4.324   1.408 -0.1053 -0.0832 -0.2555
29408W        W44877   2.737  12.483  15.666 -0.3443 -0.1663  0.0503
29409W        W44878  15.365   2.857  12.328 -0.1058 -0.0485 -0.1415
29410W        W44879   6.231   5.018  11.623 -0.2892  0.0447 -0.1171
29411W        W44880  17.811   8.160  12.056  0.0313  0.1167  0.1871
29412W        W44881  12.640   7.787   4.178  0.0491 -0.3218 -0.3785
29413W        W44882   9.380  18.321  14.299  0.1716 -0.1939 -0.1139
29414W        W44883  18.034   7.656   1.298  0.3375 -0.0257  0.1392
29415W        W44884   8.459   8.975  11.668  0.1555 -0.1084 -0.0016
29416W        W44885   3.738   3.725   4.912 -0.0539  0.0371 -0.2727
29417W        W44886  13.630   7.641   0.582  0.3097 -0.1084  0.1350
29418W        W44887   1.191   6.051  14.948 -0.1679  0.1663  0.0921
29419W        W44888  10.819   2.986   4.464 -0.1180 -0.1379  0.0277
29420W        W44889   1.868  17.521   2.575 -0.1320  0.0881 -0.2627
29421W        W44890   6.299   6.259   2.937  0.3695 -0.2141  0.0391
29422W        W44891   1.125   4.120   1.642  0.1049  0.2890 -0.0803
29423W        W44892   8.840  11.393   1.266  0.2125 -0.0435  0.0619
29424W        W44893  12.747  17.332  11.682 -0.1789 -0.3809  0.0045
29425W        W44894   6.885   6.775   5.281  0.0561 -0.2560  0.0226
29426W        W44895  16.637   8.873   3.330 -0.0829 -0.1779  0.1093
29427W        W44896  10.385   2.266   3.435  0.1168  0.1782  0.1667
29428W        W44897   5.190   6.299   3.760 -0.0402  0.0040 -0.0168
29429W        W44898  14.997   5.551  13.507 -0.0786 -0.0150  0.0112
29430W        W44899   4.833   2.515   0.586 -0.2007  0.0721 -0.0472
29431W        W44900  13.628   4.294  14.587  0.3847  0.1263  0.3184
29432W        W44901   9.354  13.985   1.143 -0.1917 -0.1055 -0.0490
29433W        W44902  16.305   2.584  11.982 -0.5070  0.0959 -0.0247
29434W        W44903  16.651   2.807  13.896 -0.0761  0.0421  0.1508
29435W        W44904  11.810   5.827  14.895 -0.0624 -0.0286  0.0373
29436W        W44905  13.525  11.962   5.422 -0.0182 -0.1041  0.1759
29437W        W44906   1.439  11.015   0.694 -0.1812  0.1754  0.1054
29438W        W44907   7.636  13.380   0.514 -0.1073  0.1544  0.0148
29439W        W44908  11.283  13.628  15.368 -0.3218  0.1893 -0.1420
29440W        W44909   4.401  13.257  11.626 -0.0186  0.2763  0.2514
29441W        W44910   0.838   3.359   2.342 -0.0253  0.2045 -0.0797
29442W        W44911  15.865   6.243   2.107 -0.4156  0.1008 -0.1254
29443W        W44912   6.778   8.629   3.878  0.2700  0.1813  0.0206
29444W        W44913   8.366   4.208  15.565  0.1468 -0.2317 -0.0322
29445W        W44914  12.509  15.518  11.026  0.0401 -0.0342  0.2002
29446W        W44915   6.457   6.016   9.968 -0.0528 -0.1437 -0.1154
29447W        W44916   7.068  16.246  15.261  0.0608  0.2787  0.2563
29448W        W44917   4.629  13.236   1.869  0.1710 -0.1160 -0.0955
29449W        W44918   7.892  14.631  14.331 -0.5246  0.0750  0.2144
29450W        W44919   3.149   9.722  11.970  0.2252 -0.1425 -0.1047
29451W        W44920   8.691  12.319   3.764  0.0539  0.2641  0.0323
29452W        W44921  13.240  15.158   2.248 -0.0900 -0.0402 -0.1291
29453W        W44922   9.814   8.051  15.119 -0.1789 -0.0095  0.0632
29454W        W44923   9.152   1.285   4.222  0.0448  0.0265  0.3295
29455W        W44924   2.494   7.028   6.122 -0.0601 -0.1056 -0.1062
29456W        W44925  17.177   8.039  14.026  0.0580  0.0116  0.1453
29457W        W44926   0.877   7.043   4.748  0.0855 -0.1167  0.0814
29458W        W44927   0.527  13.999   1.190 -0.1472  0.0950 -0.5923
29459W        W44928  15.540   0.015  15.761 -0.0302  0.3634  0.0682
29460W        W44929  16.419   7.690   2.181 -0.0133 -0.0632  0.0896
29461W        W44930   0.889  15.036   3.451 -0.1910  0.0915 -0.1195
29462W        W44931   1.227   3.677  11.777  0.0633 -0.3864  0.0053
29463W        W44932  14.349   1.723  12.369  0.1088 -0.0453  0.1144
29464W        W44933   5.946  16.732  13.436 -0.1639  0.0880 -0.2025
29465W        W44934  14.448   4.396  11.354  0.1484  0.2441  0.0762
29466W        W44935   4.549  15.988   2.280 -0.2489 -0.0216  0.0833
29467W        W44936  15.066   7.998   0.837  0.1643  0.1164 -0.1624
29468W        W44937  12.263  12.950   3.147  0.0425 -0.2899  0.1354
29469W        W44938  17.042  12.651   4.372 -0.0715  0.0723  0.0535
29470W        W44939  16.632  12.287  15.457  0.1560 -0.1602 -0.2462
29471W        W44940  16.549   1.818   3.627  0.2053  0.1957 -0.1225
29472W        W44941  10.740   2.560  13.217  0.2134 -0.2298 -0.2124
29473W        W44942  17.957   7.377  14.627  0.3143  0.2266 -0.0398
29474W        W44943   8.670   7.554   2.402 -0.3590 -0.0357  0.1911
29475W        W44944   1.125   8.304   5.104 -0.0875  0.1656  0.3153
29476W        W44945   3.060  14.385  15.073 -0.2889 -0.0430 -0.0985
29477W        W44946   4.281   9.782  15.383  0.0289  0.2579 -0.0267
29478W        W44947  13.033   6.045  12.870 -0.2466 -0.2818  0.1145
29479W        W44948   6.994   7.756  14.088  0.3509 -0.2300  0.0857
29480W        W44949  12.491  18.323  15.982 -0.1417 -0.1532  0.0680
29481W        W44950   3.616  13.544   1.251  0.0056 -0.3510 -0.3032
29482W        W44951   3.618  14.026  15.375  0.1829 -0.1566 -0.1439
29483W        W44952  10.203  15.494  11.082 -0.1439 -0.0799  0.0261
29484W        W44953  16.176  17.639  11.816  0.0978 -0.2484  0.1077
29485W        W44954   8.876   9.139   4.312 -0.1401 -0.0124  0.1647
29486W        W44955   7.014   0.392  15.435  0.1129  0.1137 -0.0254
29487W        W44956   6.984   4.380  12.772  0.0316 -0.4048 -0.1722
29488W        W44957   3.241  17.002  15.541 -0.0769 -0.2770  0.2022
29489W        W44958  14.303  14.931   2.104  0.1826 -0.0955  0.3630
29490W        W44959  10.766   2.643   3.766  0.0744  0.0654 -0.0479
29491W        W44960  13.751   2.409  10.985  0.2876  0.2575  0.0623
29492W        W44961   5.558   2.405  11.278  0.1369  0.1198 -0.1956
29493W        W44962   4.428  14.528   2.684  0.1205  0.2303  0.0816
29494W        W44963  16.094  15.343   4.648  0.0001  0.0582 -0.1971
29495W        W44964  10.365   4.883  15.403  0.1389  0.0422  0.2056
29496W        W44965   2.330   6.799  15.344 -0.0221 -0.2131  0.0971
29497W        W44966   3.697  10.484   0.004 -0.2164 -0.2700  0.0198
29498W        W44967  16.485   5.454  15.979  0.0680  0.1732 -0.0286
29499W        W44968   8.699   0.847   2.925 -0.0790  0.4704  0.0947
29500W        W44969   5.410   6.107   5.840  0.1452 -0.1855  0.0241
29501W        W44970  11.731   5.874   4.394 -0.0125 -0.2208  0.0190
29502W        W44971   4.092   3.204  15.650  0.0329 -0.2742 -0.1805
29503W        W44972   4.689  16.403  12.361  0.2551 -0.1900  0.0226
29504W        W44973   3.490  11.541   3.666 -0.0147  0.0185  0.0694
29505W        W44974   8.017   5.293   0.595 -0.0271 -0.0991 -0.2845
29506W        W44975   9.785  15.998   0.824  0.0200  0.0106 -0.0828
29507W        W44976   9.674   7.567   0.571  0.0186  0.0174  0.1730
29508W        W44977   4.116   8.463   1.510 -0.1695 -0.1620  0.2372
29509W        W44978   6.515   1.213   3.035 -0.0144 -0.0089  0.0313
29510W        W44979   9.752   7.425  11.115  0.2025 -0.1198 -0.0261
29511W        W44980  17.419   5.934  13.336 -0.1605 -0.0398 -0.1180
29512W        W44981   6.420  12.518  13.981 -0.0896 -0.0841 -0.2566
29513W        W44982   9.594  12.913   4.100  0.0755 -0.0584 -0.3046
29514W        W44983   5.693  14.743   4.561 -0.0841  0.1613  0.0989
29515W        W44984  16.493  16.584  14.646  0.0503  0.2101  0.2694
29516W        W44985   4.987   7.539   6.035  0.2722 -0.0612  0.0263
29517W        W44986   7.454  12.728   2.958 -0.0421 -0.0377  0.0740
29518W        W44987  17.814  17.293  15.059  0.1110 -0.3109  0.1088
29519W        W44988  10.320  16.644  14.512  0.0820 -0.1437  0.2941
29520W        W44989   5.600  16.802  12.546 -0.0526 -0.3095  0.1162
29521W        W44990  16.257   0.645   5.429  0.1894  0.0187  0.2728
29522W        W44991  11.313   6.938   3.222 -0.1798 -0.0635  0.1423
29523W        W44992   1.651   6.190  13.118  0.1083 -0.0738 -0.0460
29524W        W44993  10.067   1.118   2.022 -0.1732  0.3502 -0.2471
29525W        W44994   5.782   0.591  14.895 -0.0598 -0.0068  0.1049
29526W        W44995   0.923  12.929   4.271 -0.0525  0.0570  0.1185
29527W        W44996  11.663  13.721  15.093  0.1916  0.1818  0.2522
29528W        W44997  16.687   5.851   5.928  0.1352 -0.1316  0.0862
29529W        W44998   8.185   1.002   1.711 -0.0730 -0.1094  0.1194
29530W        W44999   4.824   6.235  15.189  0.1592 -0.0206 -0.3120
29531W        W45000   6.234  12.067   6.023  0.1886 -0.1779 -0.1590
29532W        W45001  18.043   2.209  15.325  0.0424  0.0457 -0.1192
29533W        W45002  17.685   4.144  12.565  0.1152  0.1862 -0.0260
29534W        W45003  16.965   3.774   3.754 -0.1762 -0.0179  0.0052
29535W        W45004   5.254  12.512  11.573  0.3171  0.4099 -0.1100
29536W        W45005   4.555   9.805  14.924 -0.1180 -0.0475  0.3069
29537W        W45006  14.030   9.100  11.441  0.1390  0.1364 -0.0887
29538W        W45007  12.007   0.929   5.098 -0.0733  0.3341 -0.1368
29539W        W45008  14.263  14.008   1.021 -0.1423 -0.1451  0.2249
29540W        W45009   5.818  16.329  14.296 -0.3191 -0.1770 -0.0443
29541W        W45010   0.109  10.448  15.845  0.1958  0.0825  0.1755
29542W        W45011   9.326  17.660  11.246  0.1060 -0.1349  0.0173
29543W        W45012  18.377  18.159  11.706  0.4027  0.0289  0.0539
29544W        W45013   3.839   5.848   0.374 -0.1379  0.0832 -0.0862
29545W        W45014   6.204   4.126  15.308 -0.0076  0.1361  0.0121
29546W        W45015   9.562  17.558  11.780  0.1791  0.1624  0.1302
29547W        W45016  11.517   2.212   2.155 -0.0418  0.1624 -0.3366
29548W        W45017   0.028   5.295  13.925 -0.1717  0.1835  0.2655
29549W        W45018  11.296  18.333  14.469  0.5145  0.1605 -0.0287
29550W        W45019   1.485   2.440   4.953  0.1738  0.0455  0.1623
29551W        W45020  14.416   6.082  11.822 -0.1299  0.1047  0.0281
29552W        W45021  18.366  18.330   1.424 -0.2123 -0.3143  0.0607
29553W        W45022  12.966  14.486  14.776 -0.1779  0.3539  0.2470
29554W        W45023   7.048  16.272   1.790 -0.2079 -0.2801  0.1912
29555W        W45024   9.475   1.262  12.686  0.0478  0.0891  0.0349
29556W        W45025   4.934   5.044   4.013 -0.1502 -0.3807 -0.1060
29557W        W45026  13.356   6.402   5.141 -0.1711 -0.4793  0.0447
29558W        W45027  14.444   8.813  11.742  0.2277 -0.1659  0.1118
29559W        W45028   4.145  12.463  15.542 -0.0891 -0.2008  0.0695
29560W        W45029  10.646  11.875  15.947 -0.1611 -0.1658 -0.0037
29561W        W45030   0.564   3.008   4.860  0.1394 -0.1848  0.1736
29562W        W45031   4.892  11.645   1.151  0.0873 -0.1041  0.3489
29563W        W45032   0.833  11.117   1.331  0.0232 -0.3822  0.2173
29564W        W45033   2.181   6.829  12.877 -0.3312 -0.1328 -0.2540
29565W        W45034   5.940   1.771  15.002 -0.0244  0.1929 -0.1193
29566W        W45035   2.019   9.140   1.956  0.0228  0.1024  0.1908
29567W        W45036  13.709   0.508  14.620  0.5517 -0.0442 -0.2449
29568W        W45037   3.249   7.956   2.772  0.3303  0.0712  0.0150
29569W        W45038  16.119   6.704  14.398  0.0470  0.1133 -0.0531
29570W        W45039  10.978   7.325   3.611 -0.1993  0.0229  0.0070
29571W        W45040   7.366  13.134  12.894 -0.1285  0.1273  0.2134
29572W        W45041  16.641   6.714  13.774 -0.2685  0.0439  0.2265
29573W        W45042  11.271   3.260   3.879  0.2586  0.0211  0.0808
29574W        W45043  14.478  17.297   2.702 -0.0568  0.1635  0.1056
29575W        W45044  14.124  11.505   2.938 -0.1073 -0.0591 -0.0765
29576W        W45045  12.134   2.429  13.232  0.0123  0.0992 -0.0311
29577W        W45046   4.775   9.298  14.861 -0.0012 -0.0216 -0.0545
29578W        W45047  17.126  16.476  15.873  0.1565 -0.0919  0.1374
29579W        W45048   4.670   8.179   0.191 -0.1494  0.0656 -0.1201
29580W        W45049  16.116  11.806   4.081  0.4758  0.2211  0.3333
29581W        W45050  10.090  12.016   4.349  0.3266  0.0286 -0.0096
29582W        W45051   9.778   8.913  11.104 -0.0652 -0.2673 -0.2017
29583W        W45052   5.035  12.941   0.916 -0.0983 -0.2069  0.0109
29584W        W45053  12.233  15.812   2.282 -0.0346  0.3600 -0.1166
29585W        W45054  10.231   6.764   0.839  0.1388  0.1586 -0.1821
29586W        W45055  10.964  13.770  12.824 -0.1354  0.1402  0.0136
29587W        W45056   6.134   4.062   5.889 -0.0569  0.2623  0.2534
29588W        W45057  11.039  17.022   0.134  0.1214 -0.0329  0.1376
29589W        W45058  12.516   8.053   4.687  0.2405 -0.1238  0.2081
29590W        W45059   9.150  18.422  11.969  0.1886  0.3246  0.3076
29591W        W45060  12.990   8.293   4.835  0.2661 -0.2901  0.0281
29592W        W45061  14.323  16.064  12.849 -0.4066 -0.0545  0.3213
29593W        W45062  12.876   1.339  15.326 -0.0351 -0.1685 -0.0532
29594W        W45063  10.202   4.295  12.079  0.1011  0.3949  0.3809
29595W        W45064   5.674   1.848   3.552 -0.1757 -0.2741 -0.4649
29596W        W45065  16.988   0.269  11.330  0.1741  0.0106  0.2245
29597W        W45066   3.476   9.691   3.379  0.1388 -0.0179 -0.1266
29598W        W45067   8.236  18.028  14.932 -0.0413 -0.0113  0.0666
29599W        W45068  14.731  16.145  13.762  0.1198 -0.1708  0.0360
29600W        W45069   3.281   1.504  13.222  0.1189  0.0385 -0.1434
29601W        W45070   7.710  15.574  15.721  0.1890  0.0127  0.3749
29602W        W45071  16.769   0.675  15.367 -0.0911  0.0067  0.0340
29603W        W45072   4.894   5.877  14.541  0.2426  0.2206 -0.1684
29604W        W45073   8.762  12.763  10.816 -0.0360 -0.1120  0.1352
29605W        W45074  12.014   7.547  14.396 -0.1759 -0.0220  0.0958
29606W        W45075  12.857   5.447   2.710  0.1015 -0.3528 -0.2543
29607W        W45076   4.568   3.143   3.710 -0.0459 -0.1539 -0.2183
29608W        W45077   3.860  13.787   3.684 -0.1623  0.1061  0.1518
29609W        W45078   0.714   4.866  13.160 -0.1065  0.4846 -0.4300
29610W        W45079   5.949   9.510  12.395  0.0864 -0.0046  0.2046
29611W        W45080  15.034   7.223  12.127 -0.1559  0.3436  0.1407
29612W        W45081   3.550   3.247  13.269 -0.0108 -0.1134  0.2154
29613W        W45082  13.246   4.957  12.430 -0.1011 -0.0840  0.0244
29614W        W45083   2.734   2.679  11.237  0.3140 -0.1050 -0.1069
29615W        W45084   0.174   8.114   4.290  0.2376  0.1704 -0.1909
29616W        W45085   4.515   8.341   3.079  0.2410 -0.4950  0.1000
29617W        W45086   3.137   3.150   2.097  0.2002 -0.1675  0.2204
29618W        W45087  13.138   4.945  10.890  0.3132  0.1654 -0.1215
29619W        W45088  10.824  15.055   5.712  0.0924 -0.0380 -0.2627
29620W        W45089  16.419  11.622   3.260 -0.2595 -0.0605 -0.1969
29621W        W45090   3.899  17.269  11.414 -0.1655 -0.0274 -0.3646
29622W        W45091   3.008  18.074   5.745  0.0964  0.0738  0.1832
29623W        W45092   7.279   1.271  12.505  0.0299 -0.0101  0.0855
29624W        W45093  12.035   2.106  13.756  0.0645 -0.0226 -0.1087
29625W        W45094   8.744  10.657   5.278 -0.1660 -0.0467  0.2242
29626W        W45095  15.201  13.051   1.673 -0.0005  0.2964 -0.1876
29627W        W45096   2.600   8.972  15.499 -0.1017  0.2178 -0.1803
29628W        W45097  18.444   1.267  12.020 -0.1004 -0.3205 -0.2617
29629W        W45098  17.910   6.884  14.559  0.2114  0.1108  0.0755
29630W        W45099   7.636   3.392  13.710 -0.1881 -0.4113  0.0659
29631W        W45100  10.152   7.851   6.126  0.2065 -0.0468 -0.0707
29632W        W45101  12.608   2.875  11.290  0.1672 -0.3294 -0.0021
29633W        W45102   2.959  11.064  14.553 -0.3156 -0.3269 -0.0972
29634W        W45103  10.327   6.730  14.575 -0.0119 -0.1052  0.0501
29635W        W45104   0.960   0.505   5.603  0.0421  0.0777  0.1396
29636W        W45105   2.584   5.252   4.038  0.0068  0.0270 -0.0899
29637W        W45106   7.090  12.299  12.670 -0.1548 -0.1269  0.1389
29638W        W45107  14.697   0.058  11.018  0.0360  0.0669 -0.0621
29639W        W45108   8.778   3.887  15.564  0.4775 -0.0354 -0.2196
29640W        W45109  16.607  17.841   0.343 -0.0361  0.1885 -0.1831
29641W        W45110   8.173  12.060   4.395 -0.0031  0.0025 -0.2207
29642W        W45111  10.274  13.508   3.425 -0.0133  0.0466 -0.1386
29643W        W45112  14.712  13.265  15.492 -0.0121 -0.0560 -0.0564
29644W        W45113  12.739  15.417   4.346 -0.2327 -0.1027 -0.1506
29645W        W45114   6.219   0.055  13.442  0.2164 -0.0795 -0.1054
29646W        W45115  11.688  17.947   0.043  0.1076 -0.0701  0.4162
29647W        W45116  15.004  12.403  13.624 -0.3040 -0.1580 -0.0622
29648W        W45117   8.247   8.494   1.897 -0.0765  0.1525 -0.0930
29649W        W45118  13.469  11.569  14.200  0.0123 -0.0318 -0.2024
29650W        W45119   3.955  17.521  14.820  0.0865 -0.3640  0.1850
29651W        W45120  12.161  15.207   3.932 -0.0631  0.1644 -0.1353
29652W        W45121  12.914   9.504  11.853 -0.2141 -0.1353  0.0147
29653W        W45122  15.119   8.058   3.104 -0.1747  0.0464 -0.0821
29654W        W45123   3.483  11.007   3.780 -0.0277  0.2489 -0.1934
29655W        W45124   4.021  11.147   2.209 -0.2001 -0.3799 -0.2205
29656W        W45125   9.907   3.006   4.319  0.1242 -0.0265  0.0238
29657W        W45126  16.549  10.934  13.026 -0.0899 -0.1147 -0.2906
29658W        W45127   9.632  14.697   2.722  0.1421  0.0498  0.2046
29659W        W45128  10.964  16.345   3.517  0.0346 -0.0428 -0.0548
29660W        W45129   4.392   9.223   0.827  0.1207 -0.0461 -0.0671
29661W        W45130   7.615   6.393  13.174  0.1319 -0.2823  0.0632
29662W        W45131   1.989  11.485  11.175  0.1094  0.0759  0.2893
29663W        W45132  16.920  11.131  11.592 -0.2622  0.0297 -0.3086
29664W        W45133   2.988   9.073   0.403  0.1662  0.1010 -0.0991
29665W        W45134   7.567  10.273   2.497  0.0393 -0.1439  0.1986
29666W        W45135  12.349  15.475   5.191  0.3553  0.0119  0.2217
29667W        W45136  17.564   5.367   4.734  0.3378 -0.0464 -0.0025
29668W        W45137   7.595  17.416  10.531  0.3181  0.0879 -0.0701
29669W        W45138   7.145   8.377   1.372  0.1755 -0.3204 -0.1935
29670W        W45139  16.862  18.206   4.694  0.0742  0.2768  0.0408
29671W        W45140   5.518  10.627   6.419 -0.1120 -0.6436  0.2861
29672W        W45141  13.210  15.308   5.664  0.3352  0.1210 -0.2178
29673W        W45142   2.383   3.918   2.775  0.1986  0.1292 -0.1605
29674W        W45143  12.151  17.074   0.569  0.2212  0.3497 -0.1913
29675W        W45144  16.925   4.394   5.078  0.0981  0.1921 -0.1716
29676W        W45145  16.418  17.218  13.820  0.0322  0.0438 -0.1227
29677W        W45146   3.001  16.348  15.127  0.0194  0.3608  0.0275
29678W        W45147  12.045   1.016  12.163  0.0624 -0.2632  0.1650
29679W        W45148   3.242   9.753  12.479  0.2854 -0.1471 -0.2061
29680W        W45149  10.386  12.977   3.445  0.2713 -0.1702 -0.0164
29681W        W45150  13.994   7.260   2.844  0.1257  0.0613  0.1011
29682W        W45151   7.806  11.915   1.173  0.2441 -0.1334  0.1367
29683W        W45152   6.501  14.561  12.606  0.0068  0.0297 -0.1617
29684W        W45153  18.055  10.826  14.658 -0.0448  0.2409  0.0155
29685W        W45154  14.772   6.159  13.760 -0.1151 -0.1007 -0.0814
29686W        W45155  14.558   6.957   3.625  0.2735 -0.1686 -0.0369
29687W        W45156   3.912  12.431  11.219 -0.1338  0.1372  0.0535
29688W        W45157   2.884  12.949  14.221 -0.1351  0.2875  0.2217
29689W        W45158  16.623   1.840  14.542 -0.1040  0.0050  0.1485
29690W        W45159   9.835  13.194  16.010  0.3350 -0.3369  0.1386
29691W        W45160  16.347   3.501   0.171  0.1340  0.2025 -0.0789
29692W        W45161   3.390   1.034   3.303  0.0165  0.0783 -0.0851
29693W        W45162  13.350   9.562   0.280 -0.1586 -0.2573  0.0248
29694W        W45163  18.139   8.207  11.681 -0.0625  0.0414 -0.2814
29695W        W45164  13.880  11.507  13.587  0.1751  0.0015  0.2074
29696W        W45165   2.090  15.185   1.989 -0.1758  0.1703 -0.0596
29697W        W45166  18.022  17.388   4.461 -0.2626  0.2384 -0.0447
29698W        W45167  16.289   8.724  13.599  0.2785  0.0837 -0.0108
29699W        W45168   7.299  10.428   6.087  0.1110  0.1458  0.3282
29700W        W45169  17.274  16.131   3.776 -0.0638 -0.3908 -0.1429
29701W        W45170  15.724  12.763   1.812 -0.1205  0.0098 -0.3719
29702W        W45171   4.120   2.540   0.825  0.0609  0.2663 -0.0985
29703W        W45172   2.710   2.884  13.688  0.1515  0.0638  0.2676
29704W        W45173  10.516  18.173  13.264 -0.2404  0.0267 -0.0802
29705W        W45174  13.510   7.120   0.686  0.0267 -0.1392  0.1855
29706W        W45175  10.515  13.217   3.083  0.5208  0.0915  0.2703
29707W        W45176   7.627   9.775  15.686  0.0912 -0.2268  0.0524
29708W        W45177   5.128   4.648  14.234  0.3703  0.1435 -0.1725
29709W        W45178  13.865   3.290  14.161 -0.0932 -0.1098  0.0333
29710W        W45179  16.802  11.543  14.304  0.0681  0.1528  0.3741
29711W        W45180   3.755   4.175  13.084 -0.0426  0.2411 -0.1574
29712W        W45181  10.874  14.798   5.285 -0.1852  0.1016  0.2979
29713W        W45182   6.124  14.019  10.047 -0.3392 -0.1155 -0.3389
29714W        W45183  12.368   3.262   2.182  0.2455  0.0646 -0.1791
29715W        W45184   4.896   0.721  14.933 -0.2000 -0.0874  0.2372
29716W        W45185   4.268   1.727   4.215 -0.1391  0.0416  0.1774
29717W        W45186  11.730  16.742  14.660  0.1418 -0.0870 -0.1468
29718W        W45187   7.980  16.289  15.628  0.0804  0.1526  0.3149
29719W        W45188   9.446  10.130   4.885  0.0358 -0.3896  0.2514
29720W        W45189  14.975   6.333   2.834  0.0436  0.1388  0.0193
29721W        W45190   3.610   0.068  10.937 -0.1569 -0.0248 -0.3678
29722W        W45191  10.155   4.906  10.726 -0.0078 -0.2201  0.0791
29723W        W45192  13.394   8.349   2.134 -0.2435  0.1111 -0.1045
29724W        W45193  17.634   1.168  15.998 -0.2537  0.0040 -0.0194
29725W        W45194   8.627  12.441   5.127  0.2042  0.1682 -0.2167
29726W        W45195  10.443  12.772  14.222  0.1616 -0.2281 -0.1823
29727W        W45196   6.395   4.949   0.537  0.3479  0.2434  0.0025
29728W        W45197   8.345   3.224  10.906 -0.4470 -0.0614 -0.0958
29729W        W45198   7.753   2.496   5.494  0.3234 -0.1216  0.4230
29730W        W45199   6.138  14.566   1.465 -0.0415 -0.3255  0.0540
29731W        W45200   0.952   3.388   2.973 -0.0111  0.2105 -0.0161
29732W        W45201   4.780  10.333   1.000 -0.1679 -0.1831 -0.2075
29733W        W45202   4.721  11.685   2.940 -0.0297 -0.3042 -0.4983
29734W        W45203   6.810   7.711   5.896  0.0997 -0.1753 -0.1086
29735W        W45204   4.774   7.147   4.617  0.0535 -0.1070 -0.0255
29736W        W45205  11.809  10.419  11.937  0.0421  0.1953 -0.0724
29737W        W45206   3.667  18.166   0.384  0.0962  0.4952 -0.1427
29738W        W45207   4.875   9.889   3.342  0.0101  0.4960  0.0825
29739W        W45208  17.448  16.814   0.109  0.2167 -0.1198 -0.2189
29740W        W45209  10.757  12.924  14.599  0.2337 -0.4650  0.3720
29741W        W45210  12.268  16.068   4.631  0.0219  0.0569 -0.4039
29742W        W45211   4.397   0.277  12.592  0.1717 -0.1347  0.0938
29743W        W45212  18.299   4.032  12.079 -0.0915 -0.0329  0.2051
29744W        W45213   4.317   4.815  11.319  0.0468 -0.2755  0.2218
29745W        W45214   7.584   5.144  12.588  0.1981 -0.2417  0.1628
29746W        W45215   2.443   5.957   2.662  0.1097 -0.0284 -0.1690
29747W        W45216   6.747   4.676  13.576  0.0441 -0.0548 -0.0349
29748W        W45217  18.130   5.020   0.842 -0.0364 -0.1662 -0.1232
29749W        W45218  16.987   9.777   2.334  0.3040  0.1024 -0.1785
29750W        W45219   6.949  11.226  11.907  0.2087  0.3535  0.0377
29751W        W45220  18.028  13.827   2.159  0.0320  0.1186 -0.0106
29752W        W45221  11.479   8.676   1.077  0.3042  0.2074  0.0953
29753W        W45222   6.935   9.848   3.338 -0.0338  0.2548  0.1687
29754W        W45223   6.785  16.805  13.964 -0.0187 -0.1074  0.0845
29755W        W45224  11.449   8.409   4.923  0.0357 -0.2056  0.0261
29756W        W45225  10.426  10.220  14.830  0.3769  0.0189 -0.2312
29757W        W45226   5.689   7.352   0.312 -0.0885 -0.0272  0.0219
29758W        W45227   0.830  16.150   0.971  0.0272  0.1422  0.2593
29759W        W45228  13.839   6.235   2.205 -0.0090 -0.0110  0.2324
29760W        W45229   9.828   0.345   2.773  0.1580  0.2437  0.2013
29761W        W45230   6.638  14.838  11.050  0.0354 -0.0342 -0.1070
29762W        W45231   5.011   1.626  14.944  0.0151  0.0964 -0.0136
29763W        W45232  15.702  16.785  12.731  0.0042 -0.2339 -0.1142
29764W        W45233  16.502  13.617   1.934  0.0253 -0.1204  0.0030
29765W        W45234   2.009  12.163   0.507  0.2477  0.3218 -0.1877
29766W        W45235  14.747   7.315   3.284  0.1537  0.1302 -0.3075
29767W        W45236  12.381   4.171   5.182  0.0570 -0.1064 -0.1456
29768W        W45237   6.118   6.869  15.559  0.0746  0.1226  0.0384
29769W        W45238   4.899   4.434  15.742 -0.0764  0.1597  0.1955
29770W        W45239  11.411   9.759  12.360  0.2236  0.0119  0.2523
29771W        W45240  10.011   8.102   4.936  0.0976  0.1042  0.1062
29772W        W45241   3.837   7.629   2.087 -0.3297  0.1142  0.3870
29773W        W45242   6.960  10.229  13.730  0.0248  0.0877 -0.1120
29774W        W45243   2.333   1.278  14.417  0.2031  0.1213 -0.0836
29775W        W45244   4.035  10.136   1.130 -0.1803  0.2255  0.0990
29776W        W45245   7.701  17.781  15.976 -0.1951  0.0727 -0.1972
29777W        W45246  10.549   2.466   0.532 -0.1681 -0.2585 -0.2895
29778W        W45247   0.889   0.630   0.125  0.0318 -0.0609 -0.1609
29779W        W45248   6.378  17.377  14.933  0.1491 -0.1792  0.1320
29780W        W45249   4.847  13.325  12.188  0.2345  0.2392  0.2408
29781W        W45250  14.257  17.573   4.210  0.0819  0.0628 -0.0004
29782W        W45251   8.096   2.833  14.281 -0.4467 -0.0092  0.1879
29783W        W45252  12.187  16.005  13.310 -0.2729  0.0342  0.3505
29784W        W45253  10.811  15.145  12.236 -0.1938 -0.3705  0.0666
29785W        W45254  12.371   8.190  12.009  0.2263  0.2740 -0.2167
29786W        W45255  16.882  13.160   4.280 -0.3126  0.0446 -0.2111
29787W        W45256   9.208   5.845   2.003  0.3104 -0.2878 -0.2689
29788W        W45257   7.694   0.145   4.146 -0.0472 -0.0050  0.1420
29789W        W45258   9.374  13.923   9.378 -0.1646 -0.0664  0.3242
29790W        W45259  11.141  16.455  10.637  0.1314 -0.3394 -0.1646
29791W        W45260   8.951  17.655  11.747 -0.1441 -0.1581 -0.0341
29792W        W45261  13.469   3.579  15.541  0.3859 -0.4085  0.1022
29793W        W45262   6.150   6.709   1.639 -0.3101  0.1719 -0.3622
29794W        W45263   4.542   2.869  11.829  0.1529  0.2303  0.0208
29795W        W45264  15.477   7.612  11.523 -0.1439 -0.0408  0.0729
29796W        W45265   1.294  16.380   1.031 -0.3199 -0.1066  0.1421
29797W        W45266   1.238  12.813   2.174 -0.0123  0.2259  0.1837
29798W        W45267  11.358   8.587   0.396  0.1134  0.1695  0.1412
29799W        W45268  16.230  10.883  12.646 -0.2284 -0.0212  0.1175
29800W        W45269   6.245   7.423  14.896  0.0472 -0.3174  0.4415
29801W        W45270   9.065  10.100  13.922 -0.0942  0.2310 -0.0549
29802W        W45271   0.708  15.533  15.106  0.1589 -0.3012 -0.0008
29803W        W45272   3.769  16.081   1.105 -0.0218 -0.3352 -0.2212
29804W        W45273  15.102   3.653   1.313  0.0943 -0.1434  0.6070
29805W        W45274   2.886  12.758   0.169  0.0185  0.1157 -0.2299
29806W        W45275  15.490   5.622   5.744  0.0896 -0.2532  0.2337
29807W        W45276   0.833   6.359  13.878  0.0357  0.2434  0.2417
29808W        W45277  17.892   8.873  14.061  0.1307  0.2483 -0.0882
29809W        W45278  11.837   5.645  14.384 -0.0407 -0.2796  0.1960
29810W        W45279   3.045   8.289  13.070  0.0625 -0.3238  0.1613
29811W        W45280  11.543   0.958  12.193  0.2339  0.3006  0.2361
29812W        W45281   7.634   9.031   5.719  0.0271 -0.1097 -0.1745
29813W        W45282  11.194  15.786  15.576 -0.5180 -0.1842  0.1150
29814W        W45283  13.264  10.338  14.817 -0.0393 -0.0123 -0.1176
29815W        W45284  12.682  14.145   2.874 -0.0419 -0.0473  0.3781
29816W        W45285   3.204  12.168   2.794  0.0102 -0.0753 -0.0684
29817W        W45286   8.275  10.664   0.521 -0.0920  0.1772 -0.0957
29818W        W45287   7.042   5.972   5.719  0.2287  0.1375 -0.1486
29819W        W45288   3.611   4.633   4.278  0.0182 -0.0475 -0.0609
29820W        W45289   9.582  15.134  10.573 -0.1592  0.0328 -0.2158
29821W        W45290   5.466   7.931  14.750  0.0073  0.2124  0.2819
29822W        W45291  14.508   8.247  15.592 -0.2363  0.0456 -0.4516
29823W        W45292   0.342  10.612   5.331 -0.0879  0.3161  0.1261
29824W        W45293   3.229  10.904  14.082  0.0243  0.1860  0.1337
29825W        W45294   8.759  18.260   4.707  0.0594  0.0310  0.1811
29826W        W45295   2.050   1.509   4.336  0.2668 -0.3358 -0.0755
29827W        W45296   2.861   0.250  15.189 -0.3460  0.0323  0.0459
29828W        W45297   0.265   7.399   5.312 -0.0447  0.0757 -0.0440
29829W        W45298   6.086  15.104   5.089 -0.0079 -0.2339  0.0384
29830W        W45299   5.331   1.518   4.887  0.2182 -0.3220  0.1687
29831W        W45300   4.369  18.222  12.864  0.0605  0.2527 -0.0844
29832W        W45301   2.389   7.008   2.852  0.2549  0.2459 -0.0591
29833W        W45302  14.269   0.372   2.300  0.0717  0.0029  0.2363
29834W        W45303  11.345  15.911  12.434  0.2220  0.2462 -0.2863
29835W        W45304   9.202   8.412   5.219 -0.0285 -0.3477  0.2042
29836W        W45305   3.565   8.660  11.573 -0.2434  0.0140  0.2658
29837W        W45306  17.751  14.014  15.890  0.0337  0.2132 -0.0274
29838W        W45307   3.646   8.574   1.722  0.0601  0.3216 -0.1343
29839W        W45308   7.887  13.233  10.698  0.1830 -0.2350 -0.0113
29840W        W45309  14.689  13.522   2.207 -0.0529 -0.0169  0.0041
29841W        W45310  12.735  16.385  15.182  0.1197 -0.2595 -0.0707
29842W        W45311  10.503  16.335   3.711  0.1566  0.2446  0.1109
29843W        W45312  14.419  13.103  12.475  0.1077 -0.1508 -0.1841
29844W        W45313  16.377   2.982   3.240  0.2610 -0.3523  0.2548
29845W        W45314   3.680   1.269   2.469 -0.2065 -0.2852  0.2195
29846W        W45315  16.313  13.969   4.699  0.2547 -0.0213 -0.0177
29847W        W45316   2.419   0.454  11.329  0.0303  0.1153 -0.1652
29848W        W45317   2.789  15.247   5.027  0.1448  0.4380  0.2604
29849W        W45318   3.705   8.267  15.320  0.3613  0.1401  0.0403
29850W        W45319  12.519  12.999  12.443 -0.0243 -0.0791  0.1438
29851W        W45320   7.935   3.344  10.625 -0.2340  0.0455  0.0230
29852W        W45321   2.594  16.493   2.293  0.1161  0.3622  0.1794
29853W        W45322   4.377   8.474   5.314 -0.0798 -0.4098  0.1758
29854W        W45323  17.163   1.184   0.677 -0.0909  0.2040  0.3162
29855W        W45324  16.746  14.631   5.095 -0.1700  0.0489 -0.2242
29856W        W45325  11.680  15.200   0.951 -0.4564 -0.0129 -0.0454
29857W        W45326   7.383   9.921   2.801 -0.0242 -0.0132  0.2111
29858W        W45327  14.364  12.928   0.306  0.1740  0.0269  0.1437
29859W        W45328   2.955   6.533   2.253  0.0595 -0.1026  0.0798
29860W        W45329   0.849  17.117  12.039 -0.2672  0.1367  0.1408
29861W        W45330   2.521   5.983  11.716  0.0508  0.0244  0.1582
29862W        W45331   2.125  11.268  15.523 -0.0819 -0.1710  0.1984
29863W        W45332   2.124  16.537   3.754 -0.1675  0.1397  0.0180
29864W        W45333  13.064   5.983   0.839  0.3606 -0.0329 -0.0104
29865W        W45334   6.901   5.681   4.165 -0.0180  0.4243 -0.3464
29866W        W45335  14.262   2.946  14.272  0.2330 -0.2928 -0.1153
29867W        W45336   6.655  12.868  11.992 -0.0545 -0.0114  0.3146
29868W        W45337   1.530   7.000  15.789  0.1615  0.0033  0.2061
29869W        W45338   6.973  11.933   1.136  0.1307  0.3207  0.0189
29870W        W45339  11.886  17.242  14.225  0.3319  0.1941  0.5499
29871W        W45340  15.960   6.095  14.173  0.0878 -0.3748 -0.1016
29872W        W45341  12.610  12.032   0.432 -0.0084  0.0115  0.0152
29873W        W45342   9.624  10.075  11.419  0.0247  0.2848 -0.0856
29874W        W45343   9.610   4.188   1.718  0.1004 -0.1070 -0.1522
29875W        W45344  13.499  15.923  15.133  0.0337 -0.3067  0.0447
29876W        W45345   5.568   5.390   4.976 -0.1018  0.0580 -0.1537
29877W        W45346   7.445  18.126   1.988 -0.0463 -0.0318 -0.1116
29878W        W45347  11.950  13.303   0.307  0.0396 -0.0706  0.1131
29879W        W45348  18.290  16.676   3.712 -0.0538  0.0631 -0.1704
29880W        W45349  15.105  10.457  13.935  0.2695 -0.3422  0.2038
29881W        W45350  14.288   6.196   1.947  0.1004  0.1912 -0.0383
29882W        W45351  10.135   1.790  12.765 -0.2803  0.0492  0.1143
29883W        W45352   5.700   4.663  15.188 -0.0137  0.0331  0.1661
29884W        W45353   1.194  16.405   1.855 -0.0590  0.0486 -0.1262
29885W        W45354   9.228   1.170  14.678 -0.0853 -0.1094  0.2655
29886W        W45355  14.647  16.701  11.830 -0.1431  0.3827 -0.0346
29887W        W45356   5.791   9.557   4.462  0.2678  0.2568 -0.1927
29888W        W45357   8.488   2.765  12.729 -0.0142 -0.2800  0.1591
29889W        W45358   2.255  11.582   4.431 -0.0397 -0.1006  0.1438
29890W        W45359   5.979  10.845   5.755 -0.1597 -0.1770  0.2520
29891W        W45360   2.460   8.393   5.174  0.1101 -0.3481 -0.3204
29892W        W45361   8.423   4.759   1.150  0.0580 -0.1033  0.0555
29893W        W45362   1.624   6.944  15.304 -0.0216 -0.0092  0.1998
29894W        W45363  11.276   1.997  14.853  0.1413  0.2534  0.0390
29895W        W45364  10.724  12.391  14.040  0.1601 -0.2611 -0.2396
29896W        W45365  14.584  17.480   1.400  0.1551 -0.0028 -0.1805
29897W        W45366   2.711  17.790  15.380 -0.2421  0.1935  0.1179
29898W        W45367   6.055   2.279  11.940 -0.1325  0.3084  0.0212
29899W        W45368  17.857  10.353  14.515  0.0704  0.3642  0.0925
29900W        W45369   8.004  16.731  13.475 -0.1348  0.3748 -0.0248
29901W        W45370  16.015  14.978   4.288  0.0730  0.0757  0.0684
29902W        W45371  16.062   7.451  12.207 -0.0699 -0.1734  0.1927
29903W        W45372  15.417   5.223  11.218  0.0677 -0.0234 -0.1103
29904W        W45373   6.528  13.279   3.667 -0.0008 -0.2543  0.1872
29905W        W45374  10.158   6.294   0.954 -0.1227  0.0134 -0.0364
29906W        W45375   4.151   8.262   1.990 -0.0986 -0.0853 -0.1364
29907W        W45376  16.606  13.709  12.595 -0.0412 -0.2171 -0.2338
29908W        W45377  16.324   7.902   1.698 -0.0006  0.0542  0.3394
29909W        W45378  17.091   9.381  13.884 -0.1226  0.3521  0.1063
29910W        W45379   2.652   0.181   3.709  0.0619  0.0299  0.1645
29911W        W45380  17.974   1.846   5.726 -0.1777 -0.0807 -0.0495
29912W        W45381  17.755  12.681   3.907 -0.1265  0.0916 -0.1666
29913W        W45382  18.064  13.877   2.754  0.0146  0.0714  0.4511
29914W        W45383   5.824   1.499   1.582  0.1971  0.4071  0.2188
29915W        W45384   0.135  14.934   4.693 -0.2337 -0.1689  0.0740
29916W        W45385   0.175  12.675  14.350 -0.0677  0.3419 -0.0336
29917W        W45386  15.935   3.883  12.926 -0.1118 -0.0085  0.1770
29918W        W45387   5.343  15.650  11.017  0.1612 -0.0184  0.3153
29919W        W45388  10.553   5.924   3.674  0.2276 -0.1667  0.1027
29920W        W45389  18.272  12.607   0.125 -0.2421 -0.3463  0.1436
29921W        W45390   1.700  11.598   1.765  0.1314 -0.0657 -0.0757
29922W        W45391  11.319   5.103   2.368  0.2243  0.1044 -0.0410
29923W        W45392   8.739  14.626  15.145  0.1664 -0.1440  0.2033
29924W        W45393   6.431  17.611  11.627  0.2200  0.1697 -0.1568
29925W        W45394  15.028  14.933   1.828 -0.0858 -0.0014 -0.0720
29926W        W45395   0.482   7.256  14.863 -0.3159  0.0074  0.2912
29927W        W45396   4.106   2.576  14.512  0.1899 -0.2958  0.0457
29928W        W45397   6.578   0.678  15.218 -0.1990 -0.2372 -0.0943
29929W        W45398  13.551   8.732  13.672 -0.3702  0.0680  0.0964
29930W        W45399  12.005  10.218  12.384  0.0794  0.0854  0.2060
29931W        W45400  16.580  13.591   3.976 -0.0189  0.0587 -0.0551
29932W        W45401  13.759   5.381  11.961  0.1358  0.3906 -0.3873
29933W        W45402   6.732   2.665  14.531  0.2408  0.1432  0.0972
29934W        W45403   2.224   2.837  11.336  0.0034  0.1968 -0.0112
29935W        W45404   0.092  10.719  13.831  0.2701  0.1624 -0.0213
29936W        W45405  13.607   0.948   5.332  0.3051  0.1899 -0.2285
29937W        W45406   8.470  10.946  14.763  0.0971 -0.0976 -0.0942
29938W        W45407  13.760  13.297  14.394  0.0051 -0.1251  0.0818
29939W        W45408  11.807  15.178  14.475  0.0877  0.0842  0.1636
29940W        W45409   6.413   4.077   3.690  0.0147  0.2973  0.2751
29941W        W45410   2.696   6.380   3.518 -0.0659 -0.0045 -0.1649
29942W        W45411  12.290   0.583  14.879  0.3034 -0.5464  0.0505
29943W        W45412  13.723   9.904   3.095 -0.0762 -0.0288 -0.0453
29944W        W45413   2.609   2.035   0.786  0.1252 -0.0199 -0.1875
29945W        W45414  10.302  17.881   4.184 -0.1084 -0.1920  0.1981
29946W        W45415  15.391  15.802   4.293 -0.1104  0.4967  0.1180
29947W        W45416  15.977  15.865   1.566 -0.0241 -0.3444  0.0398
29948W        W45417  15.714   1.408  11.560  0.1536 -0.0571 -0.1848
29949W        W45418  11.855  14.144   9.816 -0.1683 -0.1141  0.3271
29950W        W45419  11.452  17.795   1.173  0.0923  0.3915 -0.1913
29951W        W45420   4.798   1.770  10.806  0.1112  0.1032 -0.0038
29952W        W45421  11.189  13.556  13.466 -0.0710 -0.2012  0.0786
29953W        W45422   9.325  10.102  12.890 -0.0205 -0.0964 -0.3248
29954W        W45423  15.130  16.247   4.027 -0.1444 -0.1989 -0.0601
29955W        W45424  13.426  12.351   3.817 -0.0478 -0.0952 -0.0939
29956W        W45425  13.363   0.536   0.941  0.0063 -0.2585  0.0798
29957W        W45426  18.291  10.486   5.185  0.0174  0.1147  0.1778
29958W        W45427  15.147  12.518   3.594  0.3397 -0.0925  0.0422
29959W        W45428   6.791   3.007   3.726 -0.0764 -0.1797 -0.1183
29960W        W45429   7.840  10.432  14.996  0.0336 -0.0372  0.0780
29961W        W45430   4.348   5.996  12.021 -0.1289 -0.2442  0.4733
29962W        W45431  11.818   7.785   2.233 -0.0709  0.3156 -0.0707
29963W        W45432  13.983   7.255   0.657  0.0707 -0.1287  0.0551
29964W        W45433  13.325  15.877  10.849  0.0459 -0.4339  0.4050
29965W        W45434   5.756   3.449  13.154  0.1435 -0.1183 -0.2164
29966W        W45435   0.848  13.901   0.769  0.1589 -0.0972  0.4171
29967W        W45436   6.950  11.451  14.416 -0.1569 -0.0785 -0.0578
29968W        W45437   4.241  15.019   2.202  0.2230 -0.0225 -0.0058
29969W        W45438  15.990  13.042  14.785 -0.1298  0.0779 -0.1076
29970W        W45439   6.685  18.274   1.183  0.0318 -0.0780 -0.3735
29971W        W45440   4.025  12.175   4.600 -0.3131  0.2244  0.0386
29972W        W45441   6.935   2.198   2.615  0.2517  0.0822 -0.0692
29973W        W45442   8.852   9.247   2.779  0.0454  0.2894  0.1066
29974W        W45443  15.139   0.724   2.065  0.1928 -0.0945 -0.0534
29975W        W45444   4.177   5.615   3.187 -0.0462 -0.2143 -0.0447
29976W        W45445  13.467   7.606  15.106 -0.1010 -0.3552  0.3203
29977W        W45446   7.677  11.773  12.353  0.1443  0.2640  0.2282
29978W        W45447  10.992   8.685  14.877 -0.3651 -0.0244 -0.0104
29979W        W45448  11.549  10.757   3.937 -0.0999  0.0467 -0.3803
29980W        W45449  11.496  15.006   3.272  0.0061  0.3654  0.3542
29981W        W45450   8.857   2.155  15.148 -0.3301 -0.0606 -0.3707
29982W        W45451   6.799  14.788  13.414  0.0052 -0.0108  0.1442
29983W        W45452   9.819  15.755   4.010  0.3283  0.1818  0.2632
29984W        W45453  15.813  14.683  13.469 -0.1144  0.0376 -0.1403
29985W        W45454   5.281   7.469  11.863 -0.0725 -0.1653 -0.2297
29986W        W45455  14.975   7.609   4.724 -0.2576  0.1964 -0.1823
29987W        W45456   8.255  15.269   3.665  0.0058  0.1768  0.2052
29988W        W45457   6.744   0.167  15.041  0.0466 -0.0772 -0.1707
29989W        W45458  10.985   8.324  15.875 -0.1025  0.1539 -0.0994
29990W        W45459   6.408   4.877   5.121 -0.1282  0.2390 -0.1743
29991W        W45460   5.901   9.950   2.071  0.1119 -0.1563 -0.1190
29992W        W45461   0.068  12.226  11.833 -0.2187 -0.0509 -0.2554
29993W        W45462  12.473  10.372   3.527 -0.0233 -0.2147  0.0146
29994W        W45463   3.763   7.464  12.674 -0.0323 -0.2758 -0.0700
29995W        W45464   7.351   7.582  11.574  0.0128  0.1344  0.0045
29996W        W45465  16.080  10.795  12.006  0.1510 -0.0898  0.3316
29997W        W45466   5.222  11.884   0.861 -0.1099  0.2674 -0.1794
29998W        W45467   6.923  12.157  13.167 -0.2053 -0.0073 -0.1612
29999W        W45468   1.220  13.670   1.001 -0.3038 -0.2801 -0.1300
30000W        W45469  10.199  12.751  12.902  0.0347 -0.3556  0.1238
30001W        W45470  16.721  14.056   4.201 -0.2358 -0.0782  0.1512
30002W        W45471   2.431  18.295   1.690 -0.0027 -0.1656  0.1092
30003W        W45472  11.040  11.173  13.977  0.0142  0.0475 -0.2806
30004W        W45473   4.061  14.286  11.838  0.1446 -0.2065  0.1769
30005W        W45474  11.464  13.135   3.585 -0.2061  0.0980 -0.0574
30006W        W45475  13.055  16.656   2.539  0.1739 -0.1660  0.0800
30007W        W45476  14.049   8.928   2.875 -0.2655  0.2052 -0.3237
30008W        W45477  16.981   3.386  10.401  0.0913  0.0976 -0.1228
30009W        W45478   6.419  17.753   0.264  0.0166 -0.3701 -0.0146
30010W        W45479  13.814  11.310   0.003  0.0333  0.1998 -0.0374
30011W        W45480   8.658  10.878  13.715  0.2009 -0.0749  0.1210
30012W        W45481   9.852  14.038   2.003 -0.0894  0.0934  0.1966
30013W        W45482  11.061   2.950   2.588 -0.1398 -0.0698  0.2062
30014W        W45483  11.133   6.826   9.987  0.4639 -0.1437 -0.1608
30015W        W45484   7.941   4.594  15.001 -0.0545  0.0522 -0.2271
30016W        W45485   8.890  17.038  14.675  0.2957  0.1284  0.0744
30017W        W45486   8.005  11.391  12.201  0.1609 -0.0415 -0.2039
30018W        W45487   0.895   8.209   2.935  0.0501  0.0728 -0.1218
30019W        W45488   9.896  14.068  13.016 -0.1679 -0.6970 -0.1975
30020W        W45489   6.078  14.247   3.499  0.0460  0.1934  0.2092
30021W        W45490  12.470  13.698   4.267 -0.1422 -0.2178  0.1434
30022W        W45491   0.402  16.869   3.594 -0.2927  0.1809  0.0156
30023W        W45492  10.892  14.967   4.449  0.1461  0.2992  0.0735
30024W        W45493  17.485   1.179   4.566 -0.0471 -0.2432 -0.0734
30025W        W45494   1.007   0.504  14.747  0.2992  0.4607 -0.0262
30026W        W45495  17.667  16.668  10.851  0.1584  0.3674 -0.2801
30027W        W45496   9.539   5.067   9.933  0.1831 -0.1610 -0.2318
30028W        W45497   7.936   9.231  14.835 -0.0657 -0.0050 -0.1339
30029W        W45498   4.196  15.070  14.027 -0.0495 -0.0314 -0.0967
30030W        W45499   5.102   6.473  12.134 -0.1736 -0.0712 -0.1736
30031W        W45500  15.697   0.322  14.653 -0.0593  0.0884  0.2511
30032W        W45501   0.500  14.641  10.399  0.3725  0.0363 -0.3374
30033W        W45502   3.357  13.205   3.213 -0.1265 -0.0438  0.0467
30034W        W45503   3.284   0.947  11.572  0.1193 -0.2062  0.0622
30035W        W45504   6.973   8.481   2.784 -0.1108 -0.0685  0.1374
30036W        W45505   0.339   8.226  10.837 -0.1021  0.0994  0.4766
30037W        W45506   5.231   4.274   0.375  0.2235 -0.1456 -0.0315
30038W        W45507   0.960   5.956   3.150 -0.1956 -0.1383 -0.2489
30039W        W45508   7.864   8.547   2.404  0.1406 -0.1472 -0.0850
30040W        W45509   9.408   9.198  15.219 -0.0828 -0.2653 -0.1730
30041W        W45510  10.981  12.359   2.236 -0.1685 -0.2760  0.2437
30042W        W45511  17.992   2.970  13.130  0.0168  0.0361  0.0922
30043W        W45512  18.408   3.682   5.132  0.0174 -0.1122 -0.1849
30044W        W45513  11.245   7.577  14.844  0.0108  0.0478 -0.1872
30045W        W45514   0.944  15.917   5.037  0.3251 -0.1228 -0.2542
30046W        W45515   5.704  16.740   0.202 -0.0243  0.1888 -0.0356
30047W        W45516   5.372   4.156   3.700  0.0160  0.0825 -0.0189
30048W        W45517  15.110  15.406   4.445  0.1726  0.1407  0.0830
30049W        W45518  17.851  15.209   3.000  0.2283 -0.0483  0.0784
30050W        W45519  12.509   8.117   1.104 -0.2061 -0.1622  0.3342
30051W        W45520   0.906  13.305  15.038  0.1404  0.0179  0.3223
30052W        W45521  16.010  12.577   0.435 -0.1633  0.2868  0.0464
30053W        W45522  12.250  15.957   0.616  0.0180 -0.1724  0.0755
30054W        W45523  18.354   2.934   2.907 -0.2181  0.0823  0.0917
30055W        W45524   5.474   0.731  14.487  0.0338  0.0443 -0.3063
30056W        W45525  17.667  17.677   3.258 -0.0053 -0.0069  0.1471
30057W        W45526   7.067  13.567   0.242 -0.1324 -0.2522  0.1157
30058W        W45527   1.939  10.686   3.810 -0.0339  0.1227  0.0303
30059W        W45528  12.031   6.064  14.028  0.0853 -0.1698  0.1863
30060W        W45529  15.379   4.679   0.237  0.0904  0.1409  0.0113
30061W        W45530   8.998  13.518   0.956 -0.0835  0.2681  0.0224
30062W        W45531  13.679  15.941   5.398 -0.0606  0.1811 -0.0732
30063W        W45532  10.745   4.296   0.853  0.0656 -0.1765  0.1828
30064W        W45533   9.907   2.388  12.753  0.0372  0.0180  0.0761
30065W        W45534  16.364  12.244   1.989 -0.2570 -0.0523  0.0453
30066W        W45535   9.329   7.914   3.866 -0.1619  0.0520 -0.5669
30067W        W45536   8.740   7.614  11.675  0.1633  0.2147 -0.0626
30068W        W45537   5.171   1.484  10.993  0.0080 -0.2193  0.0214
30069W        W45538   0.554  18.076   2.592 -0.1155  0.2763  0.3587
30070W        W45539   4.823  11.783  11.373  0.1810 -0.3179  0.0085
30071W        W45540  16.779  16.742   0.784 -0.2372 -0.4542 -0.1209
30072W        W45541   1.371  15.543   4.565 -0.2265  0.0001 -0.2132
30073W        W45542   1.209   8.098  13.950  0.3741  0.0921 -0.1955
30074W        W45543  15.085  11.691  14.370 -0.1064 -0.0526 -0.3696
30075W        W45544   1.816  10.243  10.772 -0.2741 -0.2673  0.0453
30076W        W45545  10.089   1.900  15.389 -0.0543 -0.0231 -0.0978
30077W        W45546   5.003   2.832   5.165 -0.1302 -0.2005  0.1033
30078W        W45547   5.524   3.823   4.238  0.1459  0.1485  0.0426
30079W        W45548   4.958   1.295  11.581 -0.0687  0.0146 -0.3008
30080W        W45549  16.879   6.797  11.985  0.2919 -0.1128 -0.3207
30081W        W45550  17.896   3.743   4.137 -0.1499  0.1867  0.1107
30082W        W45551   6.777   2.119  10.732 -0.0494 -0.2818  0.0494
30083W        W45552  13.588   5.818   2.649 -0.0653  0.0682 -0.0630
30084W        W45553   3.729   3.267   2.404 -0.2502  0.0493 -0.3759
30085W        W45554  13.179   8.899  15.135 -0.1266  0.1311  0.0924
30086W        W45555  13.288   3.772   5.305 -0.1500 -0.2176  0.3108
30087W        W45556  16.324  10.278  13.888 -0.2179  0.1288 -0.2109
30088W        W45557  17.657   2.819  12.371  0.0607  0.1011 -0.0366
30089W        W45558   4.610  12.273   1.878  0.2156  0.0690 -0.0316
30090W        W45559   0.744  10.342   4.322  0.1039  0.0197 -0.2655
30091W        W45560  16.811   2.581   1.782  0.0121 -0.1490  0.0461
30092W        W45561  12.564  13.757   2.531 -0.1362 -0.0718 -0.1219
30093W        W45562   3.288  10.725   4.109 -0.3392 -0.0862  0.1373
30094W        W45563  15.139  11.041  16.029  0.2608  0.0090 -0.0111
30095W        W45564  12.176   9.838  14.211 -0.0179  0.0216  0.2186
30096W        W45565  10.249   9.502  10.893  0.0079  0.2646 -0.0074
30097W        W45566   8.371   6.672   3.151  0.3158 -0.1951  0.2642
30098W        W45567   4.999  13.063   4.678 -0.4313 -0.1588  0.0350
30099W        W45568   6.117   8.255  11.436  0.0313  0.0508 -0.4217
30100W        W45569   7.801   2.474  14.488  0.1113 -0.0854  0.0187
30101W        W45570   4.953  16.564  14.432 -0.1384  0.1148  0.5203
30102W        W45571   1.339   7.463   1.546  0.1396 -0.1371  0.2690
30103W        W45572   6.166  15.161   3.719  0.0377  0.2359 -0.2433
30104W        W45573   0.671  16.219  14.959  0.1909  0.2069  0.3001
30105W        W45574   4.538  10.440   0.478 -0.2799 -0.1630  0.0347
30106W        W45575  12.510   7.275  14.807 -0.0500  0.5353  0.0384
30107W        W45576  11.536  16.148  14.509  0.3066 -0.1219 -0.0840
30108W        W45577   9.739  16.926  15.879 -0.2346 -0.1682 -0.0955
30109W        W45578   9.355  14.668   0.440 -0.0998  0.0459  0.0289
30110W        W45579   7.339  11.758  14.561  0.0246  0.1750 -0.0593
30111W        W45580   2.718   8.872  12.459 -0.3504 -0.0543  0.1421
30112W        W45581  17.203   4.626   1.875  0.1895  0.1955 -0.2092
30113W        W45582   6.927  16.596  11.566  0.1027  0.4659  0.2469
30114W        W45583   5.150  10.779   2.270  0.2440 -0.2408 -0.0505
30115W        W45584  12.343  12.930   4.673  0.0657  0.2954 -0.0022
30116W        W45585   3.351   6.777  11.965 -0.0038  0.0029  0.0984
30117W        W45586   4.714  14.367  15.084 -0.5396  0.6447 -0.3588
30118W        W45587  12.787   8.988   2.406  0.2519  0.0681 -0.0228
30119W        W45588  16.926  14.812  13.859 -0.0074 -0.3936  0.4280
30120W        W45589   4.831   6.637   4.620 -0.0118 -0.0077 -0.0126
30121W        W45590  11.617  10.241   0.303 -0.2668 -0.1232 -0.1440
30122W        W45591  11.085   4.647  13.745 -0.5178  0.1333  0.0902
30123W        W45592  12.095   5.672   0.913 -0.0520 -0.0278 -0.0457
30124W        W45593   3.478  12.509  15.092  0.3468 -0.3510 -0.3437
30125W        W45594  17.989  12.338  10.691 -0.1298 -0.2024 -0.0398
30126W        W45595   3.737   1.882   0.144  0.1296 -0.0247 -0.2194
30127W        W45596  11.313  16.604  14.378 -0.0421 -0.0107 -0.2214
30128W        W45597   7.483   1.985  14.484 -0.2325  0.2753 -0.1038
30129W        W45598   6.169   7.420   2.732  0.2076  0.3608  0.1242
30130W        W45599   1.542   8.007  13.368  0.1869  0.1128 -0.3751
30131W        W45600  15.744   1.100   4.337 -0.5287  0.0336  0.1080
30132W        W45601   2.495   6.746   4.250 -0.1130  0.0752 -0.2347
30133W        W45602   4.682  18.242  12.440  0.1299  0.0728  0.3739
30134W        W45603   8.312  10.519  13.521 -0.0256 -0.2458  0.1446
30135W        W45604   7.624   4.581   3.487  0.0777  0.1558  0.3131
30136W        W45605   8.082  14.117   3.740 -0.0281 -0.0356  0.0191
30137W        W45606   7.055  12.243   4.445  0.2413  0.2459  0.0774
30138W        W45607  15.695  11.245   3.242  0.1778  0.5451 -0.0611
30139W        W45608  10.836  15.417   1.016  0.1726  0.5025 -0.4507
30140W        W45609  10.739   3.476   3.718 -0.1561  0.0018 -0.0686
30141W        W45610  11.083  12.165  13.415 -0.3943  0.1182  0.0201
30142W        W45611   2.850   7.493   1.324 -0.1360  0.0349  0.0426
30143W        W45612  16.950  15.926   4.382 -0.0215  0.0131  0.2873
30144W        W45613   5.093   2.176  11.550 -0.0445  0.2015 -0.1188
30145W        W45614  12.523   7.944  14.096 -0.1548  0.0815 -0.0765
30146W        W45615   6.265   4.644  13.723  0.2617 -0.2605 -0.2717
30147W        W45616  17.184   4.388  12.314  0.2276 -0.0938 -0.0082
30148W        W45617  15.612   0.841   2.889 -0.2138  0.0238 -0.1838
30149W        W45618  14.140   7.120  13.384  0.2778 -0.3089  0.1597
30150W        W45619   1.519   9.843  12.556  0.4311 -0.4960 -0.0648
30151W        W45620   3.904   9.790  13.666  0.0273 -0.2466  0.1523
30152W        W45621   2.702  13.010   2.915 -0.3434 -0.2052 -0.0827
30153W        W45622  13.915  12.601  15.581  0.0316  0.0011 -0.0818
30154W        W45623  15.992   9.592  13.337  0.0919 -0.1796 -0.1296
30155W        W45624   3.708  10.510  12.271 -0.0190  0.1750  0.3905
30156W        W45625  10.749   9.018  13.265  0.1253  0.3884 -0.2983
30157W        W45626   4.736  16.662  13.982 -0.0087 -0.0927 -0.1420
30158W        W45627   8.911  12.174   2.604  0.0076  0.3980 -0.0467
30159W        W45628   0.650  10.838  15.699 -0.0932  0.3348  0.2495
30160W        W45629  11.099   9.992  14.280  0.0918  0.1012  0.1545
30161W        W45630  12.993  16.114  15.524 -0.1017 -0.1440 -0.2012
30162W        W45631  18.067   8.861   3.578  0.2457  0.0432  0.1605
30163W        W45632  15.597   1.764   4.411  0.0038  0.2506 -0.1052
30164W        W45633   5.033   5.303  15.990 -0.2969  0.2482  0.0232
30165W        W45634  10.999   8.020   5.528  0.5524 -0.1072  0.1428
30166W        W45635   1.699  18.058  10.771 -0.0152 -0.0178  0.2853
30167W        W45636   1.076   6.680  11.855 -0.0107 -0.1745 -0.0415
30168W        W45637   3.989   0.979  12.147  0.0473 -0.1644  0.1507
30169W        W45638   5.115  16.711   3.510  0.1054 -0.1794 -0.1770
30170W        W45639  11.970  17.165  15.898  0.1285  0.3953  0.0891
30171W        W45640   8.624   2.803   5.798 -0.3405  0.1585 -0.3333
30172W        W45641   4.791  17.299  11.415  0.1321 -0.0760  0.0962
30173W        W45642   4.567  14.729   0.292 -0.4351 -0.0674  0.3558
30174W        W45643  10.482   3.860   4.356 -0.1451 -0.1516 -0.0050
30175W        W45644  12.051  15.620  11.297 -0.0623  0.2214 -0.2230
30176W        W45645   2.519   9.754   5.846 -0.0188  0.0005  0.0843
30177W        W45646  16.012  14.982  15.122 -0.2892 -0.0151 -0.1035
30178W        W45647   6.565   3.854  11.343  0.0860  0.0075  0.1171
30179W        W45648  11.533   0.677   4.068  0.0958 -0.1129  0.0638
30180W        W45649   2.578   0.743  12.673 -0.0103  0.1944 -0.2558
30181W        W45650   7.928   6.061  13.089 -0.0522 -0.1747 -0.1559
30182W        W45651  13.832   7.947  14.220  0.0119 -0.0472  0.2716
30183W        W45652  11.093   4.063   1.871 -0.0370  0.0100  0.1730
30184W        W45653  16.748  12.979   2.636  0.2234  0.0403  0.1906
30185W        W45654   4.109  12.614   4.829  0.2839  0.2184  0.0877
30186W        W45655  17.770   4.086   4.934 -0.2585  0.0079 -0.2561
30187W        W45656  16.530  13.640  14.579 -0.0366 -0.2359  0.0909
30188W        W45657  17.175   2.865  14.700  0.2765  0.4148  0.1929
30189W        W45658  15.145  15.633  12.925  0.1938  0.1385 -0.3065
30190W        W45659  10.179   2.187  10.216  0.2758  0.2632  0.0106
30191W        W45660   0.978  18.088   4.084  0.0422  0.1424  0.1141
30192W        W45661  17.759   2.136  15.814 -0.1466  0.0739 -0.2768
30193W        W45662  16.756   4.415  11.778  0.1343  0.2084  0.0514
30194W        W45663  14.880   3.084   1.287 -0.1239 -0.0725 -0.1557
30195W        W45664   0.244  18.123  14.388 -0.2690 -0.1999  0.2700
30196W        W45665   8.048  13.385   1.037 -0.0843  0.0031  0.1245
30197W        W45666  12.829   9.005  14.170  0.2287  0.0726  0.1641
30198W        W45667  13.456  14.012   0.625  0.0093 -0.1076  0.0028
30199W        W45668   9.885  13.092  15.062  0.1904  0.1597 -0.2034
30200W        W45669  17.312   5.231   0.780 -0.2007  0.2012  0.1303
30201W        W45670  13.074  16.077  12.317  0.0476 -0.1218 -0.1516
30202W        W45671   5.209  16.526   5.886  0.1462 -0.2795 -0.0413
30203W        W45672   8.089  18.242   2.484 -0.0071 -0.0391 -0.1130
30204W        W45673   8.602   8.696   1.459 -0.3644  0.1026  0.3776
30205W        W45674   5.081  12.029   5.536 -0.0616  0.0177 -0.1163
30206W        W45675  14.949   2.032   3.171  0.2948  0.1854  0.2494
30207W        W45676  12.363   7.015  11.276 -0.0270  0.4265 -0.0579
30208W        W45677   6.823   6.213  13.832  0.4244 -0.0804  0.3761
30209W        W45678   2.089  17.494   3.510  0.2897  0.1614  0.0927
30210W        W45679  14.166   7.037   1.962  0.4008  0.0564  0.0154
30211W        W45680   5.073   9.760  11.481  0.1052  0.1297 -0.0368
30212W        W45681  13.567   2.674   3.942  0.1406  0.0742 -0.0636
30213W        W45682   7.708  12.886   4.139 -0.0615 -0.2671 -0.2384
30214W        W45683   5.798  17.548   3.520 -0.0660  0.0554  0.1524
30215W        W45684  16.965  14.588   2.447  0.2826 -0.4515  0.1722
30216W        W45685  13.472   8.583   4.846 -0.4171 -0.2309 -0.1443
30217W        W45686   9.478   5.345  12.608 -0.2019  0.0516 -0.1177
30218W        W45687  10.106   4.999  13.587  0.2581  0.0100  0.0677
30219W        W45688   0.170   0.522   1.840  0.0635 -0.1993  0.0675
30220W        W45689   1.164   2.475  13.162  0.0849  0.1544  0.0725
30221W        W45690  15.096   3.024  14.984 -0.0143  0.0305 -0.0068
30222W        W45691  15.286  15.941  11.795 -0.2342 -0.3207  0.1927
30223W        W45692  15.832   2.792  12.136  0.2156  0.2857  0.0524
30224W        W45693   4.086  16.592   4.643 -0.0015  0.1300 -0.2881
30225W        W45694   3.464   2.425  14.212 -0.2477 -0.1694  0.0929
30226W        W45695   5.166  11.665   5.072 -0.1724 -0.0439  0.1027
30227W        W45696   4.914   0.743   2.988 -0.1052 -0.0188  0.3608
30228W        W45697  11.146   3.749   5.520  0.2257 -0.0209  0.0210
30229W        W45698  13.126  16.361   0.422 -0.3760 -0.1851 -0.1535
30230W        W45699  12.791   9.053  11.036 -0.2899  0.3858 -0.1752
30231W        W45700  11.250   3.753   1.276 -0.3231 -0.0068 -0.3032
30232W        W45701  18.308   8.269  12.854  0.1359 -0.2938  0.3551
30233W        W45702  18.347   0.702  12.698  0.1143  0.3347  0.3164
30234W        W45703   4.601  15.108   5.722  0.3409  0.1319  0.0649
30235W        W45704  17.708  11.292  15.764 -0.1253 -0.0532  0.1400
30236W        W45705   5.449   6.132   4.728  0.2913 -0.0851  0.0676
30237W        W45706   3.800  10.979   4.857 -0.1930  0.1074  0.1689
30238W        W45707   4.247   7.763   0.128 -0.2130  0.1684 -0.0663
30239W        W45708  16.004   9.411   9.623 -0.1001  0.0248 -0.1386
30240W        W45709   5.174   6.803  11.041 -0.4033  0.4773 -0.2338
30241W        W45710   2.349  13.342   3.104  0.1742  0.0699 -0.0030
30242W        W45711   0.193   5.960  15.551  0.1498 -0.0676 -0.0475
30243W        W45712   2.866  14.318   3.574  0.0644  0.0078  0.1193
30244W        W45713   6.928   8.127  15.766  0.2843 -0.1024 -0.2631
30245W        W45714   0.361   6.280  12.716 -0.2942 -0.1049  0.4472
30246W        W45715   4.647   9.982  11.680  0.1215  0.1966 -0.1345
30247W        W45716  15.109   2.723  12.909  0.1022 -0.1231 -0.1450
30248W        W45717   4.599   1.387   1.625  0.2179  0.0702 -0.0953
30249W        W45718  10.226  13.636   1.683  0.0476 -0.2613  0.0003
30250W        W45719  14.006   2.236  12.906  0.1450  0.1819 -0.3574
30251W        W45720   6.308  16.799   3.927 -0.0365 -0.0391  0.2389
30252W        W45721  10.443   4.185   3.145  0.3019  0.0214  0.1916
30253W        W45722   5.357   4.334   4.118 -0.0382  0.1890 -0.0684
30254W        W45723  10.467   3.254   3.344  0.1541  0.0445 -0.1526
30255W        W45724  15.577   9.794  12.953 -0.1102  0.1962 -0.3500
30256W        W45725  13.079  10.544  15.271 -0.2961  0.0663  0.3103
30257W        W45726   6.774   7.345  13.875  0.1120 -0.2416 -0.0792
30258W        W45727  12.257  15.930   2.799  0.0298 -0.0640  0.1871
30259W        W45728  11.841  13.262   2.745  0.2762 -0.1788  0.1696
30260W        W45729   1.002  16.362  14.612  0.1371  0.1930 -0.1107
30261W        W45730   1.148   6.991  12.233  0.0944 -0.2837  0.2646
30262W        W45731  13.419   2.221   3.698  0.1475 -0.2259  0.0914
30263W        W45732   2.321   2.225  13.948  0.0212 -0.2411 -0.3377
30264W        W45733  17.928   4.298   2.912 -0.3933  0.2469  0.1109
30265W        W45734   2.112   0.204   4.786  0.6022  0.4772 -0.0993
30266W        W45735   5.763  13.127   5.914  0.1492  0.0322 -0.0435
30267W        W45736   8.661   7.651   5.600 -0.3460  0.0778 -0.0292
30268W        W45737  13.171  15.880  11.768  0.3043  0.4862  0.1301
30269W        W45738   3.997  11.302  11.757  0.0080  0.2322  0.3710
30270W        W45739  10.293   8.477  15.330 -0.2494 -0.1898 -0.2159
30271W        W45740   8.604   2.816   0.584  0.0026  0.4036  0.1898
30272W        W45741  13.175  10.646   1.009  0.0108 -0.2803 -0.3466
30273W        W45742   1.995   4.299   4.255  0.1161  0.0882 -0.1073
30274W        W45743   0.608  17.530  15.250  0.0479  0.0251 -0.0199
30275W        W45744   5.128   7.923  15.161  0.2146 -0.1621  0.1953
30276W        W45745   9.926  12.612  14.877 -0.0106  0.4104 -0.1322
30277W        W45746  16.288  16.345  15.479  0.0232 -0.0981 -0.1267
30278W        W45747   6.172   9.396   0.321 -0.0033 -0.0816  0.0037
30279W        W45748   9.464   9.140  13.014  0.2293 -0.2391 -0.2992
30280W        W45749   3.996  16.927   3.218 -0.0167  0.0131  0.3076
30281W        W45750  12.875   9.040  14.741  0.0274 -0.0421 -0.0935
30282W        W45751   7.862   4.182  15.318  0.0456 -0.3512  0.0011
30283W        W45752   2.165  14.829  12.967  0.0293  0.0573  0.1375
30284W        W45753   5.913  17.627  11.844 -0.2643 -0.0650 -0.0888
30285W        W45754   3.127   0.640   2.916  0.1488  0.0387 -0.1852
30286W        W45755  10.026   6.027   1.887  0.0244 -0.1131 -0.3262
30287W        W45756   3.370  14.704   0.009 -0.1605  0.0427 -0.1150
30288W        W45757   7.066   8.665   1.752  0.0015 -0.0104 -0.2035
30289W        W45758  12.980   1.864  14.640  0.0306 -0.0727 -0.2411
30290W        W45759  11.311   1.376   1.511  0.0736 -0.0306 -0.1869
30291W        W45760  14.680  15.268  15.886 -0.1910 -0.0231  0.0347
30292W        W45761   6.396  11.167   0.181 -0.1606 -0.2205 -0.2553
30293W        W45762   4.748   3.111   5.625 -0.2268  0.3140  0.1223
30294W        W45763   1.253  16.347  12.212  0.4190  0.1154 -0.1412
30295W        W45764  15.116   3.108  15.468 -0.1452  0.0914 -0.1826
30296W        W45765   5.660  10.558   4.319  0.0163  0.1134  0.1989
30297W        W45766  18.029   7.094  13.123  0.2803 -0.2596  0.2156
30298W        W45767   6.939   7.890  14.577  0.2240 -0.3727 -0.0808
30299W        W45768  16.935  11.889   2.799 -0.0624  0.0771 -0.0244
30300W        W45769   7.992  16.435  14.798 -0.1113  0.1722 -0.0825
30301W        W45770   1.915   1.906   2.794  0.0938  0.1787 -0.2022
30302W        W45771   8.630  13.451   4.922  0.0855  0.1951  0.0694
30303W        W45772  14.056   9.468   0.849 -0.4525  0.1155 -0.1297
30304W        W45773   3.488  16.163   5.832 -0.1978 -0.0919 -0.0127
30305W        W45774  10.823   8.069  13.636  0.0944 -0.0519 -0.1000
30306W        W45775  17.389  11.368   2.013  0.0503 -0.0100  0.1128
30307W        W45776   0.633   5.500   2.532  0.0482  0.0482 -0.2814
30308W        W45777  10.318   9.131   4.443 -0.1838  0.0153  0.3572
30309W        W45778  13.558  16.689   1.137  0.3737  0.1172 -0.0090
30310W        W45779   7.597   2.382   0.423 -0.0250  0.0438  0.0388
30311W        W45780  17.850   0.498   3.148  0.2426 -0.3928 -0.2671
30312W        W45781   4.405  13.754  10.024 -0.0212  0.2299  0.0270
30313W        W45782   6.922   2.031   3.358  0.1300 -0.0884 -0.0458
30314W        W45783   5.105  15.891   4.106 -0.0538 -0.3061 -0.1809
30315W        W45784  15.962  17.067   2.391  0.0048 -0.0216 -0.1102
30316W        W45785  11.709  18.062   3.052  0.1034 -0.1962 -0.2076
30317W        W45786  14.170   3.674   5.837  0.2839  0.0001 -0.2602
30318W        W45787   0.530  14.156  11.966 -0.1253  0.0945  0.0978
30319W        W45788   0.428   9.628   5.027  0.0925 -0.3016  0.3838
30320W        W45789   6.631  11.957   3.242  0.2649 -0.0028 -0.0778
30321W        W45790   0.225  11.731   1.830  0.3953  0.0473  0.2261
30322W        W45791   9.253  15.612   2.578 -0.3874  0.1450  0.2299
30323W        W45792  17.415   4.724  12.706  0.1221  0.2337  0.0314
30324W        W45793   8.228  16.531   4.769 -0.1890 -0.1434 -0.1768
30325W        W45794  15.022  16.025  15.220 -0.2040 -0.0523 -0.1516
30326W        W45795  14.884   6.903   1.520  0.0245  0.0418 -0.1028
30327W        W45796  14.075  16.184  12.403  0.2035  0.0903 -0.1193
30328W        W45797   7.469  15.390   2.377  0.3296  0.1671  0.1258
30329W        W45798  13.433   6.567  14.008  0.0919  0.0498  0.0103
30330W        W45799  16.965  14.499   0.037 -0.2787  0.1925 -0.5595
30331W        W45800  18.356   3.418   3.687 -0.3804  0.2965 -0.0529
30332W        W45801  10.429  16.310  12.509 -0.0528  0.0850  0.1499
30333W        W45802  12.559   0.150   1.666 -0.1177  0.0774 -0.1288
30334W        W45803   0.072   4.381  13.832  0.4554  0.1218 -0.1036
30335W        W45804   7.548  12.481  11.675  0.0383  0.1768  0.0871
30336W        W45805  11.344  10.733  12.101  0.1200  0.3467  0.0082
30337W        W45806  15.311  13.139   2.165 -0.2607 -0.1693 -0.1212
30338W        W45807  16.366   6.820  15.698 -0.0358 -0.2358  0.0714
30339W        W45808  15.275   9.712  11.640  0.1026  0.0677  0.0215
30340W        W45809  14.137   0.393  12.455 -0.1251 -0.1170  0.2601
30341W        W45810  11.751  13.936  10.213  0.0804  0.2232  0.0240
30342W        W45811  10.111   2.611  12.249 -0.0826 -0.0356 -0.3764
30343W        W45812  17.575   2.732  13.238 -0.5452  0.2215 -0.0996
30344W        W45813  16.699   2.688  15.918 -0.3503  0.0251  0.0590
30345W        W45814   9.126   2.663  11.694 -0.3046  0.0251 -0.4990
30346W        W45815   3.095  13.224  10.646  0.0720  0.1646  0.1118
30347W        W45816  13.892   6.967  12.891  0.1583  0.4023 -0.0152
30348W        W45817   3.768   1.092  15.727  0.0621  0.0384 -0.2086
30349W        W45818   6.291  10.339   4.393  0.0348  0.2933  0.0706
30350W        W45819   3.618   2.301  13.748  0.0696 -0.3401 -0.0540
30351W        W45820  16.381   2.953   1.966  0.2283 -0.0693  0.0232
30352W        W45821   4.618  17.714  11.657 -0.2654  0.2080 -0.2455
30353W        W45822  16.683  17.249  15.483 -0.0415  0.1085  0.1592
30354W        W45823  18.325   6.691  13.970 -0.0400  0.2686 -0.1488
30355W        W45824   1.019  18.365  14.241  0.2175 -0.1616  0.1675
30356W        W45825  14.879   0.238   0.998 -0.2901  0.2006 -0.2635
30357W        W45826  17.604   1.879  11.097 -0.1189  0.3299 -0.1288
30358W        W45827   5.004   4.096   1.461  0.1583 -0.0355 -0.0940
30359W        W45828  10.440   0.104   3.546 -0.3180 -0.0581 -0.3159
30360W        W45829   4.462  17.966  15.530 -0.0762  0.1230  0.0243
30361W        W45830   0.004  16.291  15.934  0.1906  0.1340  0.0019
30362W        W45831  15.253   0.411   1.654 -0.1772  0.2440 -0.0522
30363W        W45832  12.062  13.564   1.529  0.1358 -0.1094 -0.0264
30364W        W45833   3.424  16.231  12.609  0.2021  0.0275 -0.1624
30365W        W45834  12.794  10.192   4.086  0.2886  0.0597  0.3180
30366W        W45835  17.226   6.666  12.777 -0.0365  0.0670  0.0401
30367W        W45836   3.302  13.379   2.120 -0.4182 -0.0127  0.2068
30368W        W45837  12.579   0.467   5.721  0.1309 -0.3212  0.2938
30369W        W45838   5.907  17.437  10.831 -0.0909 -0.1866 -0.1548
30370W        W45839   1.420  10.488  10.926 -0.0028  0.2250 -0.1640
30371W        W45840   4.026   9.980   4.044 -0.1151 -0.0996 -0.1932
30372W        W45841   1.559   6.097  15.297  0.4234  0.0669  0.1159
30373W        W45842  15.974  11.315   4.105  0.1273  0.0396  0.1669
30374W        W45843  14.108  15.045   3.021 -0.1447 -0.0199 -0.3695
30375W        W45844  14.060  13.691   4.409  0.0742 -0.2330  0.3242
30376W        W45845   8.549   4.617  11.789  0.3265 -0.1880  0.1822
30377W        W45846   0.974  11.614  14.358  0.2440 -0.1784 -0.2615
30378W        W45847   1.356  16.762  14.682  0.1392  0.0322 -0.2536
30379W        W45848  17.343  12.386  14.337  0.1173 -0.0846  0.0975
30380W        W45849   9.733   5.917  14.344 -0.1576  0.0126  0.2098
30381W        W45850  12.330   5.991  13.493 -0.0584 -0.3536 -0.2641
30382W        W45851   0.387  11.863   1.329  0.1506 -0.0475  0.0213
30383W        W45852  14.531  12.079  14.989  0.1819 -0.0750 -0.0131
30384W        W45853  18.060   2.456  14.056  0.3718 -0.1300  0.2650
30385W        W45854  14.227   6.301   4.202 -0.0051  0.0802 -0.0564
30386W        W45855   7.639   7.252  14.983 -0.1897  0.0293 -0.0776
30387W        W45856  15.453  12.444  13.338 -0.0725 -0.3013 -0.1732
30388W        W45857  17.659  13.971  14.087 -0.4135 -0.1707  0.0884
30389W        W45858   7.649  14.929   5.534 -0.2604 -0.0372 -0.0880
30390W        W45859   6.090   5.443   3.984  0.2663  0.1981  0.2188
30391W        W45860   2.398   7.803  15.388 -0.1793  0.3052  0.0680
30392W        W45861   3.557  14.925  14.061 -0.0642 -0.0921  0.0176
30393W        W45862   2.963   1.046  15.082  0.3086 -0.3900  0.1241
30394W        W45863   8.281  13.428   2.873  0.1205  0.0205  0.2026
30395W        W45864   5.365   2.602  10.857  0.1541 -0.3335  0.3816
30396W        W45865   0.285   5.749  10.738 -0.0233  0.0851 -0.1390
30397W        W45866  17.024   6.431  13.689 -0.2969  0.0797 -0.0025
30398W        W45867  12.025   4.202   3.276  0.0866 -0.2559  0.0416
30399W        W45868  14.374   8.154   2.717 -0.0670  0.2830  0.2258
30400W        W45869   3.131   7.037   5.339 -0.0660 -0.0747  0.0164
30401W        W45870   3.122  12.227   4.544 -0.0544 -0.0726  0.1627
30402W        W45871  13.583  14.555  11.023 -0.0055 -0.0978  0.1682
30403W        W45872  16.617   7.189   3.405 -0.2046 -0.0692 -0.0214
30404W        W45873  18.354  16.743  15.644  0.0409 -0.1115  0.3763
30405W        W45874  13.501   3.905   3.302 -0.2761 -0.0922  0.0837
30406W        W45875  17.967   1.511   3.378 -0.1461 -0.3460 -0.0421
30407W        W45876  14.959   8.934   0.466  0.3454 -0.2567  0.0907
30408W        W45877  10.027   2.808   6.029  0.0952  0.1163  0.2634
30409W        W45878   4.798   3.267   2.463  0.0163  0.1642 -0.0782
30410W        W45879  10.289  10.952  12.969  0.0309  0.1677  0.0792
30411W        W45880  15.666   8.826  13.415  0.0403 -0.3141 -0.1280
30412W        W45881  14.146  17.951  15.317 -0.0472 -0.1102  0.0866
30413W        W45882   3.253  16.855   0.485  0.1059  0.0734 -0.1735
30414W        W45883  11.603  11.351   2.885  0.2793  0.0977  0.1015
30415W        W45884  18.411  16.923   0.091 -0.0975 -0.2147 -0.0067
30416W        W45885  15.208  14.033   3.699 -0.1962 -0.0091 -0.0372
30417W        W45886   3.002   4.372  11.712  0.0019 -0.0928 -0.1026
30418W        W45887  11.852   0.135   2.818  0.0919 -0.0275  0.0723
30419W        W45888  17.187   0.649  12.103  0.0916 -0.0663 -0.1176
30420W        W45889  13.898   7.531   3.428 -0.0184 -0.2517 -0.1649
30421W        W45890  15.718   0.926   0.654 -0.0526  0.0356 -0.2451
30422W        W45891   7.429  10.533  15.285  0.3273  0.4036  0.1694
30423W        W45892  11.163   6.061   0.070 -0.3023 -0.0653  0.1786
30424W        W45893   5.650   5.548   0.099 -0.2832  0.1443 -0.1687
30425W        W45894   2.121   3.142   0.782 -0.0939  0.1747 -0.0589
30426W        W45895  14.455   5.847   1.537 -0.0144  0.0899 -0.0590
30427W        W45896  10.411   9.042  11.868  0.1682  0.1303 -0.2417
30428W        W45897  10.887  10.419  14.378  0.1498  0.0002 -0.0392
30429W        W45898  14.714  13.089   1.867  0.2112 -0.0925  0.0665
30430W        W45899  16.122  10.561  11.541  0.4129  0.0475  0.0027
30431W        W45900  14.650   8.835  12.248 -0.1753 -0.2156 -0.3689
30432W        W45901   2.200   4.041  15.261  0.0920 -0.0928 -0.1674
30433W        W45902   1.424   2.194   4.075 -0.0583  0.0246 -0.0405
30434W        W45903   6.128   0.087   4.919  0.0221  0.2123  0.0979
30435W        W45904  12.400   4.804   4.982  0.2020 -0.0694 -0.0141
30436W        W45905   0.408   2.442   5.575  0.4100  0.3064 -0.0796
30437W        W45906  15.744   1.457  13.369 -0.1844 -0.1212  0.1780
30438W        W45907  13.714   1.926  11.570 -0.0488  0.0009  0.1021
30439W        W45908   4.522  10.330  14.753 -0.2735 -0.3833 -0.1176
30440W        W45909  16.063   9.029   4.824  0.1202 -0.2747 -0.0260
30441W        W45910  13.765  17.495  11.323  0.0834 -0.0596 -0.0632
30442W        W45911   8.772   8.427   2.076  0.0001  0.0541 -0.0046
30443W        W45912  13.826  12.412  13.485 -0.2414 -0.3419  0.1273
30444W        W45913  15.069   2.474  14.031  0.1023 -0.0899  0.0045
30445W        W45914  16.672   5.931   3.030  0.0885 -0.1054  0.2116
30446W        W45915  16.540  15.422   1.650 -0.0948  0.1549 -0.1851
30447W        W45916  11.581  14.193  12.488 -0.2047 -0.0912 -0.0500
30448W        W45917  16.449  15.014  13.806  0.1042 -0.0412  0.3164
30449W        W45918  10.772   8.691  11.754 -0.1359 -0.1646  0.0555
30450W        W45919   0.380   1.949  11.366  0.0956  0.3610  0.1544
30451W        W45920   2.335   8.497  14.789  0.0578  0.0029  0.0393
30452W        W45921   1.938  12.323   1.573 -0.2932 -0.3785 -0.0024
30453W        W45922  12.012  11.180  13.913  0.1093  0.0166 -0.0634
30454W        W45923  12.651  12.708  15.254 -0.2603  0.0093  0.2395
30455W        W45924   2.266   5.185  11.819  0.0771  0.0687 -0.0279
30456W        W45925   4.988  12.010   3.312 -0.2555  0.0239  0.1418
30457W        W45926   4.106   2.839   1.233 -0.0175  0.1055 -0.1238
30458W        W45927   2.368   7.218   1.345  0.1589 -0.0859  0.2196
30459W        W45928  10.117   6.260  14.165 -0.2503 -0.0519 -0.0313
30460W        W45929   8.561  11.308  15.237 -0.2880 -0.1671 -0.1285
30461W        W45930  11.863  18.245  13.801  0.1808  0.2487  0.1851
30462W        W45931   0.693   8.468   1.124  0.0788  0.0659 -0.0240
30463W        W45932   7.929   7.032  11.275  0.0910 -0.0635 -0.0378
30464W        W45933   3.472  15.688   1.279 -0.1487  0.1171 -0.6171
30465W        W45934   1.486  10.386   4.853  0.0933 -0.2109 -0.0672
30466W        W45935   4.352   7.690  12.540 -0.0504 -0.0446  0.0073
30467W        W45936  16.375  10.308   1.968  0.1832 -0.0781  0.2274
30468W        W45937   9.504   3.631   4.830 -0.1764  0.0629  0.4704
30469W        W45938   6.885  15.861   1.181  0.2413 -0.4112 -0.0587
30470W        W45939  10.199  10.563   4.516 -0.0526  0.0766 -0.4292
30471W        W45940   1.999   0.653  15.040 -0.0695  0.2090  0.0186
30472W        W45941  12.059  14.590  16.024 -0.0691 -0.3596  0.3319
30473W        W45942  17.048  14.993   0.263 -0.0875 -0.3115 -0.2590
30474W        W45943  15.204   7.090   3.330 -0.0230 -0.2426 -0.0571
30475W        W45944  11.831   7.557   4.755  0.1141  0.2014  0.1350
30476W        W45945  13.474   6.364   6.049 -0.0546  0.0515 -0.0751
30477W        W45946  16.996   1.495   0.041 -0.0346  0.0183 -0.0187
30478W        W45947   8.622  15.610   0.008  0.0685  0.0338 -0.0997
30479W        W45948   5.836   5.840   6.221  0.0603 -0.1067  0.0643
30480W        W45949   2.282  15.445  14.718  0.0606  0.0973  0.0509
30481W        W45950  13.180  14.665  13.815 -0.1350 -0.1032  0.1240
30482W        W45951   3.165  13.980  15.557 -0.1401 -0.0547 -0.1100
30483W        W45952  15.288   1.317  12.684  0.4280 -0.0472 -0.0966
30484W        W45953  14.806  14.771   3.596  0.0427 -0.0318 -0.0859
30485W        W45954   1.876  17.483  15.587  0.0684  0.2185  0.1904
30486W        W45955  10.944   8.539   1.267 -0.0645  0.0019 -0.1292
30487W        W45956  14.607  12.173   0.882  0.3344 -0.0210 -0.2471
30488W        W45957  13.545  15.339  11.856 -0.0302  0.0022  0.0548
30489W        W45958  12.925   6.966   4.718  0.1301  0.1408  0.1032
30490W        W45959   2.514   7.865   5.477  0.4982 -0.0157  0.3514
30491W        W45960  13.680  12.287  15.979 -0.2294  0.0524 -0.0525
30492W        W45961   0.233  10.518   3.056 -0.0021  0.1151 -0.0699
30493W        W45962   3.492   1.085  15.314 -0.0397  0.0612  0.0428
30494W        W45963   5.706   8.827  14.963 -0.3065  0.2139 -0.0519
30495W        W45964  15.276  10.489   0.111  0.0513  0.2323 -0.0049
30496W        W45965   6.507  11.128   1.907  0.0659  0.1781 -0.1528
30497W        W45966   1.189   2.045  11.299  0.1805 -0.2319  0.0740
30498W        W45967  17.372   8.421  13.708 -0.2862  0.1585 -0.3238
30499W        W45968  10.391  10.974  11.169 -0.0884 -0.3278 -0.1388
30500W        W45969  10.572  17.591   2.578  0.2007 -0.0165  0.0480
30501W        W45970  12.373  17.256   2.208  0.0900 -0.1524  0.1541
30502W        W45971   3.588   4.545  12.859 -0.0889 -0.2553  0.1135
30503W        W45972   8.346   7.092  12.369 -0.0149 -0.5795  0.4610
30504W        W45973   0.304   7.084  10.996  0.0106  0.0002  0.2366
30505W        W45974   1.261  12.538  14.349  0.0899 -0.3785  0.0929
30506W        W45975   1.530   6.877  14.406 -0.2008  0.0861  0.2282
30507W        W45976  15.157   3.214   3.828  0.1381  0.1093 -0.1258
30508W        W45977  16.567  11.235  13.403 -0.5444  0.2854  0.1692
30509W        W45978  15.720   1.063  13.651  0.3834 -0.0995 -0.0577
30510W        W45979   7.410  14.439  14.310 -0.1599 -0.0981  0.0787
30511W        W45980   9.810  11.764  14.172 -0.0680  0.0932 -0.2891
30512W        W45981  17.634   4.551  15.686  0.1322  0.2950 -0.3167
30513W        W45982  17.322   8.816   1.632 -0.1414  0.4429 -0.0829
30514W        W45983   7.160   7.145  10.174 -0.1437  0.2075  0.0957
30515W        W45984   9.607   8.820   2.843  0.1942  0.1063  0.1689
30516W        W45985  16.005  14.827   3.372  0.3880  0.0825  0.3492
30517W        W45986   8.613   8.882   1.920  0.3024 -0.0212 -0.0579
30518W        W45987   0.699  11.678   1.672  0.3087  0.0415  0.2939
30519W        W45988  14.195  17.100  12.290 -0.0367 -0.0423  0.1995
30520W        W45989   8.761  13.711  12.367 -0.0197 -0.1220  0.0675
30521W        W45990   7.881  18.263  14.626  0.2026  0.1475 -0.1130
30522W        W45991  14.103  16.297   1.129 -0.2111 -0.0832  0.1854
30523W        W45992   4.490  13.093  14.312  0.3781 -0.1539 -0.3160
30524W        W45993   7.941  10.317  14.156 -0.1804 -0.1024  0.1765
30525W        W45994  11.828  14.178   2.154  0.0517 -0.0358 -0.2166
30526W        W45995  10.348  13.757   2.954  0.3852  0.2335 -0.1416
30527W        W45996   4.768   6.124  13.192  0.0233 -0.1905 -0.0905
30528W        W45997  14.624   9.815   1.512 -0.2595 -0.0299  0.0176
30529W        W45998   6.142   3.577   0.504  0.0692 -0.0469  0.0929
30530W        W45999  10.956   5.250   1.287  0.0458  0.1729 -0.2045
30531W        W46000  15.421  17.997   3.789 -0.0976  0.0351  0.0724
30532W        W46001   6.170   3.353  14.670  0.1205 -0.2421  0.1982
30533W        W46002  15.284  17.479   1.957  0.2630 -0.1451  0.1457
30534W        W46003  13.738  15.441  15.319  0.1341  0.1071  0.0553
30535W        W46004  15.228   1.863  12.208  0.1257  0.2490  0.2916
30536W        W46005   9.467  11.052   4.133 -0.1773  0.1424  0.5007
30537W        W46006   4.764   2.639   4.359 -0.3419  0.1809 -0.2857
30538W        W46007  10.451   8.632  10.660 -0.2368 -0.0909 -0.2074
30539W        W46008  15.273   8.571  13.327  0.1049 -0.0262 -0.0342
30540W        W46009   6.525  18.222  15.251  0.0987 -0.2668 -0.1972
30541W        W46010   5.467   7.870  13.262  0.2240  0.0742  0.1090
30542W        W46011   9.877   0.624  12.280 -0.0813 -0.1518 -0.1481
30543W        W46012  14.222   9.763   1.870 -0.0009  0.2459 -0.1744
30544W        W46013   0.974   8.280  11.478 -0.0849 -0.1374 -0.1711
30545W        W46014   6.303   5.227  12.072  0.2888  0.0094 -0.3202
30546W        W46015   9.817   8.681  14.366  0.0341  0.3549  0.0562
30547W        W46016   8.836   8.257   2.656  0.1708  0.0843 -0.3312
30548W        W46017   0.135  16.946   1.991 -0.2886 -0.1947  0.1894
30549W        W46018   9.861   7.852   1.949 -0.0065  0.2918 -0.1591
30550W        W46019   4.745  13.848  12.409 -0.1199  0.1986 -0.0782
30551W        W46020  10.168   6.917  13.313 -0.2604  0.2078 -0.0324
30552W        W46021  12.150   7.772   0.856 -0.0296 -0.1517  0.2188
30553W        W46022  15.726   0.261   1.553 -0.1124 -0.2003 -0.1244
30554W        W46023   4.032  11.479  11.286 -0.1124  0.0548 -0.2704
30555W        W46024  10.677   6.342  10.997 -0.4629  0.0356 -0.0181
30556W        W46025   0.817  11.600   0.681  0.2790  0.2915  0.1793
30557W        W46026   6.373   9.280   5.820  0.1877  0.3220  0.0691
30558W        W46027  18.140  17.880   3.170 -0.0266  0.3609 -0.0767
30559W        W46028   9.878  14.813  15.697 -0.2788  0.0507  0.1257
30560W        W46029   4.536   5.848   2.087  0.0586 -0.3836  0.0591
30561W        W46030  10.003   5.945   5.453  0.1462 -0.1378  0.0740
30562W        W46031   7.181   9.248  11.129 -0.0418 -0.0641 -0.0759
30563W        W46032  10.150   2.759   1.587 -0.0867  0.1369 -0.1787
30564W        W46033   6.453   5.884   0.452  0.0401 -0.0234  0.1569
30565W        W46034  15.515   4.495  15.704 -0.0787  0.0738 -0.0261
30566W        W46035  12.667   2.372  11.254 -0.0898 -0.1144 -0.1714
30567W        W46036   4.445   8.426  11.816 -0.1099  0.0832 -0.0627
30568W        W46037   2.260  15.722  15.132  0.1307  0.1310  0.0668
30569W        W46038   2.005  12.259   2.816 -0.1055  0.0566 -0.1446
30570W        W46039  17.497  13.643   1.839  0.3686 -0.0818  0.3938
30571W        W46040  12.473  10.603  15.792 -0.0883  0.1496 -0.4916
30572W        W46041   7.781  17.803   2.703  0.2540 -0.1207  0.2782
30573W        W46042  12.932  15.138  15.970 -0.1655  0.0654  0.0564
30574W        W46043  17.397   6.917  11.843 -0.3732 -0.1269  0.0932
30575W        W46044  16.896  14.586  11.987 -0.0710  0.3581  0.0924
30576W        W46045   5.586  14.220  12.955 -0.0555 -0.1259 -0.0960
30577W        W46046   5.819   3.460   4.399  0.1392  0.0878 -0.1559
30578W        W46047   9.655  14.444  15.373 -0.2876 -0.1857  0.2914
30579W        W46048   1.037  17.442  12.359 -0.0360 -0.0097 -0.0764
30580W        W46049   8.335   6.523  14.743 -0.2304 -0.1550 -0.0332
30581W        W46050   3.988  15.341   5.369  0.0746  0.0081 -0.2875
30582W        W46051  16.959  15.599   3.999 -0.0421  0.0883 -0.0822
30583W        W46052   8.475  10.470  15.028  0.2242  0.0557  0.2910
30584W        W46053   5.577   6.244  11.076  0.1480  0.2398 -0.1706
30585W        W46054  10.383  10.535  10.424 -0.1134 -0.0907  0.1173
30586W        W46055   3.117  11.564   6.358 -0.1253  0.3009 -0.0481
30587W        W46056  17.706  15.030   4.404  0.2082 -0.1662  0.0261
30588W        W46057   1.789   1.034  13.756  0.2455 -0.0472  0.1169
30589W        W46058   8.520   9.176  13.273  0.1338 -0.0515  0.1129
30590W        W46059   2.514  10.146  13.668 -0.0513  0.1522  0.1768
30591W        W46060  10.367   5.096  14.083  0.4541 -0.1521  0.0044
30592W        W46061   5.660   3.322   0.331  0.0897 -0.4255 -0.1426
30593W        W46062   4.686  17.146  15.975  0.1418  0.0653 -0.1209
30594W        W46063   0.924   4.366   2.663 -0.3398 -0.0504  0.1732
30595W        W46064   5.124   7.470   4.568  0.1859 -0.0906  0.2857
30596W        W46065   4.536   2.256   0.170  0.1473  0.0988  0.0732
30597W        W46066  11.225  11.732  13.761  0.0051  0.0506 -0.0280
30598W        W46067   8.336   0.863   4.013  0.0016  0.2851 -0.0444
30599W        W46068  18.176   2.903   0.328 -0.0035 -0.0400 -0.5283
30600W        W46069  13.904   3.813  14.418 -0.0019 -0.0772 -0.2331
30601W        W46070  15.981   9.969  13.742  0.2287 -0.1296  0.1493
30602W        W46071  14.429  16.972  15.787  0.0908 -0.4139 -0.1501
30603W        W46072   7.145  10.105   0.609 -0.1639 -0.1538  0.1181
30604W        W46073  17.311   0.285   2.592  0.2500 -0.1381  0.3413
30605W        W46074  10.498  14.967   2.526  0.3440 -0.3808  0.2177
30606W        W46075   9.598   4.208  15.824 -0.0806  0.2684 -0.1550
30607W        W46076   8.628   2.516   4.569 -0.0862  0.1380 -0.1315
30608W        W46077   4.141   2.026  14.636 -0.1010 -0.0248  0.1912
30609W        W46078  11.981  17.759   1.651 -0.1266 -0.0017  0.0849
30610W        W46079  12.107   4.376  14.665  0.0662  0.0140 -0.0009
30611W        W46080  10.397   6.445   3.043 -0.4689  0.2729  0.1089
30612W        W46081  14.954   5.840  14.173  0.0828 -0.2802  0.0010
30613W        W46082   0.794   4.692   5.191 -0.2365 -0.3128 -0.1557
30614W        W46083  11.809  14.607  10.683 -0.1033  0.1987 -0.0919
30615W        W46084   5.662  17.667  13.955  0.2981 -0.1468 -0.1482
30616W        W46085   1.040  13.396   0.570 -0.2149  0.2020  0.2500
30617W        W46086   2.780  15.063   1.141 -0.1107  0.0695 -0.4096
30618W        W46087  12.184  12.994  14.617 -0.1006  0.0366  0.3274
30619W        W46088  13.583  14.605  14.604  0.2195 -0.0353  0.1641
30620W        W46089   0.977  13.437  12.382 -0.2641  0.0444 -0.0111
30621W        W46090  13.628  15.937   1.846 -0.2295  0.0598  0.0822
30622W        W46091  16.764  13.755  13.510  0.2461 -0.0993 -0.2515
30623W        W46092  13.030  12.406  15.249 -0.0009  0.2077 -0.0439
30624W        W46093  13.268   2.626   2.527  0.0728  0.0386 -0.1331
30625W        W46094  14.043  10.733   1.760 -0.0311 -0.2378  0.0629
30626W        W46095   0.027   5.035   2.090 -0.0481  0.2314  0.1483
30627W        W46096   6.479  13.660  14.389 -0.4567  0.1830 -0.0988
30628W        W46097   1.749  12.524  13.503  0.3211 -0.1179  0.0147
30629W        W46098  12.986   6.016   0.309  0.0621 -0.0969 -0.0063
30630W        W46099   2.387  12.885   2.406 -0.3103  0.0808 -0.2199
30631W        W46100  13.516  17.810  11.776  0.0458  0.0474  0.0039
30632W        W46101   1.433   1.822   2.628  0.2968 -0.0207  0.2125
30633W        W46102   7.306  13.962  14.680  0.1089  0.0423 -0.2200
30634W        W46103   4.912  18.370  13.802  0.0367  0.1343 -0.1176
30635W        W46104  13.139   8.660  10.903 -0.0489  0.3547  0.1646
30636W        W46105   2.608   3.438   2.774  0.1773  0.0876 -0.0361
30637W        W46106   3.419   8.413  12.724  0.0105 -0.0072 -0.1252
30638W        W46107   6.370   1.181   1.601 -0.0780 -0.0419  0.0639
30639W        W46108  13.965  16.601  12.742 -0.0641 -0.1479  0.0625
30640W        W46109  14.073  14.751  14.669 -0.0570  0.1288  0.0941
30641W        W46110  13.275  14.910   0.996 -0.0174  0.0891  0.1249
30642W        W46111  14.784  14.126   5.265 -0.1720 -0.0540 -0.0530
30643W        W46112   6.319   3.379  13.509  0.2856  0.3474  0.1205
30644W        W46113  17.981   6.754   1.560  0.2681 -0.1382 -0.0104
30645W        W46114  17.357   7.874   2.894 -0.1649 -0.2231  0.1357
30646W        W46115   5.519  17.586   2.266  0.1015  0.2169 -0.3047
30647W        W46116   5.017   3.799  12.691 -0.2383 -0.2209 -0.3143
30648W        W46117   7.085  13.470   0.767 -0.1828 -0.2395 -0.0034
30649W        W46118   8.917  10.893   2.465 -0.3648  0.0435  0.0578
30650W        W46119   8.022   3.463  12.620  0.0846  0.0013  0.0715
30651W        W46120   5.206   6.181  11.456 -0.0684 -0.0467  0.0436
30652W        W46121   5.538   1.316  12.613  0.0771  0.1937  0.0847
30653W        W46122   1.212   9.587   0.749  0.1005 -0.0828  0.5066
30654W        W46123   6.657   7.480  13.224  0.3770 -0.0627 -0.1274
30655W        W46124   0.866   9.894   5.027 -0.1931  0.1263  0.1295
30656W        W46125   7.110   2.411  14.787 -0.0250 -0.0443 -0.0432
30657W        W46126  11.756   5.048   2.208 -0.0635  0.1022  0.2644
30658W        W46127  13.111   0.801  10.727  0.1592 -0.0065  0.0822
30659W        W46128  12.230  17.297   1.648  0.1547 -0.1298  0.0613
30660W        W46129  12.654  14.394  12.778 -0.2046 -0.0541 -0.0697
30661W        W46130   7.984   5.080   2.201 -0.0560 -0.0292 -0.1513
30662W        W46131   6.742   9.510  11.282  0.1962  0.0008 -0.0798
30663W        W46132  14.377   7.971   4.573  0.0443 -0.0710  0.3980
30664W        W46133  15.640   0.372   2.096  0.3510  0.0695  0.2086
30665W        W46134   3.493   8.912  12.866 -0.1432  0.1571  0.0738
30666W        W46135   3.652  10.743   4.453  0.0065 -0.0576  0.0293
30667W        W46136   0.165  18.239   0.384 -0.0557  0.0836  0.1006
30668W        W46137  14.250   9.251   0.060 -0.0014 -0.0278  0.0865
30669W        W46138  16.596   0.353   0.733 -0.0740  0.3258 -0.4444
30670W        W46139   3.427   9.359  11.828 -0.0260 -0.1522  0.2498
30671W        W46140   8.789  15.846  10.237 -0.1512 -0.2946 -0.0483
30672W        W46141   0.571   7.574   4.238  0.2090  0.2147 -0.0189
30673W        W46142  16.581  14.770  14.232 -0.2100 -0.0448  0.4539
30674W        W46143   3.766  11.451   5.158  0.2556 -0.1059  0.0923
30675W        W46144  14.670  15.836   3.034 -0.1733  0.0184  0.0237
30676W        W46145   3.814  14.520  12.209 -0.1166 -0.1592 -0.2629
30677W        W46146   4.489   1.437  15.286  0.0084  0.2197  0.0162
30678W        W46147  18.282   0.347   3.042  0.0355  0.1688  0.2533
30679W        W46148   5.571  11.465   1.940  0.1249 -0.2375  0.0037
30680W        W46149   2.549  14.722  15.862  0.1058  0.0373 -0.2321
30681W        W46150   9.958  10.676   2.692 -0.2250  0.0290  0.2023
30682W        W46151   0.921  11.010   0.027  0.1760  0.0274  0.1122
30683W        W46152  17.657   7.065   3.311  0.1331 -0.1263 -0.0169
30684W        W46153   7.194  11.160  13.334 -0.1783 -0.0377  0.0519
30685W        W46154  14.964   0.342   4.260  0.0525  0.5272 -0.3141
30686W        W46155   6.208   4.363   2.164  0.2789 -0.1351 -0.0580
30687W        W46156  15.501   1.026  15.870  0.2161 -0.2418 -0.0903
30688W        W46157  17.193   3.531  12.026 -0.1460  0.0908 -0.0547
30689W        W46158  14.313  15.739   1.059 -0.0308 -0.1153  0.2445
30690W        W46159   4.312   6.325   1.906  0.0147  0.3170 -0.0637
30691W        W46160  11.141   8.376  11.773  0.0481  0.0603 -0.1431
30692W        W46161   2.035  15.387  15.590 -0.0257 -0.2240  0.1010
30693W        W46162  17.498  13.337  11.599  0.0824  0.0969 -0.2232
30694W        W46163   6.813   1.720  13.832  0.0650  0.2035  0.0652
30695W        W46164  12.132  14.422  15.038 -0.1895  0.0756  0.1599
30696W        W46165  17.141   3.846   2.892  0.0405 -0.0194 -0.0246
30697W        W46166   1.324  17.944   5.002  0.1969  0.1620  0.0132
30698W        W46167  16.650   9.767   3.660  0.1571  0.0420  0.0623
30699W        W46168   9.386   2.485   1.875  0.1056 -0.1600  0.2365
30700W        W46169   2.025   5.226   5.535  0.1578  0.2320  0.0826
30701W        W46170  17.948  10.853   5.288 -0.0609  0.0828  0.3300
30702W        W46171  17.607  13.794   2.417  0.1258 -0.1679 -0.0590
30703W        W46172  17.162   9.829  14.101  0.2815 -0.2334  0.3103
30704W        W46173   2.473   9.499  10.730 -0.1163 -0.0425  0.0451
30705W        W46174   7.642  11.041  15.454  0.2593 -0.3684 -0.3432
30706W        W46175  12.842  11.980  11.449  0.1053  0.0109 -0.0616
30707W        W46176  10.843   1.261  14.267  0.3401 -0.0436  0.0197
30708W        W46177   5.479   1.033   4.001 -0.1910 -0.0430  0.1612
30709W        W46178  13.716   5.011  15.662  0.0992  0.2988  0.0695
30710W        W46179  10.800  16.095  10.668 -0.1714 -0.0537  0.0212
30711W        W46180   9.358   0.980   1.497  0.1956 -0.0532 -0.0443
30712W        W46181  18.383   1.888   3.606  0.0689  0.1584 -0.1209
30713W        W46182   6.950   5.187  13.808 -0.0933  0.2671 -0.2718
30714W        W46183   1.079  14.802  15.610  0.0479  0.0296  0.2116
30715W        W46184  15.932  17.151  12.431 -0.0935  0.0592  0.0091
30716W        W46185  10.955  11.987   5.482 -0.1252  0.0622  0.0701
30717W        W46186   7.336   5.177  12.212 -0.0547  0.1966  0.2639
30718W        W46187   7.752   9.202  12.222 -0.0256  0.1109  0.1145
30719W        W46188  14.408  17.765   1.044  0.2454 -0.0368  0.1652
30720W        W46189   3.880   0.165   0.458 -0.1059  0.0817 -0.1402
30721W        W46190  12.842   9.473   3.302  0.1712  0.0206 -0.0491
30722W        W46191  10.144  15.902   3.650  0.0719 -0.2766 -0.0972
30723W        W46192  15.925  12.952   1.403 -0.1267 -0.0029  0.2837
30724W        W46193  10.950   8.660   3.797  0.1530  0.0334  0.2685
30725W        W46194  16.158  18.065  14.386 -0.1371  0.0695  0.0776
30726W        W46195  11.418  11.684  15.286 -0.2924 -0.0072 -0.0749
30727W        W46196   6.844   9.178  13.074 -0.0743 -0.0775 -0.4298
30728W        W46197  11.161  12.830   1.908  0.2792 -0.0896  0.0003
30729W        W46198   5.423  12.784   4.396 -0.1121  0.3349 -0.0943
30730W        W46199  17.087   3.003   4.077  0.1946 -0.0587 -0.1293
30731W        W46200  10.129  10.487  13.221  0.1945  0.0836 -0.0639
30732W        W46201  13.297  15.793  12.686 -0.2920  0.0876  0.0802
30733W        W46202  11.342   0.919   3.646  0.2782 -0.1038 -0.4494
30734W        W46203   7.801  17.432  11.471 -0.1667  0.1326 -0.3644
30735W        W46204  10.098  14.432   1.037 -0.1324 -0.0340  0.0541
30736W        W46205  10.997   3.363  14.418  0.0650  0.2342  0.0826
30737W        W46206  11.266  15.400   0.760  0.2990 -0.3922  0.2406
30738W        W46207  14.585   9.062  14.196 -0.1756  0.1667  0.0623
30739W        W46208   8.919   4.429  15.324 -0.1075  0.1483 -0.0297
30740W        W46209   7.713   4.185   5.237 -0.0787 -0.1236  0.1509
30741W        W46210   5.479  14.796  14.036  0.2406 -0.1257  0.0760
30742W        W46211   0.687   2.694  12.983 -0.0599 -0.1457 -0.0719
30743W        W46212  15.466  11.791   3.425 -0.0268  0.2444 -0.1719
30744W        W46213   2.851  12.478  11.050  0.1449  0.1707 -0.1262
30745W        W46214  14.097  11.475   0.964  0.0581  0.0153 -0.1890
30746W        W46215  15.770  14.199   0.055  0.2534 -0.0044  0.1844
30747W        W46216   2.290   4.470   0.338 -0.2123  0.1591 -0.0775
30748W        W46217   0.396   2.581   2.934 -0.1275  0.1014 -0.0866
30749W        W46218   3.100   8.527  11.521  0.2080  0.0021  0.0996
30750W        W46219  12.421  14.352  13.494  0.0829  0.1957 -0.0080
30751W        W46220  17.242  11.802   4.798  0.0049  0.3797  0.4108
30752W        W46221   7.853   9.726   1.208  0.0799  0.1666 -0.1064
30753W        W46222   7.949  16.017  10.846  0.3494  0.1006  0.2211
30754W        W46223   6.419  16.000  10.470  0.1858  0.2678 -0.0642
30755W        W46224   9.519   0.307  15.285 -0.0687 -0.0095 -0.1223
30756W        W46225   0.015  13.818  11.279 -0.1257  0.3940  0.0074
30757W        W46226  13.399   5.015  11.899  0.2562  0.3501  0.0804
30758W        W46227  11.857  11.495  14.297 -0.1879 -0.3493  0.2065
30759W        W46228  13.342  11.793  11.981  0.0938  0.1029 -0.0989
30760W        W46229  11.512  10.774   1.154  0.0514  0.0596 -0.0494
30761W        W46230   6.755  11.009  12.785  0.1103  0.2901  0.1238
30762W        W46231   3.490  16.633  15.349 -0.0701 -0.0715  0.0605
30763W        W46232   6.980  15.131  15.549  0.3243  0.2274  0.4589
30764W        W46233   2.265  18.038   3.327  0.0546  0.0890 -0.3251
30765W        W46234   2.621  17.209  10.955 -0.1801 -0.0895 -0.0872
30766W        W46235  16.104   3.744   1.213 -0.2102 -0.3698 -0.1811
30767W        W46236   1.520  11.988  14.217 -0.0654 -0.0560 -0.1249
30768W        W46237   2.793   1.970  15.763 -0.4796 -0.0389  0.1470
30769W        W46238   2.243   0.762  10.989 -0.4135 -0.0847  0.1529
30770W        W46239   6.539   2.886  14.911 -0.3197 -0.1499 -0.0026
30771W        W46240   1.571   5.223   4.663  0.0177  0.1069  0.4834
30772W        W46241  14.456  13.555   1.761 -0.3508 -0.1751 -0.3369
30773W        W46242   1.533   3.803   3.495  0.0346 -0.0798  0.0100
30774W        W46243  14.071   6.477  13.355  0.2038 -0.1311  0.2567
30775W        W46244   2.162   5.029  14.575 -0.1099  0.0474  0.0479
30776W        W46245   0.711  12.682  11.862 -0.1689  0.1422 -0.1632
30777W        W46246   6.493   0.124  12.017 -0.0696  0.1517 -0.1532
30778W        W46247  13.165   2.080  15.981 -0.1527 -0.0993  0.0142
30779W        W46248   6.223  14.706  10.798  0.2127  0.1253  0.0377
30780W        W46249   9.166  18.385  15.493 -0.2407 -0.0064 -0.2613
30781W        W46250   2.488  16.677   4.103  0.4586  0.1934 -0.2841
30782W        W46251  17.446  11.702  15.704 -0.0023 -0.0558 -0.2759
30783W        W46252   8.536   0.649  10.817 -0.1203  0.1302  0.0791
30784W        W46253  10.733  12.434   4.920  0.0850 -0.0244 -0.0790
30785W        W46254  12.155   8.894   2.008 -0.2587 -0.0900  0.4591
30786W        W46255   9.213  14.195   5.006 -0.2278  0.1517  0.1964
30787W        W46256   5.626   8.530  10.538 -0.5002  0.2913  0.2107
30788W        W46257  14.941   2.333   3.577 -0.0803 -0.2164  0.0432
30789W        W46258   8.580  15.284  14.217 -0.0617 -0.1389 -0.1638
30790W        W46259  11.319  15.264  11.858  0.0756 -0.0377  0.3487
30791W        W46260   9.942   5.117  15.558 -0.1591 -0.1717  0.2086
30792W        W46261  13.591   4.745   4.249 -0.1048  0.0319 -0.3629
30793W        W46262   4.831  12.355  13.510 -0.1891  0.5600 -0.0384
30794W        W46263   1.246   7.636   2.378 -0.0830 -0.1616  0.3217
30795W        W46264   0.967  16.787  13.500  0.1446 -0.1699  0.2888
30796W        W46265  11.018   4.257   0.378 -0.2591 -0.4388 -0.0417
30797W        W46266  11.016   1.111  16.023  0.2610 -0.2504  0.1496
30798W        W46267  14.443   5.077  11.415  0.1787 -0.2015 -0.2039
30799W        W46268   0.616   0.896  12.697 -0.0010 -0.2880 -0.1549
30800W        W46269   2.121   9.953   6.013  0.1568  0.0389  0.1904
30801W        W46270   7.840  17.029   3.013 -0.2155  0.3543 -0.1147
30802W        W46271   4.032  13.794  10.368 -0.3276  0.0920  0.1661
30803W        W46272   2.421   7.609  12.322  0.0629 -0.1826  0.1283
30804W        W46273   4.216   0.271   0.036  0.0266 -0.0818  0.0679
30805W        W46274   7.279   2.692  11.395 -0.2605 -0.0074  0.0618
30806W        W46275   3.603   8.087  13.060  0.1561  0.1116 -0.0559
30807W        W46276  16.694   9.411   4.856  0.0053 -0.2734 -0.1740
30808W        W46277  18.007  18.304   0.469 -0.0929  0.2013  0.2438
30809W        W46278   7.500  11.277   2.779 -0.1588  0.0354 -0.2000
30810W        W46279  13.163  17.593  14.533  0.1342  0.1750 -0.0510
30811W        W46280  17.372  11.404  12.417  0.0575  0.2471 -0.2247
30812W        W46281  17.709  15.401  14.724 -0.1938  0.0569  0.3387
30813W        W46282  10.064  16.944   5.443  0.2471 -0.0586 -0.0631
30814W        W46283  13.982  12.038  15.318 -0.2774 -0.0616 -0.0695
30815W        W46284   3.040   9.934  16.013 -0.0036  0.0984 -0.0305
30816W        W46285  10.336   3.621   1.571  0.1449  0.5208 -0.0195
30817W        W46286  12.753  14.704   1.851  0.0240 -0.3009  0.0060
30818W        W46287  12.321   4.414  15.895  0.0480  0.2315  0.1329
30819W        W46288   9.836  11.035  15.885  0.0422 -0.1487  0.1616
30820W        W46289   7.530   4.382  13.260  0.1747 -0.1231  0.1363
30821W        W46290   5.917  11.495   0.010  0.3578  0.0582 -0.3748
30822W        W46291  14.430   1.543  13.468 -0.3258  0.0596  0.3339
30823W        W46292  15.659   6.881  10.748  0.1176 -0.0103 -0.0234
30824W        W46293  11.311  11.037  12.477  0.1000  0.1405  0.0551
30825W        W46294   5.071  15.786   3.097 -0.1243  0.1131 -0.0609
30826W        W46295   9.927   6.785  14.291 -0.2846 -0.2658 -0.1115
30827W        W46296   4.038   5.230   3.708  0.0518 -0.1914  0.0808
30828W        W46297  17.002   0.216   1.572  0.0683 -0.2189  0.2832
30829W        W46298   5.512  11.305   4.887  0.1033 -0.0311 -0.1135
30830W        W46299   1.572   2.911   4.726 -0.1321 -0.2555  0.0753
30831W        W46300  10.604  12.559  15.036 -0.0485 -0.0882  0.4316
30832W        W46301   6.650   0.701   0.475 -0.1109 -0.1547 -0.0455
30833W        W46302  11.094   2.814   0.892  0.0412  0.0974 -0.2156
30834W        W46303   9.497   5.130  14.687 -0.0058  0.2098 -0.0792
30835W        W46304   1.287   3.396   2.172 -0.0655  0.2065  0.0267
30836W        W46305  10.704   2.556  11.349 -0.4285 -0.2016  0.3164
30837W        W46306   5.221   9.548   3.198  0.1631  0.2613  0.0767
30838W        W46307   9.502  18.219   3.795 -0.1811 -0.0748 -0.1263
30839W        W46308   0.882  14.642   2.448 -0.2100  0.3593 -0.0405
30840W        W46309   2.762  13.921   4.329 -0.3261  0.1245  0.1526
30841W        W46310  13.166   1.102  11.163  0.2554  0.2373  0.1124
30842W        W46311  10.979  15.745   1.409  0.2135  0.2529 -0.3095
30843W        W46312  13.478   7.027  14.776 -0.0491  0.1240 -0.1626
30844W        W46313   6.477  16.750   0.480 -0.0422  0.1359  0.0411
30845W        W46314  15.202  11.763  11.333 -0.0606  0.0255 -0.0782
30846W        W46315  17.144   4.655  15.639  0.1604 -0.1130  0.1627
30847W        W46316   5.317   3.018  14.524 -0.2043  0.2646  0.0191
30848W        W46317  11.921  13.075   1.570  0.1986 -0.0639  0.2198
30849W        W46318   4.227  17.328   0.315  0.1097  0.0466 -0.0657
30850W        W46319   8.709  16.423  15.239 -0.0567  0.2226 -0.1029
30851W        W46320  15.279   7.047   5.264 -0.0463  0.1697  0.1822
30852W        W46321   5.024   7.012  14.164  0.1654  0.1442 -0.3034
30853W        W46322  13.550  14.744  13.466 -0.1529  0.0456 -0.2474
30854W        W46323   6.598   9.699  13.517  0.3352  0.0581 -0.1460
30855W        W46324  16.063  16.572  15.060  0.1381  0.2792  0.2300
30856W        W46325   3.399   5.699   2.373 -0.0127  0.3122 -0.1908
30857W        W46326   3.680   1.744  13.035 -0.1645 -0.2889 -0.1414
30858W        W46327   6.462   9.515  12.747  0.2504 -0.3110  0.0122
30859W        W46328   9.758  18.123   1.954  0.1223  0.0839  0.2682
30860W        W46329   6.741  18.062   0.481  0.0550  0.0947 -0.1223
30861W        W46330   6.816  16.669   1.542 -0.0064 -0.1786  0.1888
30862W        W46331  13.688  14.328  13.636  0.1296 -0.0648  0.1487
30863W        W46332   4.353  12.652   3.030  0.0553  0.2383 -0.0329
30864W        W46333   7.146  17.950  14.576  0.0410  0.0435  0.3155
30865W        W46334   5.728  10.270  15.239  0.0621 -0.1423 -0.1175
30866W        W46335   8.254  13.934  15.606 -0.0265 -0.0723 -0.0218
30867W        W46336  13.547  12.965  10.615  0.1679 -0.3866  0.0675
30868W        W46337   1.916  12.381  15.433 -0.0314  0.2464 -0.0838
30869W        W46338  10.306   3.834  12.077  0.0366 -0.2855 -0.2818
30870W        W46339  16.304   7.570  14.072  0.0264  0.0954 -0.0209
30871W        W46340   4.126   3.311   1.605 -0.1534 -0.0585  0.1928
30872W        W46341  15.853  11.410  12.778 -0.0015 -0.0214  0.1329
30873W        W46342   1.401   9.718   4.956  0.2713 -0.1594 -0.1156
30874W        W46343   5.429  15.229  15.156  0.0666  0.0416 -0.2300
30875W        W46344  18.402  10.215  11.074  0.2044 -0.0015  0.0266
30876W        W46345  13.992  13.579   1.877  0.1515 -0.0453  0.0550
30877W        W46346   9.474   0.240   0.305 -0.2231  0.0521  0.0892
30878W        W46347   7.325  13.064  14.999 -0.0640 -0.1375 -0.1199
30879W        W46348   2.152   2.004  13.029  0.2417  0.1919  0.2318
30880W        W46349  13.566  13.809  12.536 -0.2535  0.0881  0.0705
30881W        W46350   4.788   4.559   0.371  0.4537  0.3214  0.1561
30882W        W46351  15.976   6.430  12.268 -0.0838 -0.0329  0.0078
30883W        W46352  16.609   4.025  11.483  0.1043  0.1735  0.0687
30884W        W46353   7.953   0.400   4.800  0.0982 -0.0046  0.0241
30885W        W46354   8.503   8.992  11.155  0.0831  0.3337  0.0767
30886W        W46355  12.426   7.711   1.423 -0.0257  0.0880 -0.0191
30887W        W46356  16.677  16.820   3.437 -0.0274 -0.1994 -0.3176
30888W        W46357   3.367  15.107  11.536  0.1097  0.0060  0.2276
30889W        W46358   2.153   9.356   3.473 -0.1989 -0.1108 -0.1669
30890W        W46359   9.315  11.246   1.259  0.1783 -0.0288  0.2585
30891W        W46360   6.526   6.542  15.228  0.4777 -0.0667  0.0583
30892W        W46361  17.144  11.216  15.552 -0.0616  0.1391 -0.1066
30893W        W46362   9.317  11.273   2.316 -0.0032  0.0385  0.2190
30894W        W46363  13.621   4.190   4.299 -0.1599 -0.1135 -0.2056
30895W        W46364  12.595  10.953  14.821 -0.2280 -0.2372 -0.5561
30896W        W46365  11.526   6.084   3.636 -0.1004  0.0580  0.0918
30897W        W46366   7.477   7.537  15.570 -0.1179  0.1784 -0.0905
30898W        W46367   5.361  17.779  14.803  0.0862 -0.3013 -0.3741
30899W        W46368  16.894  15.628  15.497 -0.2259  0.0576 -0.1310
30900W        W46369  16.980   8.850  13.676 -0.1782  0.1108  0.2479
30901W        W46370   2.753   7.707  11.262  0.1599 -0.0048  0.3192
30902W        W46371  16.308   2.225   3.748 -0.0714 -0.1309 -0.2432
30903W        W46372   4.041   0.400   2.756  0.1242  0.4246 -0.1272
30904W        W46373  14.737  10.497  10.533 -0.0413  0.1207  0.3703
30905W        W46374  14.660   5.802   5.835 -0.0013  0.0903 -0.4650
30906W        W46375   4.134   0.530  10.953 -0.0990  0.2685 -0.1145
30907W        W46376  17.774   8.503  11.583 -0.1479 -0.2353  0.2643
30908W        W46377   0.969   2.236   3.744 -0.1884  0.2717 -0.2504
30909W        W46378   0.860   1.649   5.065 -0.0596 -0.2138 -0.1464
30910W        W46379  17.961   7.198  15.455  0.0389  0.2005 -0.2547
30911W        W46380  13.890  12.601  11.940 -0.0650  0.1960 -0.1053
30912W        W46381   9.356  17.654   1.111  0.2140  0.1334  0.1233
30913W        W46382   6.442  11.995   5.528  0.1806  0.2373  0.2051
30914W        W46383   0.425  16.685  12.594 -0.0826 -0.1619  0.3757
30915W        W46384   7.660  14.012  12.673 -0.0764  0.3362 -0.2066
30916W        W46385  16.022  12.122   0.145  0.4237 -0.3032  0.1506
30917W        W46386  11.643  13.586   3.700 -0.5265 -0.4608  0.0945
30918W        W46387  17.650   6.329  13.467  0.3943 -0.1588 -0.0554
30919W        W46388   8.812   7.095   2.712  0.1183 -0.1400 -0.0096
30920W        W46389   1.596   5.160   4.150  0.0894  0.0250  0.0988
30921W        W46390  13.553   4.812  12.792 -0.2603 -0.1505 -0.2838
30922W        W46391   2.160   4.316  11.897  0.1869 -0.2316 -0.0955
30923W        W46392  14.210   5.072  15.642 -0.1984  0.0893  0.1891
30924W        W46393  12.565   1.698   2.862 -0.1681 -0.2179 -0.2918
30925W        W46394  17.846   3.284   5.320  0.0497  0.1090 -0.0531
30926W        W46395  15.457  14.156   0.482 -0.1097 -0.2854  0.1420
30927W        W46396   0.500   3.017   3.170 -0.4126 -0.1805  0.0214
30928W        W46397  11.632  16.544   1.501 -0.3684 -0.2846 -0.1798
30929W        W46398   2.743  16.727  15.806 -0.0703  0.0048 -0.0707
30930W        W46399  10.418   6.395  11.411  0.2357  0.0646  0.1777
30931W        W46400   5.040   8.994  11.407 -0.0725  0.3919  0.3682
30932W        W46401  10.437   3.169   4.940  0.0822  0.0903 -0.0306
30933W        W46402   0.633   5.869  12.946  0.1602 -0.1308  0.0087
30934W        W46403   9.198  18.394   4.496  0.2421  0.0803 -0.1769
30935W        W46404  12.145   8.352   3.367  0.0064  0.2937 -0.0439
30936W        W46405  15.462  18.374   2.482  0.1005 -0.2556 -0.0255
30937W        W46406   2.121   3.461   2.841  0.0376 -0.1899  0.1217
30938W        W46407   6.858  16.479   3.875 -0.3141  0.0714  0.1162
30939W        W46408  12.603  18.086  12.267 -0.1565 -0.1552 -0.3369
30940W        W46409  13.537  17.062   3.878  0.1032 -0.1718  0.0124
30941W        W46410   8.904  13.572  15.974  0.1227 -0.1993 -0.1463
30942W        W46411  14.485  12.848   4.574  0.0491 -0.2760 -0.1193
30943W        W46412   4.616   5.826  16.003  0.3118 -0.0560 -0.0783
30944W        W46413   4.698   3.251   1.895 -0.4118  0.0846 -0.1410
30945W        W46414  10.094   3.222   2.464  0.1802  0.2580 -0.0699
30946W        W46415   1.435   7.512  13.441 -0.1242  0.1392 -0.0027
30947W        W46416  13.306   5.278   3.833 -0.0978  0.2316  0.0411
30948W        W46417   0.187  13.704  14.380  0.3810 -0.2438  0.0258
30949W        W46418  17.694   2.739   5.625  0.2668 -0.2289 -0.1705
30950W        W46419   6.624  14.685   3.100  0.2448 -0.0283 -0.3462
30951W        W46420  15.412   0.583   2.493 -0.3306 -0.1130 -0.2871
30952W        W46421   2.023   9.145  13.208  0.0075  0.2257 -0.0097
30953W        W46422  11.624  13.360  14.100 -0.1680 -0.1173 -0.1836
30954W        W46423   7.098   2.757   4.082  0.1648  0.1014 -0.0362
30955W        W46424  15.331   0.990  11.297 -0.1040  0.3445  0.0562
30956W        W46425  13.341   8.422   2.600 -0.1638  0.1168  0.0028
30957W        W46426  10.466   9.373   1.916 -0.1380  0.1183 -0.0578
30958W        W46427  17.240  11.486  14.613  0.2377  0.1297  0.1570
30959W        W46428  16.827  17.903   2.737  0.3914  0.0723  0.3604
30960W        W46429   2.157   8.791  11.896  0.0290 -0.1288 -0.2937
30961W        W46430  10.217  18.001  11.727  0.2572  0.0872 -0.0363
30962W        W46431  17.918  16.855   2.819 -0.2808 -0.0283 -0.2107
30963W        W46432   9.936   1.489  14.450  0.1600  0.1480 -0.1027
30964W        W46433   9.539   3.386  14.532  0.2942 -0.1958  0.2775
30965W        W46434   4.623   6.167   5.235  0.1604  0.0565  0.4549
30966W        W46435   2.089   1.664   2.410  0.0098 -0.5416 -0.0790
30967W        W46436  10.118   6.934  13.840  0.0816 -0.0770  0.1117
30968W        W46437   7.383  15.030  13.094 -0.2569 -0.3287 -0.5540
30969W        W46438   5.093  17.978   3.020 -0.1683  0.0023 -0.1488
30970W        W46439   4.039  11.369   0.856 -0.1605 -0.1291 -0.4202
30971W        W46440   9.354  10.979   4.622 -0.0378 -0.1513 -0.0241
30972W        W46441  11.700   1.406  12.237  0.2851 -0.2987  0.0290
30973W        W46442   1.769   3.523   4.549  0.0927 -0.0716 -0.0771
30974W        W46443  17.166  15.710  14.759  0.2122 -0.1335 -0.1054
30975W        W46444   3.117   6.808   3.519  0.0273  0.3844  0.1942
30976W        W46445   5.529   8.440   0.338  0.1143  0.0361 -0.1634
30977W        W46446  13.610   8.182   4.005  0.0198 -0.0808  0.1830
30978W        W46447  18.345  11.073   0.954  0.0644  0.1930  0.0787
30979W        W46448   3.714   3.282   0.237 -0.2836 -0.0329 -0.0174
30980W        W46449  10.961   3.608   6.062  0.2246 -0.1600  0.3963
30981W        W46450   5.211   1.179   2.802 -0.1333 -0.3810  0.2450
30982W        W46451   1.791   5.213  11.516  0.0164  0.2261 -0.1426
30983W        W46452  11.269  17.112  11.546  0.1798 -0.1092  0.1779
30984W        W46453   4.139  10.181  15.663 -0.1215 -0.3531  0.2478
30985W        W46454  18.305   7.166  13.710  0.0544  0.2109 -0.3194
30986W        W46455   7.136  10.403   4.436  0.0754 -0.2637  0.0626
30987W        W46456  13.133  12.189   0.597 -0.0204  0.0481 -0.0596
30988W        W46457   0.756  18.321  15.584 -0.1835  0.1105  0.0159
30989W        W46458   8.694  16.340   1.488  0.3179  0.3685  0.1808
30990W        W46459  13.136  17.537   0.227 -0.2548 -0.0423 -0.3133
30991W        W46460   0.467   5.745   1.760  0.2495 -0.0467 -0.0985
30992W        W46461   7.079  17.624  12.982 -0.2076 -0.0107  0.0391
30993W        W46462  17.099   4.730  15.154  0.0022  0.0961 -0.3214
30994W        W46463   7.835  12.755   3.321 -0.3356  0.1277 -0.1698
30995W        W46464   9.326   4.784   1.937  0.4530 -0.0914 -0.1184
30996W        W46465  15.987  10.666  13.346 -0.0315 -0.0315 -0.0588
30997W        W46466   0.693   7.355  12.410  0.0886 -0.2797 -0.2901
30998W        W46467   9.332   6.160  14.063  0.2391 -0.0552  0.0273
30999W        W46468   9.233   7.863  15.929 -0.1258 -0.1040 -0.5494
31000W        W46469   8.188  12.648   1.650  0.0116  0.0077  0.1639
31001W        W46470   2.008   0.832  11.897 -0.2565  0.2366  0.3444
31002W        W46471  17.317   9.438   5.641 -0.0411  0.1394  0.0789
31003W        W46472  13.348  17.206  10.864  0.0658  0.0897 -0.2796
31004W        W46473  12.235  12.010   3.072 -0.0222  0.1532 -0.2098
31005W        W46474   3.017   8.865  12.877 -0.0445 -0.2535  0.0042
31006W        W46475   7.128   3.492  14.556 -0.0250 -0.2788  0.0910
31007W        W46476   7.988  14.160  13.112 -0.4043 -0.0976  0.3463
31008W        W46477   9.092  10.365  10.764 -0.1356 -0.1468 -0.1235
31009W        W46478   1.353   4.213   4.886 -0.2199  0.3195  0.1268
31010W        W46479  12.234   1.138   1.575 -0.4664  0.0223 -0.1468
31011W        W46480   6.303   1.127   3.459  0.1301  0.2158  0.0247
31012W        W46481   5.585   8.613  13.588 -0.1322  0.0094 -0.0701
31013W        W46482   3.537   8.604   1.079 -0.0617  0.0958 -0.0365
31014W        W46483  17.351  10.890   3.625 -0.2373 -0.0118  0.2918
31015W        W46484   9.381  13.616   0.149 -0.0311 -0.0426 -0.0941
31016W        W46485   9.256  15.364  14.084  0.1242  0.0499 -0.0530
31017W        W46486   5.446   9.943  13.748  0.0726 -0.1269  0.1121
31018W        W46487   2.209   0.696  13.502 -0.0159 -0.1451 -0.1999
31019W        W46488  12.135  12.094   0.366  0.0300  0.0171 -0.1053
31020W        W46489  13.078  13.973   3.221 -0.1752 -0.1968 -0.1951
31021W        W46490  17.392   6.092   1.432 -0.1085 -0.3225  0.3440
31022W        W46491  17.124   4.414   0.584  0.1611  0.0748  0.1269
31023W        W46492  14.175   2.699   2.338  0.0593 -0.0121 -0.0180
31024W        W46493   7.204   8.705   4.851 -0.1081 -0.0877  0.0799
31025W        W46494  15.473   8.017   4.164  0.0502 -0.1151  0.2352
31026W        W46495   5.855   1.328  12.164 -0.3544  0.1769  0.1337
31027W        W46496   4.811  13.325   0.836 -0.0970 -0.0616  0.1281
31028W        W46497   7.636  16.473   2.051 -0.1680  0.2350 -0.4537
31029W        W46498  11.869  17.987   3.596 -0.2684  0.1391 -0.3893
31030W        W46499   1.698   8.034  15.964 -0.3017  0.2438  0.0504
31031W        W46500   1.497  14.510  15.263  0.1595  0.3081 -0.1494
31032W        W46501   1.598   3.441   2.605 -0.0882  0.1431  0.1275
31033W        W46502  17.698   7.738  13.107 -0.3631  0.2541  0.0047
31034W        W46503   0.546   4.162   1.785  0.3119 -0.1774  0.0200
31035W        W46504  17.148  12.151  11.341  0.2279  0.0683 -0.1271
31036W        W46505  13.675   3.851   5.697 -0.1165 -0.1686 -0.0862
31037W        W46506   8.684  11.236   4.554  0.0638 -0.3599 -0.1485
31038W        W46507   6.719   0.206  15.839 -0.1640 -0.0579 -0.0761
31039W        W46508   2.352  17.008  14.830  0.0389  0.1328  0.1689
31040W        W46509   2.626   1.170  11.093  0.0867  0.2374 -0.0270
31041W        W46510  14.415   0.675  14.872  0.2250  0.0867  0.0018
31042W        W46511   5.109   9.953   1.013 -0.1278  0.2988  0.2589
31043W        W46512  11.048   0.709   1.028  0.0435 -0.1839 -0.1490
31044W        W46513   3.986   6.805   1.882  0.0242  0.0093 -0.0604
31045W        W46514  15.103  12.519  14.410  0.0273  0.0711  0.3422
31046W        W46515   9.299   8.460  14.200 -0.4366  0.1940  0.2040
31047W        W46516   9.286   8.850   5.464  0.5913  0.2594  0.1867
31048W        W46517  15.775   7.713  14.173  0.0191 -0.0717  0.0797
31049W        W46518   4.293   4.067  14.065  0.1414 -0.0533 -0.0218
31050W        W46519  14.104   7.934  15.641  0.2168  0.1647 -0.0801
31051W        W46520  17.845   4.389   4.526  0.0334  0.0295  0.0537
31052W        W46521  15.295   9.246   3.290  0.2578 -0.2502  0.1564
31053W        W46522   9.523  12.640  13.755  0.0169 -0.1284 -0.5332
31054W        W46523   7.858   1.087  11.254 -0.2043 -0.0108  0.3722
31055W        W46524  14.443  17.957  14.781 -0.2882  0.1553  0.0657
31056W        W46525  16.433   9.100  12.752  0.3929  0.0686 -0.1343
31057W        W46526   5.664   6.967  11.233  0.0499  0.1157 -0.1844
31058W        W46527  16.216  11.930   1.637  0.1861 -0.3713 -0.0492
31059W        W46528  12.717   0.452  12.582 -0.2404  0.1046 -0.0397
31060W        W46529   7.270   6.405  14.891 -0.1201 -0.2359  0.3363
31061W        W46530   8.610   1.196   4.278  0.0393 -0.3294  0.2771
31062W        W46531  10.496   1.488  13.000  0.2989  0.1293 -0.3613
31063W        W46532   2.504   0.415  13.111 -0.1244 -0.1903  0.1015
31064W        W46533  10.192   7.614   0.665  0.2765 -0.1507  0.2537
31065W        W46534   5.351  10.167   0.287 -0.0826 -0.0793  0.2700
31066W        W46535   4.208   0.029  11.142  0.0687 -0.1135 -0.0411
31067W        W46536   5.205  12.766   0.464 -0.2159 -0.1682 -0.0321
31068W        W46537   0.356  10.005   0.919  0.0485 -0.2237 -0.3224
31069W        W46538   3.042  16.318   2.548 -0.1162 -0.3755 -0.0666
31070W        W46539   6.933  11.434  15.825  0.2830  0.0873  0.1887
31071W        W46540   1.305   2.490   4.484 -0.0529 -0.0990  0.3693
31072W        W46541   6.219   0.774  13.200  0.0118  0.1326  0.0796
31073W        W46542   1.471   0.443   2.116 -0.0737  0.0519 -0.1703
31074W        W46543   1.564  13.338  14.482 -0.5126 -0.0046 -0.1872
31075W        W46544  15.664  15.306  14.895 -0.1969 -0.0123  0.1492
31076W        W46545   4.341   5.118   3.252  0.1872  0.1681  0.4402
31077W        W46546   5.142  16.816  15.788 -0.0629 -0.0304 -0.1478
31078W        W46547  11.341  11.003   1.864 -0.2021  0.2286  0.0760
31079W        W46548  16.511   8.117   3.007  0.3133  0.4297  0.1586
31080W        W46549  11.070   7.857  15.782  0.0235  0.3374 -0.0598
31081W        W46550   8.294   4.878  12.224 -0.0228 -0.0861 -0.0006
31082W        W46551  10.331  15.600  10.481  0.2962  0.1562 -0.1388
31083W        W46552   8.937   8.888  10.882 -0.0994 -0.2303  0.0561
31084W        W46553   0.650  13.637   2.550 -0.0919  0.0374  0.1706
31085W        W46554   2.680   3.760   0.192 -0.2499 -0.1960 -0.0287
31086W        W46555   3.739   1.371   3.521 -0.1718 -0.0078  0.3376
31087W        W46556   3.628  12.619   1.751 -0.2107  0.1694 -0.1562
31088W        W46557   1.706  15.312   4.861  0.0036  0.0254  0.0887
31089W        W46558   0.810  12.190   3.633  0.1248  0.2116  0.4402
31090W        W46559   4.395   0.147   3.316 -0.0234  0.1158  0.1314
31091W        W46560  10.030  12.395   0.190 -0.0028 -0.0888  0.0213
31092W        W46561   0.252  15.595  11.348 -0.2313 -0.2983 -0.2899
31093W        W46562  10.878  14.174   3.803  0.2123  0.1484  0.2000
31094W        W46563   9.654   2.911   2.460  0.5385 -0.1122  0.0061
31095W        W46564  18.104   7.591   3.788 -0.2402 -0.0743 -0.1691
31096W        W46565   3.892  10.189  11.940  0.0578 -0.0086  0.1814
31097W        W46566  14.684  14.040  15.296 -0.1027  0.1965 -0.0307
31098W        W46567   1.753  12.661   0.564  0.2705  0.2593  0.1179
31099W        W46568   4.345   7.147   3.580 -0.3096 -0.1457 -0.2899
31100W        W46569  17.193   4.271   1.485  0.0013  0.3055  0.0134
31101W        W46570   0.157  16.968  13.012 -0.0113  0.1059  0.0825
31102W        W46571  14.008   6.739   3.503 -0.4202 -0.0170 -0.1201
31103W        W46572  14.123  11.294   1.787 -0.1858 -0.0626  0.3377
31104W        W46573   1.221  10.351  14.253 -0.1630 -0.1271  0.0643
31105W        W46574  16.164   3.731   3.978 -0.0220 -0.0740  0.1881
31106W        W46575  16.427   5.801   3.886  0.2258 -0.0328 -0.0731
31107W        W46576  14.331   2.888   1.298 -0.1979 -0.2063  0.2148
31108W        W46577  13.774   7.441  14.730  0.1265  0.1107 -0.3256
31109W        W46578  12.658  15.462  10.200 -0.1079 -0.0612 -0.0519
31110W        W46579   7.524   8.298   3.954 -0.0485 -0.3830 -0.3530
31111W        W46580  14.675   1.479  11.550  0.2061  0.2086  0.1301
31112W        W46581   6.142  16.716   2.867 -0.1095  0.0454  0.0796
31113W        W46582   4.005   6.664   4.885  0.1740  0.2279  0.0625
31114W        W46583  14.452   2.577   4.351  0.0934 -0.0674 -0.1173
31115W        W46584   3.280   6.852   1.129  0.2259 -0.2256 -0.3813
31116W        W46585  17.118   4.562   3.405 -0.2447 -0.0478 -0.2460
31117W        W46586   7.841   1.017  14.740  0.0948 -0.1167 -0.1659
31118W        W46587   1.194  16.176  15.547  0.0086 -0.2667 -0.0275
31119W        W46588   1.326  11.949   2.362  0.1932  0.0546 -0.2570
31120W        W46589   3.314   2.800  13.208 -0.1563 -0.0974 -0.0573
31121W        W46590   8.015   6.022  11.110 -0.1859  0.3889  0.2224
31122W        W46591   8.781  18.052  15.382 -0.1212  0.1494 -0.3101
31123W        W46592  12.222   1.878   3.404 -0.0052 -0.0067 -0.0558
31124W        W46593  17.698   3.376   3.171  0.1201  0.1212 -0.0914
31125W        W46594   4.367  10.337   6.371  0.0499 -0.1821 -0.2682
31126W        W46595   0.622  13.889   3.796 -0.1206 -0.0360 -0.1218
31127W        W46596   1.953   5.422  14.730  0.1095  0.2676  0.1153
31128W        W46597  13.306   3.175   2.416 -0.1000  0.3543  0.1353
31129W        W46598   9.494  17.546  13.573 -0.0128  0.2383  0.0738
31130W        W46599   0.898   7.791   1.475  0.2135 -0.1303 -0.0774
31131W        W46600   2.849   7.060   2.870 -0.1506  0.1043  0.2227
31132W        W46601   3.247  15.373  11.980 -0.1427 -0.0749 -0.2564
31133W        W46602  12.345  14.055   3.895  0.0080 -0.0063  0.1984
31134W        W46603   1.075   1.737  15.521  0.2184 -0.2363 -0.0154
31135W        W46604  15.333  17.424   0.674 -0.3545  0.2590 -0.0844
31136W        W46605   0.647  13.106   0.209  0.0410  0.0316  0.1871
31137W        W46606  11.506   1.276   3.338 -0.1268 -0.0993  0.3182
31138W        W46607  11.267   0.698  11.803  0.0569 -0.0613  0.1496
31139W        W46608  11.939   5.142   5.683  0.2311 -0.1687 -0.0019
31140W        W46609  12.906   6.956  15.313  0.1619  0.0197 -0.1265
31141W        W46610  15.618   1.903  12.656  0.2156  0.1238  0.0998
31142W        W46611  14.547   3.518   4.799  0.1529 -0.1081  0.3188
31143W        W46612   2.201   3.482   0.069  0.1215 -0.1977 -0.2039
31144W        W46613  13.303  11.193   3.302  0.2661  0.1839 -0.5436
31145W        W46614   9.839  13.715  13.575  0.1458 -0.1957 -0.2471
31146W        W46615   7.128  12.529  13.444 -0.4188  0.0441 -0.1168
31147W        W46616   9.941   9.590   5.826 -0.1088  0.1757  0.1078
31148W        W46617  18.068   1.147  14.699  0.0058  0.3260  0.0564
31149W        W46618   8.383   2.143   3.383  0.0302 -0.1852 -0.2590
31150W        W46619   9.605   5.967   0.089 -0.1380  0.1046  0.0429
31151W        W46620   7.342  12.592  10.733 -0.2297 -0.2499  0.0362
31152W        W46621  10.498  17.204   2.156 -0.1609 -0.3532 -0.2047
31153W        W46622   3.543  11.715   0.361 -0.1953  0.0763  0.0637
31154W        W46623   2.993  12.079  14.728 -0.0919 -0.0542  0.4018
31155W        W46624   6.312   8.942   6.175  0.0603  0.3882 -0.0499
31156W        W46625  13.400  14.180  10.695 -0.2177 -0.3279  0.0811
31157W        W46626  13.217   1.485  14.924  0.2715  0.2249  0.3844
31158W        W46627   3.470   7.831   4.303 -0.1182  0.3113 -0.0652
31159W        W46628  15.105  10.453   3.664 -0.1181  0.1625 -0.0923
31160W        W46629   0.163  10.896  15.648  0.1315  0.0116  0.3646
31161W        W46630  12.443   8.720  13.053  0.0572  0.1557  0.2291
31162W        W46631   7.164  13.075  11.293 -0.1307 -0.1913  0.1726
31163W        W46632  13.893   0.480  11.209 -0.1132  0.1912  0.1809
31164W        W46633   8.682  15.069  12.573 -0.2009  0.0854  0.1458
31165W        W46634   4.513   3.229   4.934  0.0633  0.0559 -0.2431
31166W        W46635   7.826  14.399  15.049  0.0514  0.0435 -0.1074
31167W        W46636  10.436  12.859   4.691  0.1489  0.1863 -0.1990
31168W        W46637   1.068  15.260  15.861 -0.1570  0.4895 -0.0512
31169W        W46638   4.211   3.954   4.676  0.2200 -0.1248 -0.1236
31170W        W46639   0.536   4.618  13.807  0.3279  0.0408  0.1599
31171W        W46640   4.883   3.188  13.721  0.0473 -0.0362 -0.0329
31172W        W46641   4.252   6.276  13.834  0.4266 -0.2577 -0.3510
31173W        W46642   3.196  18.184   2.412  0.0608 -0.1191 -0.0524
31174W        W46643   7.987   3.224  13.395  0.0574  0.1161  0.1135
31175W        W46644  13.723  18.223  13.494  0.3433 -0.0715  0.1994
31176W        W46645   8.950   9.314   4.818 -0.2373 -0.0144 -0.2047
31177W        W46646  17.895  11.793   1.367  0.0811  0.2557  0.1021
31178W        W46647   7.960  14.751   1.464  0.1521  0.0283 -0.1434
31179W        W46648  14.825   3.025   5.045  0.0996  0.2137  0.3601
31180W        W46649   6.615   6.949   4.902  0.2352 -0.0622 -0.0132
31181W        W46650   7.417   7.910   4.310 -0.0058  0.1653 -0.2823
31182W        W46651  17.036  13.427  15.065 -0.0280  0.1631  0.0197
31183W        W46652  16.736   8.917   6.030  0.0617  0.2458  0.1120
31184W        W46653   9.841   9.224   4.553  0.0939 -0.0849  0.2738
31185W        W46654   1.098   4.611   3.970  0.0241 -0.2295  0.2037
31186W        W46655   4.580   3.705  15.128 -0.2303 -0.1954 -0.2370
31187W        W46656   8.627   4.620   4.553 -0.0721 -0.0840  0.1904
31188W        W46657   0.803  16.037   1.691  0.1167  0.0761  0.0522
31189W        W46658   9.281  12.813  12.545 -0.0279  0.1545 -0.1207
31190W        W46659  13.859  14.194  14.674  0.0906  0.0647  0.3721
31191W        W46660  15.866  17.764   4.059 -0.2286 -0.3448  0.0022
31192W        W46661  12.871  11.683   0.170 -0.1034 -0.0977  0.0475
31193W        W46662   0.313  15.630   2.879  0.0122  0.1841 -0.1349
31194W        W46663  18.171   8.960  11.565 -0.1241  0.2861 -0.1490
31195W        W46664  18.122  17.531   1.346  0.3583  0.0886  0.0551
31196W        W46665   7.218  12.213   5.008 -0.0008  0.3333  0.3223
31197W        W46666   2.451   4.593  11.352  0.1628  0.5351  0.0068
31198W        W46667  10.660  16.552  12.152 -0.0781 -0.1557  0.2009
31199W        W46668  16.005  18.288   1.559 -0.1416 -0.1562 -0.5071
31200W        W46669   4.492  18.414   5.090 -0.0640 -0.3615 -0.0687
31201W        W46670   0.518   5.843   2.899  0.0291 -0.1514 -0.4252
31202W        W46671  11.687   7.525   3.832 -0.0178 -0.0501 -0.1981
31203W        W46672   9.049  13.647  14.986  0.0198 -0.0407  0.0544
31204W        W46673  12.174  11.023  14.379 -0.0515 -0.4052 -0.1691
31205W        W46674  12.966  10.499   4.529  0.0486 -0.1221  0.2718
31206W        W46675   5.351   4.814  13.843  0.0661 -0.0803 -0.1344
31207W        W46676   9.973  10.176  11.052 -0.0033 -0.0632  0.1859
31208W        W46677  15.040  12.576   1.128 -0.3647  0.1347  0.0421
31209W        W46678  14.507   3.278   1.599  0.1499 -0.0564 -0.1128
31210W        W46679   7.394   2.392   2.348 -0.1090  0.0598  0.2523
31211W        W46680   0.029   2.692  14.258 -0.1145  0.1219 -0.0002
31212W        W46681   5.764  11.632   2.935 -0.0634 -0.0737  0.0366
31213W        W46682   8.491   4.122   4.995 -0.1645 -0.0363  0.1578
31214W        W46683   1.530  13.903  14.610  0.2614 -0.1127  0.1298
31215W        W46684  17.956  16.540   4.058  0.1609  0.1108 -0.3200
31216W        W46685   8.910   9.744  11.367 -0.1694 -0.1475  0.1027
31217W        W46686   1.493  16.335  11.362  0.0172 -0.2308  0.3066
31218W        W46687   9.942  18.060  13.486 -0.0199 -0.1611 -0.1809
31219W        W46688   0.379  14.823  11.001 -0.2564 -0.1939 -0.0766
31220W        W46689   1.285  13.825   0.499  0.1023  0.1997 -0.2394
31221W        W46690  17.347  11.754   1.419 -0.2059 -0.0338 -0.1947
31222W        W46691  11.616  12.886  12.883 -0.1115  0.0463  0.2343
31223W        W46692   5.156  16.837  14.854 -0.0715  0.2155 -0.0789
31224W        W46693  11.123   7.148   1.820  0.1844 -0.2485  0.0166
31225W        W46694  10.400   7.715  13.401 -0.0827 -0.1758 -0.2246
31226W        W46695   5.598  10.784   1.337 -0.2075 -0.2570 -0.1296
31227W        W46696  15.640   1.393  12.074  0.0066  0.1585  0.2076
31228W        W46697   8.233  11.056  11.877  0.2415 -0.0671  0.1275
31229W        W46698  14.326  18.030  13.756  0.2333  0.2100 -0.1723
31230W        W46699   1.286  15.436   2.354 -0.0538  0.0554  0.0052
31231W        W46700  11.337  10.774   2.417 -0.2569 -0.0341  0.1581
31232W        W46701  14.437   6.776   2.582 -0.1003  0.3297 -0.2806
31233W        W46702   5.718   8.130   0.003 -0.1002 -0.4637  0.0768
31234W        W46703   7.718   2.471  13.681  0.2042  0.2950 -0.1041
31235W        W46704  12.172   5.905   3.175 -0.0275  0.1273  0.2263
31236W        W46705  16.897   2.119  13.031  0.2423  0.1359  0.2758
31237W        W46706   4.254   9.116  11.545 -0.3655  0.1387  0.3545
31238W        W46707  17.319  10.778   5.047 -0.1324  0.0964 -0.1126
31239W        W46708  12.347   3.984   4.410  0.1725  0.0058 -0.3616
31240W        W46709   6.700   1.111   1.188 -0.2382 -0.0597  0.2097
31241W        W46710   1.638  18.199   0.114  0.0748 -0.0942 -0.1923
31242W        W46711  18.055  12.958   2.347  0.0892 -0.2555 -0.1249
31243W        W46712  18.236   0.677  11.397 -0.1003 -0.2116  0.0228
31244W        W46713  16.473   4.117  15.854 -0.0828  0.0765 -0.2160
31245W        W46714   6.549   3.885  15.707  0.1168 -0.0826 -0.0471
31246W        W46715  16.087  14.597  14.320 -0.3268  0.0028 -0.1277
31247W        W46716  14.056   7.627  13.024  0.1322  0.2263  0.4091
31248W        W46717   1.231   6.378   6.129 -0.0881 -0.2902  0.1569
31249W        W46718  12.537  16.100  11.439 -0.0432 -0.0369  0.0319
31250W        W46719  10.743  17.347   3.601  0.1280 -0.1911  0.1374
31251W        W46720   1.074  10.938   2.760  0.1735  0.0957 -0.0279
31252W        W46721   2.833  11.726   3.553  0.0170  0.1148 -0.2783
31253W        W46722   0.781   6.277  10.103 -0.0536 -0.0883  0.3357
31254W        W46723  10.577   9.549  14.527  0.1961 -0.0754 -0.3623
31255W        W46724   2.318  14.613  10.815 -0.0478  0.0434  0.0105
31256W        W46725   9.780   7.847  14.151  0.1159 -0.3582  0.0928
31257W        W46726   4.884  12.886  10.544 -0.0780  0.1584  0.0716
31258W        W46727  14.147  10.164  12.022 -0.0038  0.3967 -0.0110
31259W        W46728   2.706   3.983  12.566 -0.1457 -0.0541 -0.0516
31260W        W46729  14.198  16.341  14.985 -0.0928  0.0474  0.1863
31261W        W46730  18.423   7.548  14.023 -0.0606  0.0392 -0.1028
31262W        W46731   1.640  10.555  14.967 -0.0286 -0.1107  0.1199
31263W        W46732  10.393   3.687  12.954  0.1431  0.2762  0.3837
31264W        W46733  17.223   0.767  15.287 -0.1380 -0.1754  0.0632
31265W        W46734   6.344  13.327   2.002 -0.1347  0.0490  0.0571
31266W        W46735  14.332  12.781   1.790  0.3267 -0.0468 -0.2667
31267W        W46736   0.979   4.774  11.892  0.0945 -0.0448 -0.2059
31268W        W46737   9.590   6.530  12.065  0.0225 -0.0853  0.1046
31269W        W46738  13.206   9.447  14.698  0.5204  0.0805  0.2225
31270W        W46739   1.792   0.203  14.727  0.1096 -0.0859  0.1640
31271W        W46740   1.519   7.447  12.924  0.1959 -0.0258  0.0987
31272W        W46741  15.246  16.666   2.411  0.1073 -0.1433 -0.2529
31273W        W46742   1.286  17.736   4.211 -0.1319  0.1028  0.0336
31274W        W46743   5.167  12.524   2.609 -0.2790 -0.0067 -0.2195
31275W        W46744   0.354   2.959  12.658  0.2047 -0.4509  0.0691
31276W        W46745  11.829  11.606   4.421  0.0486 -0.0171 -0.0930
31277W        W46746   3.605   0.339  11.825 -0.1735  0.1336  0.0231
31278W        W46747  11.866   4.388  15.651 -0.3893  0.3316  0.1040
31279W        W46748  15.829  14.676  15.518  0.0443 -0.0949  0.0152
31280W        W46749  13.790  10.042  15.094  0.0472 -0.3525 -0.3144
31281W        W46750  11.298  14.983  12.340 -0.0419 -0.2757  0.1078
31282W        W46751  15.104   7.157  14.424 -0.0497  0.0528 -0.1301
31283W        W46752  16.260   0.669   0.873 -0.2439 -0.1133 -0.0251
31284W        W46753   8.648  11.287  11.339  0.3036  0.2398 -0.1653
31285W        W46754  10.361   7.527  15.455 -0.1453  0.1454  0.3298
31286W        W46755   8.233   0.236   3.600  0.1706 -0.1180 -0.0070
31287W        W46756  15.503   0.994   3.870  0.1449 -0.1539  0.2901
31288W        W46757   7.554   9.484   1.493 -0.1130 -0.1372 -0.0384
31289W        W46758   5.194  10.576  10.870 -0.0899 -0.1908  0.3513
31290W        W46759   9.797   6.475  11.217 -0.1923  0.0231  0.0419
31291W        W46760  16.162   2.031  10.975  0.3114  0.1180 -0.0788
31292W        W46761  11.579  17.510  11.273 -0.2616 -0.4668 -0.1436
31293W        W46762  15.180   2.210   0.993 -0.0039 -0.0097 -0.1138
31294W        W46763  10.765   1.428   1.353  0.1330 -0.3893  0.0382
31295W        W46764   8.204  12.479   4.826  0.3598  0.3375 -0.1707
31296W        W46765  15.201   0.177   0.171 -0.0898  0.1062 -0.2363
31297W        W46766   3.231   1.298   0.816  0.1898 -0.1460  0.1419
31298W        W46767  16.764   2.789   2.589  0.0411  0.0779 -0.1336
31299W        W46768   6.445   2.858   4.503 -0.1154 -0.3508 -0.1175
31300W        W46769   4.319  14.635   4.812  0.1204 -0.1629 -0.0787
31301W        W46770   7.393   9.973  12.129 -0.6258  0.2836 -0.0673
31302W        W46771  16.655  17.378  14.952 -0.2943 -0.1064 -0.1528
31303W        W46772   4.591   2.172   2.701  0.0592  0.1445 -0.1004
31304W        W46773   1.720   8.827  13.495  0.2139  0.1093  0.0700
31305W        W46774   4.507   3.112   1.379 -0.4932  0.1305  0.1615
31306W        W46775   5.608   6.145  13.320 -0.1676 -0.1329 -0.2346
31307W        W46776   7.394   4.373  15.127  0.1228  0.0193 -0.1625
31308W        W46777  12.916   3.938  15.643 -0.1641 -0.2814  0.0637
31309W        W46778  11.182   2.848  14.496 -0.0995 -0.1004 -0.3567
31310W        W46779  14.156   7.731   2.508  0.1208  0.0805  0.3213
31311W        W46780   6.447   5.059  12.532 -0.2878 -0.2543 -0.0717
31312W        W46781  10.517   9.470   0.386  0.0270 -0.2094 -0.0521
31313W        W46782  13.835  17.818   2.125  0.1568 -0.0955 -0.3142
31314W        W46783   0.711   8.204   3.415 -0.2785 -0.1116 -0.0908
31315W        W46784  15.441  15.179  11.117  0.1910  0.0361  0.3123
31316W        W46785   6.166   4.236   1.605  0.1414 -0.2254  0.0660
31317W        W46786  12.721  13.385   5.154  0.1871 -0.1201 -0.0177
31318W        W46787  17.565  16.999  12.594  0.1255 -0.0658  0.2553
31319W        W46788   6.517   6.950  11.774 -0.0464 -0.0009 -0.0412
31320W        W46789   1.772  12.201  15.933  0.1002  0.2177 -0.1658
31321W        W46790   1.789   5.567   0.061  0.2333  0.3552  0.1697
31322W        W46791   9.078   2.847  12.579 -0.2331 -0.0992  0.2102
31323W        W46792   8.471  12.752  12.246 -0.0489 -0.1623 -0.1917
31324W        W46793   1.928  10.355  15.403  0.0800  0.0582  0.2111
31325W        W46794   2.154  13.012  12.807  0.1339 -0.2091  0.2151
31326W        W46795   6.052  10.317   5.647  0.2733  0.0016 -0.0634
31327W        W46796  14.412   3.690  15.722 -0.4739 -0.0789 -0.0384
31328W        W46797   0.595  13.009  15.251 -0.1171  0.0589 -0.0129
31329W        W46798  10.357  14.855  15.563  0.0269 -0.3347 -0.0289
31330W        W46799   6.490  10.222  11.411  0.0839  0.2482  0.0757
31331W        W46800  11.992  11.097   1.272 -0.0214 -0.2403 -0.0983
31332W        W46801  10.287   7.765  12.711  0.3639  0.2310  0.0791
31333W        W46802   2.761  11.790  14.260  0.2604 -0.2663 -0.1717
31334W        W46803   2.917   6.116   5.155 -0.1829  0.0023  0.0521
31335W        W46804  13.175  16.244   4.143  0.3533  0.0464 -0.0761
31336W        W46805  12.015   5.013  11.788 -0.0200  0.0725 -0.0896
31337W        W46806  10.484   2.449   2.741  0.0840 -0.0339  0.1399
31338W        W46807  11.688   9.858   5.007 -0.0996  0.2114 -0.3144
31339W        W46808  10.709  13.348  11.997 -0.0154 -0.2239 -0.1103
31340W        W46809  11.274   6.138   4.324  0.1438 -0.0111 -0.3050
31341W        W46810  14.266   3.108  11.766 -0.0077  0.3192  0.0678
31342W        W46811  12.707  15.720   4.852  0.0297 -0.3667  0.2532
31343W        W46812   3.246   6.697  12.847 -0.0304 -0.2583 -0.1790
31344W        W46813  17.438  18.108   4.634 -0.1698  0.1885 -0.2606
31345W        W46814  17.526   7.875  11.690  0.0702 -0.0021  0.3894
31346W        W46815  14.756  14.545   2.089 -0.0501 -0.0710  0.2479
31347W        W46816   2.320   0.948  11.484  0.3967 -0.1296  0.1580
31348W        W46817   9.358  14.528   4.565  0.0924  0.1118 -0.0045
31349W        W46818  15.127  13.079  13.345 -0.2546 -0.1383  0.2173
31350W        W46819   3.449  12.314  13.125 -0.0272 -0.2254 -0.1298
31351W        W46820  15.726  10.117   2.953  0.1032 -0.2515 -0.0941
31352W        W46821   1.092   4.986   1.843 -0.0449  0.0659  0.0634
31353W        W46822   7.190  13.530  12.565  0.2861 -0.2097  0.0954
31354W        W46823   8.288  15.684  10.635  0.1285  0.2536  0.2093
31355W        W46824   9.928  17.746   5.071  0.2412  0.1006  0.0751
31356W        W46825  18.049   2.134   2.638  0.1209 -0.3946 -0.0023
31357W        W46826   5.368  16.644   1.647 -0.1254 -0.0781 -0.4219
31358W        W46827  10.704  16.017  14.668 -0.1283  0.1586  0.1616
31359W        W46828  11.449  11.348  12.894  0.0166 -0.1070 -0.0459
31360W        W46829   6.799  14.213  13.693 -0.1117  0.0075 -0.0872
31361W        W46830   5.962   8.090   3.799 -0.1695  0.0075  0.1182
31362W        W46831   7.924   7.472  13.127  0.3239  0.0590 -0.0054
31363W        W46832  18.310   2.541   1.269 -0.0885 -0.1227  0.1064
31364W        W46833   6.620  13.979   5.582 -0.2967 -0.0067 -0.0070
31365W        W46834  17.902  11.938  15.722 -0.0194 -0.3691  0.0889
31366W        W46835  15.723   3.959   5.371 -0.1764  0.1728 -0.1204
31367W        W46836   5.964  14.451  16.011  0.1594 -0.5845  0.1059
31368W        W46837  12.404  18.239  13.131  0.1128  0.0579  0.2750
31369W        W46838   6.366  12.816  10.763 -0.3351  0.0754 -0.2113
31370W        W46839   3.543  13.597  13.443  0.5642 -0.2208 -0.0852
31371W        W46840   6.422   8.768   3.533  0.0068  0.1474 -0.4354
31372W        W46841   7.317   1.243  11.048 -0.5643 -0.2844 -0.1817
31373W        W46842   7.537   8.247  11.309  0.0572 -0.0224 -0.0317
31374W        W46843  10.201   6.207  10.764  0.2253 -0.0052 -0.3857
31375W        W46844   4.516   0.875   4.619  0.0777  0.2441 -0.1228
31376W        W46845   4.549  15.335   5.210  0.2147  0.1051  0.2489
31377W        W46846   7.905   0.603   0.633  0.0136  0.0740  0.1334
31378W        W46847   3.696   3.460   3.408  0.2360  0.0892 -0.4242
31379W        W46848  13.457   4.910   2.362  0.0726  0.1266 -0.1493
31380W        W46849   4.164  18.093  11.433  0.0032 -0.0034  0.0831
31381W        W46850   0.290  11.955  13.053 -0.2088 -0.0221 -0.0389
31382W        W46851   6.790   8.414   3.314 -0.0977  0.1540 -0.3103
31383W        W46852  17.581  13.006   5.275 -0.1522 -0.3872 -0.4925
31384W        W46853   3.949   4.650  12.424  0.1798  0.1366 -0.0733
31385W        W46854   3.647  10.170   4.543 -0.1634 -0.0256 -0.2391
31386W        W46855   5.602  10.692   2.759 -0.3592  0.0811 -0.2020
31387W        W46856  11.840  12.722   5.748 -0.3767 -0.0073 -0.0296
31388W        W46857   4.750   8.716   5.105  0.0548 -0.0597 -0.1547
31389W        W46858  10.334  17.999   2.795  0.0766  0.1573  0.4927
31390W        W46859   6.505   7.069   3.955 -0.1862  0.0679 -0.1474
31391W        W46860  13.561   3.070  13.751  0.1685 -0.1441  0.2211
31392W        W46861   5.474   1.849   0.145  0.0702  0.1604 -0.2659
31393W        W46862   6.503  14.080   3.823  0.1995 -0.2087  0.0314
31394W        W46863   2.491  12.198   5.857  0.2374  0.4764  0.1438
31395W        W46864   4.976  15.889  15.486 -0.1596 -0.1179 -0.2174
31396W        W46865  11.341  14.447   3.347 -0.2477  0.2803  0.1886
31397W        W46866  18.441   5.117   4.354  0.2206  0.0453 -0.4065
31398W        W46867  16.160   5.617   0.537 -0.0573  0.0428 -0.1420
31399W        W46868   8.344  17.118   3.218 -0.1611  0.0356  0.2065
31400W        W46869  14.102  11.368  12.671  0.0932 -0.2083 -0.0129
31401W        W46870   3.281  14.019  13.136 -0.3488 -0.1559 -0.1679
31402W        W46871   5.840  11.558  15.399  0.0321  0.1170 -0.1432
31403W        W46872   8.147   9.674   5.209  0.1849 -0.3211  0.0288
31404W        W46873  14.368  15.494   2.787 -0.1469 -0.1540  0.1201
31405W        W46874  16.983   4.327   2.923 -0.1052 -0.0787  0.2465
31406W        W46875   2.261   1.680  15.305 -0.3019 -0.5216 -0.0803
31407W        W46876  17.388  10.442   2.677  0.0354 -0.2781  0.4161
31408W        W46877   6.348  16.337   3.170 -0.0406  0.2010  0.1506
31409W        W46878  12.632   2.155  12.213 -0.0892 -0.0109 -0.0779
31410W        W46879  14.163  12.394   0.698  0.3052  0.3258 -0.1305
31411W        W46880   3.168  15.968   3.627  0.2313 -0.0910  0.1044
31412W        W46881   3.335   4.055   0.705 -0.0490  0.1043  0.3409
31413W        W46882   1.699  17.339   3.094 -0.0218  0.3928 -0.0556
31414W        W46883  14.556   6.525   5.200 -0.1576  0.1823  0.3713
31415W        W46884   7.221  13.028  13.465  0.0293 -0.2560 -0.0464
31416W        W46885  12.750   8.235  10.758  0.1308 -0.2145 -0.0306
31417W        W46886  17.081   0.013  12.345 -0.1167  0.0410  0.1192
31418W        W46887  14.659   9.745  12.580  0.0062 -0.0514 -0.1400
31419W        W46888   3.699  15.181  14.943  0.1611  0.0325 -0.0868
31420W        W46889   0.030   4.075  13.395  0.1611  0.0764 -0.0730
31421W        W46890   6.519   3.248   0.559 -0.1688  0.1397  0.0651
31422W        W46891   6.380   4.063   5.408 -0.1893  0.2804 -0.0513
31423W        W46892   9.324  10.118  15.035 -0.1967 -0.1040  0.0557
31424W        W46893  11.306   2.478   3.922  0.1558  0.0967  0.0243
31425W        W46894  12.269   4.885   2.410 -0.1662  0.2449 -0.2625
31426W        W46895  17.476  10.230   0.957  0.2160 -0.0844 -0.0703
31427W        W46896  18.337   4.622   4.179  0.3632 -0.2404  0.1427
31428W        W46897  13.741   3.490   2.610 -0.0576  0.0193  0.0206
31429W        W46898  17.441  11.861   3.035  0.4218  0.1316  0.1371
31430W        W46899  12.952  16.113   4.657  0.0247 -0.0918  0.0895
31431W        W46900   0.754  16.509   2.617 -0.0298  0.0364  0.2303
31432W        W46901   6.582   9.224   1.745  0.0078  0.1873  0.1895
31433W        W46902   6.446   6.010  11.194  0.2161 -0.2927 -0.0005
31434W        W46903  16.568  14.291  10.728  0.1321  0.0642 -0.0206
31435W        W46904   7.943   4.112  15.972 -0.1077  0.2824  0.0749
31436W        W46905   7.882   6.150  12.534  0.0693 -0.1453 -0.2113
31437W        W46906  11.251  16.113  15.950  0.1199 -0.0660  0.1686
31438W        W46907   7.935  13.502  15.997  0.1263 -0.3800  0.0194
31439W        W46908   0.467   4.435   0.418  0.2276 -0.0502  0.4641
31440W        W46909   8.815   3.935  11.050  0.4304 -0.1805  0.3465
31441W        W46910   9.331   2.478   3.280  0.0509 -0.0703 -0.2313
31442W        W46911   5.520   7.248   4.156  0.2481 -0.2892  0.1568
31443W        W46912   5.317   2.927  14.987  0.3346 -0.3924 -0.1311
31444W        W46913   6.654  15.346   5.369  0.1795 -0.0077 -0.1517
31445W        W46914  15.032  12.805  13.919 -0.0654  0.0152  0.0460
31446W        W46915   4.452   6.617  15.166  0.1520 -0.1555  0.1668
31447W        W46916   8.812   7.679  14.585  0.0152  0.0064 -0.0655
31448W        W46917   9.650   7.904   3.393  0.4493 -0.1070 -0.2426
31449W        W46918  14.282   0.152  10.630 -0.0547 -0.3286  0.3201
31450W        W46919   0.279  16.428  15.222 -0.0409  0.0377  0.4067
31451W        W46920   7.092   8.537  11.354  0.1486 -0.0024 -0.0571
31452W        W46921  11.783   9.827   1.696 -0.0156  0.1400  0.0750
31453W        W46922   8.102   1.562   2.398  0.0214  0.1876 -0.2575
31454W        W46923   1.632  17.193   1.174  0.0483  0.2711 -0.2162
31455W        W46924  12.163   9.043   0.550 -0.0200  0.0520  0.0527
31456W        W46925  10.992   7.034   0.112 -0.3537  0.1347  0.0909
31457W        W46926   6.703  11.029  14.268  0.2135 -0.1043 -0.2149
31458W        W46927   2.499   9.127   0.635 -0.1571  0.3084 -0.4894
31459W        W46928   7.188   2.314  15.282  0.1444 -0.0964  0.3226
31460W        W46929  17.220   0.053   4.923 -0.0010 -0.0029 -0.0693
31461W        W46930  14.067  14.195   2.537  0.3118  0.2486  0.0882
31462W        W46931  16.641  12.806   4.639  0.1519  0.0285 -0.0464
31463W        W46932  15.900   0.801  15.691  0.1608  0.1473  0.0486
31464W        W46933  15.298  16.233  11.168 -0.5170  0.0950 -0.2126
31465W        W46934  15.439  14.998  14.485  0.1105 -0.0275 -0.0134
31466W        W46935   6.459   0.191  11.417  0.0555 -0.3284  0.0445
31467W        W46936  17.383  17.900  15.806  0.1932 -0.4232 -0.3275
31468W        W46937   6.258   8.820   0.754  0.1345 -0.1769 -0.5239
31469W        W46938  17.886   6.127   0.259 -0.0097 -0.0812 -0.1551
31470W        W46939  12.569   2.253   3.033 -0.0693  0.1757 -0.4006
31471W        W46940   8.272   9.672   3.134 -0.2054  0.0215  0.3642
31472W        W46941  11.153   4.392   3.890 -0.1825 -0.0716  0.1115
31473W        W46942  14.642   4.856  13.668 -0.1092  0.4188  0.3406
31474W        W46943   9.844   8.627   1.403 -0.3600  0.2599 -0.0205
31475W        W46944  14.039  14.220  14.013  0.1086 -0.0702  0.3377
31476W        W46945  10.744  16.395  14.282 -0.1866 -0.1041 -0.0583
31477W        W46946   1.425   7.303   4.688 -0.1168  0.1696  0.2056
31478W        W46947  12.481  14.686  13.110 -0.3084  0.2796 -0.1918
31479W        W46948   9.570   2.158   1.484 -0.0914 -0.0685 -0.0496
31480W        W46949   0.280  14.132  13.651 -0.1152  0.0962  0.0221
31481W        W46950   7.138  10.560   2.359 -0.5305 -0.2963  0.2525
31482W        W46951   9.656  17.617  14.800 -0.3294  0.4755  0.1430
31483W        W46952   6.462   4.450  11.569  0.2514 -0.0445  0.3548
31484W        W46953   8.962  18.427  12.467 -0.0110  0.2120 -0.0693
31485W        W46954  11.971   2.682   1.072  0.0897 -0.3099  0.0658
31486W        W46955  18.188  11.910   1.826  0.0822  0.1686 -0.5077
31487W        W46956  18.367  11.697  12.827  0.0833 -0.1825  0.3628
31488W        W46957  12.009   8.773   9.827  0.1191 -0.0192 -0.1652
31489W        W46958   3.135  15.727   4.474 -0.1987 -0.1847  0.0798
31490W        W46959  16.880   5.192   3.355  0.3159 -0.3135  0.0522
31491W        W46960   0.839  10.532  15.120 -0.1731  0.0663  0.3569
31492W        W46961   7.525   6.123   1.905  0.0203  0.1967 -0.2295
31493W        W46962   8.812  15.163  13.761 -0.1864  0.1669 -0.2127
31494W        W46963  13.819   3.951   1.974 -0.0450  0.0494  0.3258
31495W        W46964   0.918  10.206  11.028  0.1368  0.0912  0.1478
31496W        W46965   4.518  11.476  14.335 -0.0848  0.1164  0.2280
31497W        W46966   0.738   2.221  13.030 -0.1929 -0.0426 -0.1320
31498W        W46967  17.229  14.452   5.582 -0.2655  0.2245 -0.1755
31499W        W46968   1.738  12.018  13.353 -0.6427  0.0001 -0.1185
31500W        W46969  11.883  13.942   3.955  0.1150  0.1920 -0.4620
31501W        W46970  16.339  14.729  13.358 -0.1445 -0.0656 -0.1953
31502W        W46971  12.683   9.287   2.860  0.1172 -0.2215 -0.0794
31503W        W46972  12.236  15.867  14.711 -0.1657 -0.0477 -0.1440
31504W        W46973   0.294   2.448   4.659 -0.1168  0.0314  0.2078
31505W        W46974  12.193   1.872   4.810  0.2376  0.2486  0.2130
31506W        W46975   0.806   4.498   3.186 -0.1311 -0.3253 -0.0558
31507W        W46976   2.178   0.399   0.441 -0.0419 -0.2239  0.1145
31508W        W46977  12.679  15.942   1.956 -0.0393 -0.1043  0.0276
31509W        W46978  10.858  11.889   2.263  0.1435 -0.0011 -0.0322
31510W        W46979   0.803  11.862  15.963 -0.2065 -0.0835  0.3468
31511W        W46980  16.028  11.214   0.195 -0.2878  0.0195  0.1057
31512W        W46981  15.318  14.834  11.531 -0.0291  0.2722 -0.2117
31513W        W46982   0.261   8.192   3.703 -0.0838  0.0707  0.2062
31514W        W46983  15.097  16.368  12.011  0.1406 -0.1297 -0.0768
31515W        W46984   6.844   7.883  12.927 -0.2371 -0.1503 -0.1147
31516W        W46985  13.765   0.792   0.441 -0.0254 -0.3634 -0.3555
31517W        W46986  14.882  14.772  15.221 -0.2805 -0.1146 -0.3544
31518W        W46987   2.035   3.880  11.708 -0.0323 -0.3815 -0.0647
31519W        W46988  11.201  17.610  12.826  0.2663  0.0279  0.1829
31520W        W46989   9.360   0.602  11.313 -0.0825  0.1951  0.2735
31521W        W46990  17.137   9.289   1.965 -0.0871  0.1027 -0.0653
31522W        W46991   9.696   6.304   5.221 -0.0131  0.0184  0.1169
31523W        W46992   7.532   6.365  15.404  0.1025  0.1429 -0.6000
31524W        W46993   1.362   9.128   3.738 -0.1845 -0.2718  0.1143
31525W        W46994  14.197   6.940   0.158 -0.0363 -0.3356 -0.0493
31526W        W46995   7.907   7.754   4.578 -0.1057  0.0569  0.1326
31527W        W46996  17.095  13.715  12.430 -0.0791  0.2714 -0.0585
31528W        W46997   5.745  12.105  13.417 -0.1195 -0.4100  0.3278
31529W        W46998  12.640  13.252   2.895 -0.3058  0.0708  0.1178
31530W        W46999  10.082   7.157  14.840  0.0701 -0.0290  0.2487
31531W        W47000   9.528   5.289  14.165 -0.1711  0.3154 -0.1581
31532W        W47001   7.746   7.842  12.258 -0.0938 -0.2857 -0.0974
31533W        W47002  16.609   6.665  10.571  0.3125  0.2281  0.0012
31534W        W47003  17.682  15.996   0.517 -0.0013 -0.5765 -0.2003
31535W        W47004  15.580  11.356  15.976 -0.0810 -0.0259  0.0840
31536W        W47005   9.016  11.601   4.869  0.0293 -0.0268 -0.0621
31537W        W47006   1.633  14.676  12.159 -0.1242 -0.2190 -0.1702
31538W        W47007   1.553  12.504  13.046 -0.0359  0.1997 -0.0842
31539W        W47008  18.304   5.150  13.358 -0.0553  0.1900 -0.0827
31540W        W47009   9.424  18.028   4.285 -0.0377 -0.2407 -0.0243
31541W        W47010   1.554   7.321   2.123 -0.0261 -0.2364 -0.2417
31542W        W47011  14.547  13.876   4.480 -0.0945  0.0550 -0.4112
31543W        W47012  14.747   4.443   0.378 -0.0047  0.1198 -0.0202
31544W        W47013   8.525   2.349   2.396  0.1901 -0.1146  0.0369
31545W        W47014  18.309   3.151  12.299 -0.2178 -0.0152  0.0173
31546W        W47015  11.485  12.330  14.306 -0.1305  0.1047 -0.1805
31547W        W47016   6.326   1.726   2.843 -0.1878 -0.0347  0.0889
31548W        W47017   3.505  18.326   2.809  0.1836  0.0959 -0.1390
31549W        W47018   4.861   9.592  13.813 -0.0594  0.0830 -0.0573
31550W        W47019  15.666   3.556  12.596  0.0585 -0.1471  0.1263
31551W        W47020  12.336  11.607  12.628 -0.2415 -0.1395 -0.1447
31552W        W47021  12.043  15.914  15.629  0.0257 -0.1742  0.3386
31553W        W47022   0.086  10.696  11.062  0.2448 -0.2077  0.0697
31554W        W47023   3.954  12.377  14.680  0.2852 -0.1497  0.2795
31555W        W47024   4.047  13.322  13.310  0.3504  0.2286 -0.0607
31556W        W47025   4.577   2.130   1.704  0.1469 -0.1024  0.3952
31557W        W47026  13.740   0.046  14.443  0.0137 -0.1418 -0.0846
31558W        W47027  13.927   2.634  11.812 -0.0443 -0.3737 -0.0443
31559W        W47028  14.217  13.688   0.663  0.2177  0.3101 -0.0219
31560W        W47029  16.009   1.033   1.775  0.1637  0.1823  0.1806
31561W        W47030  17.903  10.378  11.958  0.0199  0.2029 -0.2200
31562W        W47031  12.018   5.226  13.503  0.0137  0.1298  0.1400
31563W        W47032  11.000   2.061   4.231  0.0961  0.0559 -0.1231
31564W        W47033   1.497  16.301  14.727  0.0881  0.3065  0.2477
31565W        W47034  16.960   8.058   3.217  0.1192 -0.0806 -0.0680
31566W        W47035   3.415   7.229   5.677 -0.1706  0.1513  0.1780
31567W        W47036  10.992  14.811  11.402  0.3750  0.2072  0.1471
31568W        W47037   8.278  15.242   2.663 -0.0022  0.2318 -0.0325
31569W        W47038   5.027   2.217  15.371  0.0071 -0.1219 -0.1887
31570W        W47039   9.574   0.877   1.058 -0.0984  0.2168  0.0607
31571W        W47040   8.235   9.509  15.290  0.2014  0.2983 -0.3143
31572W        W47041  16.379   9.570   0.928 -0.1241  0.0394 -0.1872
31573W        W47042  17.313  18.386   1.974 -0.2961  0.0249  0.0336
31574W        W47043   5.420   6.606  11.602 -0.2723  0.0499 -0.1829
31575W        W47044  17.103   1.781  11.855 -0.0052 -0.0466  0.2448
31576W        W47045  11.981  10.055   2.807  0.4234  0.0952 -0.2927
31577W        W47046   4.595   6.930   3.219 -0.1646  0.1567  0.2138
31578W        W47047  14.169  13.193   4.372 -0.4138  0.1147 -0.1743
31579W        W47048  15.886   8.883  13.842  0.0189  0.3890 -0.1208
31580W        W47049  17.137   1.001  13.138 -0.4294  0.0335  0.0171
31581W        W47050   2.259  16.170   2.442  0.1983  0.2708 -0.3789
31582W        W47051   6.099  17.899  13.765  0.3451  0.0665 -0.0493
31583W        W47052   5.407  12.903  14.245 -0.0161 -0.1835 -0.0255
31584W        W47053   3.514   6.191   2.203 -0.0655  0.0538 -0.0521
31585W        W47054   6.813   6.764   2.957 -0.0761  0.0881  0.3047
31586W        W47055   9.667  12.347  14.149  0.0271 -0.1150  0.0830
31587W        W47056  16.730   3.611   1.671 -0.0761 -0.1098  0.0774
31588W        W47057   5.198   7.545   2.751  0.0592  0.0044 -0.2470
31589W        W47058  15.748  15.098   4.985 -0.1742 -0.0767  0.3080
31590W        W47059  14.354  10.611  15.024 -0.2387 -0.0514  0.2904
31591W        W47060   5.636   6.541  13.647 -0.2243 -0.2344  0.1655
31592W        W47061   7.126  12.419   0.116  0.2388  0.0668 -0.0875
31593W        W47062   4.386  15.118  13.549  0.1292 -0.0700  0.0518
31594W        W47063  12.734  16.104   3.018 -0.0157  0.0354 -0.0717
31595W        W47064   3.144   2.310  11.761  0.2536  0.1241  0.0673
31596W        W47065   5.951  13.977   3.927  0.1111 -0.1026 -0.0823
31597W        W47066  12.712   9.852  11.159 -0.0203 -0.1131  0.1695
31598W        W47067  11.488  12.069   4.597  0.1110  0.0645  0.0753
31599W        W47068  16.314   6.699  14.874 -0.3305  0.1148  0.0610
31600W        W47069  13.084  14.591  13.291 -0.1354  0.1294  0.0459
31601W        W47070  12.876   0.298  14.303 -0.0898 -0.1387 -0.0240
31602W        W47071   9.419  12.429   4.235 -0.0992 -0.0399  0.0151
31603W        W47072   7.492   1.983  10.069 -0.3691 -0.0587  0.1848
31604W        W47073   1.044   0.471   4.607 -0.0241  0.0087  0.0503
31605W        W47074  16.267   8.360   4.623  0.3236 -0.1539  0.2117
31606W        W47075   2.921  13.257   0.216  0.0201 -0.0930  0.2153
31607W        W47076   1.090   9.566   1.996  0.1777  0.1875 -0.2064
31608W        W47077   0.027  13.142  10.834  0.0892 -0.1496  0.3025
31609W        W47078   6.216   6.497  12.025 -0.1339 -0.1901  0.1160
31610W        W47079   7.353   3.276  14.139 -0.2786 -0.2059  0.0137
31611W        W47080  17.243  11.631   3.442 -0.2145 -0.3190 -0.2235
31612W        W47081  15.611   5.933  10.673  0.0618 -0.1298  0.1049
31613W        W47082  12.510   6.751   4.246 -0.0583  0.0220  0.1072
31614W        W47083   8.951  11.556  11.904  0.2616 -0.2751 -0.2562
31615W        W47084   3.487   4.553   2.439  0.1720  0.2015  0.0223
31616W        W47085  16.173  17.930  14.890  0.0888 -0.0839 -0.0087
31617W        W47086  15.696  17.476  11.939 -0.2724 -0.0954  0.2464
31618W        W47087   6.772  15.588   0.302 -0.4307  0.1513 -0.2653
31619W        W47088   9.025  14.728  12.279 -0.2027 -0.2088  0.0547
31620W        W47089  15.514   0.296  12.792  0.1603  0.4272  0.2478
31621W        W47090   2.396   5.549  13.195 -0.0072  0.0046  0.1566
31622W        W47091  15.949  12.919  14.269 -0.0486 -0.2564 -0.1381
31623W        W47092  10.542  11.796  10.277  0.1221  0.0759 -0.2343
31624W        W47093   5.589  13.126   5.368  0.1605  0.3197  0.2590
31625W        W47094   5.369   2.507   0.748 -0.0210  0.0259  0.1389
31626W        W47095   4.834   6.579   5.430  0.0748 -0.1836 -0.2257
31627W        W47096  18.211   9.534   0.295 -0.0915  0.4357 -0.0206
31628W        W47097  12.865  15.325  15.419 -0.1983 -0.0614 -0.0572
31629W        W47098  16.618  11.588  13.788 -0.0818 -0.2960  0.4501
31630W        W47099  13.353  11.676  12.572 -0.1527 -0.0084 -0.0485
31631W        W47100   8.181  11.863   5.553  0.1947 -0.4190 -0.1176
31632W        W47101  13.353   6.776  11.075 -0.1657 -0.0754  0.0825
31633W        W47102   6.494   1.256   3.882 -0.1186 -0.0693 -0.2092
31634W        W47103   3.977  15.571  13.114  0.0825  0.1025  0.0010
31635W        W47104  13.492   7.622   4.201 -0.0524 -0.0960  0.1425
31636W        W47105  10.510   7.448   4.373 -0.1930  0.3205 -0.3448
31637W        W47106  18.306  11.299   2.515 -0.1221  0.2224 -0.2169
31638W        W47107   8.873  12.015  11.579  0.0403 -0.2187  0.3353
31639W        W47108  11.186  13.679   3.874 -0.0650 -0.2027  0.0571
31640W        W47109   4.404   5.934   0.401  0.2371  0.0324 -0.0117
31641W        W47110  10.819  16.024  12.407 -0.2192  0.1446  0.0229
31642W        W47111  10.484   3.909   1.097  0.2044 -0.2996 -0.0198
31643W        W47112  14.718  16.384   2.611  0.2146 -0.0410 -0.0898
31644W        W47113  17.852   9.808   0.051  0.0458 -0.1744  0.1680
31645W        W47114  11.923  15.431   3.523  0.2287 -0.0182  0.2501
31646W        W47115  16.797   4.107  12.745 -0.1443  0.2525 -0.0553
31647W        W47116   5.740   5.186  13.295  0.2632 -0.1102 -0.0941
31648W        W47117  17.591   1.603   4.875 -0.2819  0.1254 -0.2297
31649W        W47118   4.765  18.369   5.608  0.0601 -0.1305  0.0827
31650W        W47119   4.196  11.782   6.049 -0.1880 -0.3468  0.2807
31651W        W47120   1.874   8.643   4.697 -0.1393 -0.0432 -0.1899
31652W        W47121   2.209   1.395   5.521 -0.0604 -0.1797  0.3726
31653W        W47122  15.561  15.974  14.429 -0.0244 -0.0659  0.1738
31654W        W47123  13.940  15.723  15.800  0.0378 -0.2460  0.1827
31655W        W47124   2.956   9.969  14.026 -0.2053  0.3077 -0.0745
31656W        W47125  15.743   6.985  12.805 -0.4091 -0.0793  0.1432
31657W        W47126   9.573   6.988  11.854 -0.0488  0.1260 -0.0215
31658W        W47127  16.275  11.167  13.767 -0.0916  0.1735 -0.1422
31659W        W47128   9.684   1.225   3.921  0.0061  0.0707  0.1390
31660W        W47129  15.608  15.030   1.047 -0.1959 -0.2504  0.1270
31661W        W47130  18.014  17.633  14.626 -0.2803 -0.1693 -0.0863
31662W        W47131  17.874   8.021   2.207  0.0441  0.0107  0.1624
31663W        W47132  12.138   2.871  11.409  0.2854 -0.0711 -0.0354
31664W        W47133   5.158  11.647  10.996  0.1174 -0.1016 -0.0611
31665W        W47134  10.009  13.425  15.567 -0.3164 -0.0475  0.0425
31666W        W47135   5.964  11.402  11.859 -0.0628 -0.1505 -0.0087
31667W        W47136  10.487   5.409  15.420 -0.0732  0.0443  0.1270
31668W        W47137   6.428   3.922   2.371 -0.0569 -0.1258  0.3345
31669W        W47138  11.432   3.778   3.760  0.0620 -0.0656 -0.2436
31670W        W47139   6.262   3.738  13.146 -0.0140 -0.1513 -0.0095
31671W        W47140  11.955  16.268   3.647  0.0544  0.2199  0.2183
31672W        W47141   8.513   5.577   2.322 -0.2207 -0.1366 -0.2050
31673W        W47142  17.990  15.743   0.844  0.2443  0.1981 -0.3072
31674W        W47143   6.597   1.438  13.302 -0.0871 -0.0189  0.1208
31675W        W47144  13.821  10.981   6.127 -0.2851 -0.4002 -0.0762
31676W        W47145   1.316   6.144   3.572 -0.2286  0.1551 -0.1890
31677W        W47146   8.126   2.885   0.546  0.2426  0.3324 -0.2452
31678W        W47147  14.184  11.868   1.746 -0.1819  0.0221 -0.0514
31679W        W47148  15.923   4.456   5.425  0.6016 -0.0562  0.1744
31680W        W47149   6.138  12.878  15.506  0.1232 -0.0492  0.1139
31681W        W47150   8.012   4.194  13.436 -0.0179  0.4267  0.0286
31682W        W47151  13.028   4.579  15.085 -0.0731  0.0701 -0.3799
31683W        W47152  12.641  11.641   5.212 -0.0020  0.2126 -0.0202
31684W        W47153   5.710  15.028   1.377 -0.1187 -0.1155 -0.0815
31685W        W47154  11.394   5.563   4.221 -0.0173 -0.0787  0.0387
31686W        W47155  18.264   8.734   1.354 -0.3859 -0.4164 -0.0038
31687W        W47156   6.520   1.644   4.922  0.3113 -0.0584  0.0251
31688W        W47157  11.266   7.535   0.234  0.0770 -0.0831  0.0033
31689W        W47158   6.626  18.028   4.258  0.1745 -0.0220 -0.1840
31690W        W47159  16.152   9.386  13.790  0.1327  0.1633 -0.3973
31691W        W47160  12.198   5.275   3.706 -0.3778  0.0271 -0.0879
31692W        W47161   4.411  16.782   3.672  0.2011  0.2001 -0.1674
31693W        W47162   5.196  11.659   3.597 -0.3712  0.0816  0.3316
31694W        W47163  18.326  16.859  11.363 -0.3447  0.2478 -0.2683
31695W        W47164   5.193  11.663   0.421 -0.3979  0.2597  0.0139
31696W        W47165  10.609   6.990   3.643 -0.1293  0.0175 -0.2252
31697W        W47166  12.455  14.306   1.014 -0.0363  0.2362 -0.2153
31698W        W47167   3.306   6.390  14.722 -0.0247  0.0692  0.0637
31699W        W47168   8.758   1.148  15.065  0.0450 -0.1246 -0.0927
31700W        W47169   3.524  14.597   2.783 -0.2047  0.1594 -0.1733
31701W        W47170   8.297   7.768  15.425  0.2112  0.1212  0.1298
31702W        W47171   3.824  11.928   1.887 -0.0281 -0.0530 -0.0597
31703W        W47172  12.900   0.670   0.801 -0.0898  0.1818 -0.1273
31704W        W47173  16.679   3.117  12.797 -0.1951  0.4427 -0.1389
31705W        W47174  15.180   3.142   3.180 -0.1338  0.0067 -0.0164
31706W        W47175  11.182  15.408  15.233 -0.3848 -0.0980  0.2004
31707W        W47176   1.636  12.062   1.924 -0.0993  0.0585 -0.4006
31708W        W47177   5.296  12.172   4.440 -0.0409 -0.1826 -0.1284
31709W        W47178  13.868   0.208   5.850  0.1297 -0.1393 -0.0374
31710W        W47179  18.443  10.198   5.575  0.0282 -0.0534  0.0211
31711W        W47180  10.555  16.204  15.111  0.2289  0.0841  0.1033
31712W        W47181   3.727   2.826   0.909  0.0140  0.1752 -0.1750
31713W        W47182   0.421   3.773  14.228 -0.0509  0.0332 -0.3777
31714W        W47183   1.805  13.778  12.060  0.1273  0.3333  0.1094
31715W        W47184   9.859   5.882   3.794  0.1652 -0.1257  0.1327
31716W        W47185  16.139  12.629  15.434  0.0548  0.1894 -0.0219
31717W        W47186   9.692  12.613   1.642 -0.0745 -0.0542 -0.1705
31718W        W47187  10.059  10.267  11.777  0.0989  0.0253 -0.3975
31719W        W47188   5.441  17.112   4.400  0.1111 -0.4111 -0.0693
31720W        W47189   3.515  10.346   2.675 -0.0179  0.1355 -0.4217
31721W        W47190  12.599  12.504  13.933 -0.0219 -0.3504 -0.0370
31722W        W47191   0.437  14.506   1.255 -0.0521  0.0205 -0.1386
31723W        W47192   2.648   8.495  11.716  0.0013  0.0858  0.2226
31724W        W47193   9.181   9.734   4.879  0.1765  0.1581  0.3308
31725W        W47194   8.532  13.512  15.581 -0.0646 -0.0789  0.1769
31726W        W47195   9.433  10.682  13.109 -0.1782  0.0437 -0.1972
31727W        W47196   5.439  16.774  11.697 -0.3416 -0.2016 -0.3005
31728W        W47197  17.870   6.120   3.373  0.3304  0.1156  0.0035
31729W        W47198  14.960   2.796   1.765  0.1835  0.0447 -0.1033
31730W        W47199   7.296   1.353   3.855  0.2168  0.3400 -0.2442
31731W        W47200   2.840   7.955   1.338  0.1452 -0.0893  0.2302
31732W        W47201  12.659  12.723  10.771 -0.2022  0.2070 -0.2278
31733W        W47202  16.945   2.292   0.043  0.2550 -0.2278 -0.0890
31734W        W47203  11.931  13.912  14.510  0.2165 -0.0990 -0.4671
31735W        W47204  16.532  12.137   3.145  0.0035 -0.1633  0.2668
31736W        W47205  17.099  11.181  14.982  0.1965 -0.2776  0.1049
31737W        W47206  15.830   2.815   3.976 -0.0812 -0.0913 -0.0776
31738W        W47207  12.205  15.514   3.081 -0.0663 -0.1107  0.3034
31739W        W47208  15.398   1.956   1.729 -0.1787 -0.1791 -0.0089
31740W        W47209  17.722   4.330  12.145 -0.1239  0.2149 -0.0726
31741W        W47210  17.165  16.870   1.100 -0.1604 -0.2308 -0.3011
31742W        W47211   7.992   9.792  11.581 -0.1377  0.0519  0.2181
31743W        W47212  11.688   3.163   0.699  0.0898  0.1636  0.0411
31744W        W47213  12.617   7.449   1.817  0.4717  0.0622 -0.1556
31745W        W47214  13.838   6.761   0.536 -0.2342 -0.3829  0.2327
31746W        W47215  10.519  10.512   2.082 -0.0030 -0.0936 -0.2919
31747W        W47216  17.307  16.988   2.324  0.2818  0.0242 -0.3400
31748W        W47217  12.961  12.853   4.024 -0.1295  0.2699 -0.1121
31749W        W47218   7.514   5.784   2.361  0.0721  0.0323 -0.1771
31750W        W47219   5.519  10.597   5.674 -0.1336  0.1216 -0.3871
31751W        W47220   7.530  13.553  10.957 -0.0399 -0.1362  0.2194
31752W        W47221   1.879  16.824   1.363 -0.0524  0.1004 -0.2336
31753W        W47222  10.693   9.741   4.869 -0.2579 -0.0848  0.3307
31754W        W47223   2.904  18.362   0.696  0.1407 -0.0296 -0.7295
31755W        W47224   1.485  16.101  11.809 -0.0273 -0.0077 -0.1232
31756W        W47225   8.062  14.417   1.020 -0.0389 -0.1083 -0.0865
31757W        W47226   2.602   6.429   4.908  0.0382 -0.0776 -0.0146
31758W        W47227   1.672   9.452   1.155  0.0584 -0.0461 -0.0188
31759W        W47228  15.604  10.418  15.499  0.0675  0.0548 -0.0117
31760W        W47229   1.432  17.001  11.938 -0.0924  0.0517 -0.1176
31761W        W47230  12.048   6.652  12.118  0.0056 -0.0093 -0.2207
31762W        W47231  13.355   4.696   0.982 -0.1653  0.1169 -0.0844
31763W        W47232  15.983   2.596   2.053  0.1412 -0.1497  0.6115
31764W        W47233  14.655   9.706   4.065  0.1401  0.2131 -0.0272
31765W        W47234  16.709   7.498  12.329 -0.2018  0.0135  0.2484
31766W        W47235   7.986  14.973   3.290  0.3884  0.1081  0.0546
31767W        W47236   6.120  14.089  14.524  0.1840  0.0733  0.2283
31768W        W47237   8.618  12.684   4.467  0.4054  0.0925 -0.0675
31769W        W47238   6.999  11.039  10.509 -0.0511  0.3328 -0.0988
31770W        W47239   1.382   2.731  14.108 -0.1461 -0.0235  0.0607
31771W        W47240  15.725  12.381   1.324  0.1211  0.0416  0.1420
31772W        W47241  13.795  18.037  13.028 -0.0317 -0.0857 -0.1753
31773W        W47242  13.327   8.807  11.835  0.1203 -0.2709  0.0937
31774W        W47243   9.611   9.660   1.739  0.0724  0.0070 -0.0856
31775W        W47244  17.714  14.107  14.889 -0.0242  0.0828 -0.0665
31776W        W47245   6.827  10.329   3.463 -0.3304 -0.1593  0.2041
31777W        W47246   9.727  16.513  12.025  0.0007  0.0028 -0.0863
31778W        W47247  14.167  11.383   3.436  0.0759  0.1080 -0.2593
31779W        W47248  11.630  15.847   2.091 -0.1256  0.0303 -0.0817
31780W        W47249  11.147  17.341  13.734  0.0261 -0.0586 -0.2676
31781W        W47250   6.917  14.783   0.762 -0.2640 -0.1207  0.1370
31782W        W47251  18.288  15.687   2.457 -0.0026  0.2987 -0.4693
31783W        W47252   2.841   1.670   4.644 -0.0622 -0.1981  0.2510
31784W        W47253  15.111   2.176  13.176  0.0933  0.4029 -0.1282
31785W        W47254   3.928   1.054  13.095  0.0784  0.0171 -0.2141
31786W        W47255   7.130  14.820   3.030 -0.2183 -0.0042  0.0688
31787W        W47256   3.766  15.117  13.415  0.1415  0.0659  0.3485
31788W        W47257   4.534   5.388   2.804 -0.0680  0.2857 -0.1834
31789W        W47258   4.259   6.802  13.684  0.2793 -0.1200  0.0858
31790W        W47259  18.448   6.847   1.780 -0.1100  0.1102  0.2779
31791W        W47260  17.156  11.553  11.417  0.2468  0.0396 -0.0978
31792W        W47261  11.815  17.146   2.406  0.1066 -0.1660 -0.1293
31793W        W47262   6.178   6.296   6.181 -0.3020  0.0343  0.1149
31794W        W47263   9.059   9.569   2.399  0.0553  0.0485  0.0105
31795W        W47264   8.791   6.989  15.752  0.2732 -0.2645  0.0684
31796W        W47265  17.600  10.584   5.529 -0.0563 -0.2426 -0.1474
31797W        W47266  18.017  14.168  14.402  0.1377 -0.0681 -0.1166
31798W        W47267   5.994  12.008   0.274 -0.0112 -0.1971 -0.0731
31799W        W47268  17.427   1.613  15.008  0.0738  0.0383  0.1696
31800W        W47269  14.441   5.550  11.222  0.2569 -0.1617  0.1300
31801W        W47270  15.913   8.354   5.191  0.1074 -0.2030 -0.1979
31802W        W47271  15.456   1.292   0.943 -0.2589  0.4134 -0.0639
31803W        W47272   7.690  15.489  14.697  0.1389 -0.1754 -0.2671
31804W        W47273  16.489   6.573   1.497 -0.1924  0.3404 -0.2219
31805W        W47274   2.090   8.174   4.677  0.1784 -0.1381  0.0496
31806W        W47275   5.627  18.125  13.780  0.2510  0.0444 -0.2374
31807W        W47276  10.722  13.277  12.474 -0.0736 -0.0480 -0.0767
31808W        W47277  18.459   0.635  15.917  0.1595  0.1863  0.0684
31809W        W47278  17.843  13.114  14.699 -0.2223  0.4726  0.4079
31810W        W47279  14.933  14.429  12.187  0.0399  0.0943  0.2654
31811W        W47280  17.561   2.682  14.190 -0.0023 -0.0317 -0.1365
31812W        W47281   8.802   5.287   2.656 -0.4019 -0.3112  0.1568
31813W        W47282  15.820   5.732   3.497  0.0410  0.0646 -0.2180
31814W        W47283  17.426  10.273  14.685  0.1311 -0.0118 -0.2599
31815W        W47284   4.874  16.894  12.578 -0.0984  0.1288  0.1379
31816W        W47285  11.112   1.700  15.307 -0.0192 -0.0509  0.0491
31817W        W47286   0.751  15.115   5.626  0.1495  0.1433  0.3637
31818W        W47287  12.761  13.461  10.817  0.0654 -0.0053 -0.2555
31819W        W47288   0.484  17.254   4.457  0.2458  0.2090  0.2304
31820W        W47289   7.512   4.358  12.748  0.0442  0.0861 -0.1309
31821W        W47290  14.375   5.903   3.613  0.3194  0.1250  0.0734
31822W        W47291  12.628  10.660  15.258 -0.0928  0.2351  0.1309
31823W        W47292   4.970  14.019  13.849  0.0049 -0.0577 -0.0412
31824W        W47293   7.067   8.098   3.582 -0.0779 -0.0783  0.0917
31825W        W47294   3.120  12.796  12.813  0.2922  0.0086  0.1856
31826W        W47295  15.637  12.779   3.615  0.0943  0.1582  0.0266
31827W        W47296  13.823   3.753  13.158  0.2424 -0.1129  0.0129
31828W        W47297   6.105  16.592  11.084 -0.0436  0.1489  0.2481
31829W        W47298  12.620   8.332   0.651 -0.1477 -0.0841  0.0933
31830W        W47299   6.779  17.390   0.139  0.0468  0.0718 -0.1295
31831W        W47300   9.345  10.457   1.260  0.1736  0.0139  0.0415
31832W        W47301   5.300  16.413   4.827  0.0084 -0.0800  0.0468
31833W        W47302   0.223   6.865   4.226 -0.2551  0.0275  0.0033
31834W        W47303   5.030   2.785   0.127  0.2334 -0.0926 -0.2097
31835W        W47304   3.803  11.514   5.864  0.1707 -0.0183 -0.0255
31836W        W47305  13.407   8.382  14.487  0.1918  0.1854 -0.1482
31837W        W47306  15.680   6.105   4.201 -0.0269 -0.2106  0.5388
31838W        W47307  15.405   5.598   5.288  0.0759 -0.1859  0.0941
31839W        W47308  13.701   4.805  14.397  0.0973 -0.2662 -0.1869
31840W        W47309   7.315   6.903  14.727  0.2755 -0.0112 -0.0474
31841W        W47310  13.684  14.858  15.961  0.1062 -0.1768  0.0056
31842W        W47311   6.066   2.392   9.885  0.1639 -0.2064  0.0500
31843W        W47312   5.265   9.532   4.270  0.3027  0.3549  0.0917
31844W        W47313   2.786   1.862   5.923  0.1618 -0.3067  0.0427
31845W        W47314   9.647   0.955  15.148  0.3084 -0.1203  0.0181
31846W        W47315  17.296   3.350   3.738 -0.0594  0.1353  0.0473
31847W        W47316   4.359  14.257   0.915 -0.4159 -0.2818 -0.0226
31848W        W47317  17.184   1.828   1.290 -0.1800  0.4792 -0.2638
31849W        W47318   2.459   6.965  15.842  0.0551  0.1684 -0.0710
31850W        W47319  13.982  15.488  13.467  0.3312 -0.2126  0.1173
31851W        W47320  10.016   4.124   0.507 -0.0898  0.0356  0.0572
31852W        W47321  18.354  11.417  14.389  0.1461 -0.1742  0.1169
31853W        W47322   0.314   8.729   0.928  0.2189  0.3165  0.0415
31854W        W47323   9.124   6.826  14.019 -0.1206 -0.0013  0.1310
31855W        W47324   9.293  15.216   0.338  0.0102 -0.0392 -0.2127
31856W        W47325  13.088  10.046  10.783  0.2376  0.1567  0.1085
31857W        W47326   4.723   3.971   5.692 -0.0331 -0.2923 -0.0524
31858W        W47327   8.631  10.874  11.058 -0.1525  0.1614  0.0976
31859W        W47328   2.663  11.233   0.308  0.1309  0.0004 -0.1163
31860W        W47329  10.742  15.516  10.781 -0.0554 -0.1741  0.0771
31861W        W47330  10.156   4.000  12.531  0.3788  0.1671  0.1320
31862W        W47331  10.483   4.115  14.826 -0.3447  0.2929 -0.6229
31863W        W47332  15.868  13.093   2.198 -0.2418  0.3159 -0.1111
31864W        W47333  12.552  16.469   4.765  0.0327 -0.0772  0.0650
31865W        W47334  14.504  16.521  12.822 -0.1391 -0.1771 -0.1187
31866W        W47335   1.007   2.544  11.703 -0.2297 -0.2857 -0.1155
31867W        W47336  10.253  17.130   4.017  0.0017 -0.1765 -0.0396
31868W        W47337  11.658   0.731  14.153  0.3086  0.2348  0.1535
31869W        W47338   4.204   9.139   0.297 -0.3178 -0.0205 -0.2494
31870W        W47339   7.897  16.167   4.951  0.0319 -0.0001 -0.5529
31871W        W47340   2.218   2.563   5.583  0.1490 -0.3031 -0.0758
31872W        W47341  13.287  11.622  13.058 -0.1239  0.1405 -0.1324
31873W        W47342   2.130  11.242  14.322 -0.1894  0.0803 -0.0619
31874W        W47343  12.078  18.174  14.339  0.3544  0.3560 -0.0824
31875W        W47344   4.094   1.804   5.055 -0.6569  0.1449  0.1776
31876W        W47345  10.488  14.600  12.747  0.0734  0.0277  0.0644
31877W        W47346   0.293   9.234   5.317 -0.0648 -0.1638 -0.0151
31878W        W47347  14.923  12.230   4.158 -0.2602 -0.4286  0.1233
31879W        W47348  12.769   0.165   3.760  0.3429  0.1070 -0.1770
31880W        W47349  16.395   7.139   1.387  0.1297  0.1162  0.4123
31881W        W47350   3.463  13.717   4.081  0.2597 -0.1202  0.3687
31882W        W47351  10.950   7.189   4.829 -0.1126 -0.2886  0.0846
31883W        W47352   1.012   9.134  12.212 -0.1013 -0.3335 -0.0585
31884W        W47353  12.042   3.220  12.237 -0.0221  0.1416  0.0356
31885W        W47354  13.467  11.314   5.434 -0.1442  0.1090 -0.0688
31886W        W47355   6.124   2.025   1.485  0.2220  0.0430 -0.2792
31887W        W47356   3.515   2.112   1.343  0.3334  0.1114 -0.1183
31888W        W47357  16.611  14.925  15.255 -0.0003  0.0308  0.0912
31889W        W47358  16.638   6.226  13.965 -0.3159 -0.2336 -0.1254
31890W        W47359   5.941  15.674  15.216  0.1818  0.2213 -0.1099
31891W        W47360  11.707  12.156  10.573  0.4307  0.1173  0.1286
31892W        W47361  11.999   6.354  12.558  0.0609  0.0182  0.2113
31893W        W47362  17.710  13.600   3.781 -0.2401 -0.0225 -0.0366
31894W        W47363  17.720   3.637   3.659 -0.0387 -0.1988 -0.2348
31895W        W47364   2.973  16.176   3.140 -0.3068  0.3519 -0.1471
31896W        W47365   6.838   0.297   2.464 -0.0059 -0.3113  0.1158
31897W        W47366   3.037  10.539   2.657  0.1055  0.0585 -0.3923
31898W        W47367  11.946   8.868  12.919  0.0593  0.4696 -0.1529
31899W        W47368   5.744   1.751   0.532 -0.3055  0.0351 -0.0476
31900W        W47369   0.757  11.107  13.153 -0.0288  0.0982 -0.1180
31901W        W47370   6.923  10.310  15.327  0.0309  0.1817  0.0309
31902W        W47371  10.197  12.653  15.330  0.1095 -0.1227 -0.0786
31903W        W47372   5.862  13.525   5.021 -0.0576 -0.3081 -0.1728
31904W        W47373  10.275  13.938   1.234  0.3150 -0.1038 -0.0779
31905W        W47374  12.308  12.026  11.458  0.1368 -0.2854  0.0527
31906W        W47375  17.960   3.625  12.052  0.0601 -0.0972  0.1382
31907W        W47376   9.097  16.781  11.619 -0.1032  0.1771 -0.2704
31908W        W47377   5.913   4.186  14.590  0.0262 -0.1872  0.1848
31909W        W47378   6.198   9.501   4.138 -0.0653  0.2473 -0.2299
31910W        W47379   8.133  14.231   0.523  0.0975  0.0108  0.1231
31911W        W47380   3.666   1.905  14.224 -0.1833 -0.1210  0.0058
31912W        W47381   5.890  10.936  11.755 -0.0095  0.0545 -0.2114
31913W        W47382   8.463   8.285  12.404 -0.0069  0.1929  0.2079
31914W        W47383  10.951   1.231   3.702  0.1082  0.0814  0.0012
31915W        W47384   7.202  10.667   0.756 -0.0366  0.1829  0.0094
31916W        W47385  16.291   6.386   5.296 -0.0140  0.0922 -0.1291
31917W        W47386   2.896  16.244  14.587 -0.2011 -0.0428 -0.4767
31918W        W47387  15.203  10.510   4.231 -0.2070 -0.3497  0.3633
31919W        W47388   9.108   3.883   4.114 -0.0992  0.0949  0.1381
31920W        W47389  18.010  16.806   4.572  0.1464  0.2952  0.0787
31921W        W47390   2.428   3.761   5.357 -0.1486 -0.0319  0.0171
31922W        W47391  10.375   2.217  13.003  0.1767 -0.0413 -0.0058
31923W        W47392   6.737   7.617   4.059  0.0796  0.0048  0.0470
31924W        W47393   5.520   5.189  15.817  0.1375 -0.0976  0.0822
31925W        W47394   7.566   2.900   0.516  0.0997 -0.1923 -0.0563
31926W        W47395  15.054  15.601   0.606  0.1523 -0.0259 -0.4529
31927W        W47396   3.941   3.243   4.955  0.2894  0.0124 -0.4591
31928W        W47397  16.736   6.835   4.462  0.0518  0.0611 -0.0253
31929W        W47398  16.103   4.003  14.433  0.1121 -0.0481  0.1460
31930W        W47399  10.796   0.848   1.923 -0.0748 -0.2875 -0.1889
31931W        W47400  17.070  14.874  10.940  0.0572 -0.0819  0.1046
31932W        W47401   7.256   0.597   5.271  0.0275 -0.1882 -0.1298
31933W        W47402   1.069  15.103   4.543  0.1918  0.0381  0.0260
31934W        W47403   5.380  12.441  13.532 -0.6658 -0.1628 -0.3594
31935W        W47404  13.108  14.644  12.670 -0.1642  0.0541  0.2863
31936W        W47405   8.688  13.330  15.116 -0.5802  0.2780 -0.0276
31937W        W47406   9.324  11.311   5.175  0.0126  0.5326  0.1935
31938W        W47407   5.723   9.250  13.183 -0.1247 -0.0852 -0.2935
31939W        W47408  11.158  15.776   3.628 -0.4154  0.2804 -0.0294
31940W        W47409   9.785  13.932  12.163  0.2567  0.2811 -0.0252
31941W        W47410   8.988   8.419  11.114 -0.0545 -0.1854 -0.1754
31942W        W47411   8.187  13.355  11.658  0.0435  0.1255  0.0944
31943W        W47412  14.883   8.945   3.233 -0.2118  0.0590 -0.0131
31944W        W47413   5.731  18.089   3.353 -0.0868 -0.5967  0.0339
31945W        W47414   5.560  11.898  14.396 -0.2823 -0.1221 -0.0392
31946W        W47415   1.384  17.537   2.283  0.1395 -0.0659  0.0255
31947W        W47416  18.016  17.699  11.702  0.0240 -0.2216  0.1129
31948W        W47417  12.509  14.895  11.840 -0.0022 -0.0691  0.0283
31949W        W47418  12.053   2.353   0.051 -0.2324  0.3084  0.1320
31950W        W47419  15.650   3.994   3.283  0.1955  0.1019 -0.1493
31951W        W47420   1.462   5.726   3.888  0.0690  0.1271  0.1851
31952W        W47421   4.759   4.303  14.351 -0.0766  0.1281 -0.4251
31953W        W47422  10.757  10.799   1.586  0.3698  0.1175 -0.1897
31954W        W47423   6.258   8.072  10.938  0.0899 -0.1896 -0.0876
31955W        W47424  12.366  10.409   4.317  0.1550 -0.2411  0.2424
31956W        W47425  11.634   3.392  15.377  0.3175 -0.0492 -0.3188
31957W        W47426  12.478   9.159  11.869 -0.1880  0.1247 -0.0870
31958W        W47427   9.308   2.191  15.378  0.1045 -0.0605  0.3645
31959W        W47428   6.816  17.212  13.159 -0.2158 -0.2120  0.3607
31960W        W47429   9.300  13.388   4.426 -0.2368 -0.0715 -0.0560
31961W        W47430   0.094  17.702   1.596  0.2399 -0.0201 -0.1719
31962W        W47431   2.092   9.497   0.237  0.0785 -0.1909  0.1151
31963W        W47432  13.899  11.199   1.297 -0.1952 -0.1613 -0.2414
31964W        W47433  13.594  10.601   0.758  0.0626 -0.0147 -0.1369
31965W        W47434  10.771   7.449  13.041 -0.3919 -0.1780 -0.1174
31966W        W47435  14.808   3.949   5.526 -0.0421 -0.3240 -0.2346
31967W        W47436   1.738   2.874  11.216  0.2540  0.2057 -0.1401
31968W        W47437   7.329  15.726  11.575 -0.0920 -0.0451  0.3311
31969W        W47438   8.392  15.661  13.897 -0.2024  0.2196  0.2917
31970W        W47439   2.532   2.662   6.147  0.1144 -0.0005  0.0500
31971W        W47440  14.060   4.136   6.050  0.2349  0.0925  0.0690
31972W        W47441   4.216  18.376  15.533  0.0116 -0.5925  0.0294
31973W        W47442  12.457   8.863  14.504 -0.2053  0.0338  0.1140
31974W        W47443   4.204  17.166   5.275 -0.1948  0.0360  0.2367
31975W        W47444   6.045   7.224  11.460 -0.1405  0.0426 -0.0022
31976W        W47445  13.118  16.739   3.928 -0.1382 -0.3007  0.0163
31977W        W47446   8.645  12.377   0.373  0.0197 -0.1982 -0.0924
31978W        W47447   3.385  16.348   5.354  0.1130 -0.2640 -0.2641
31979W        W47448   8.268   1.976   1.611 -0.1020  0.2904 -0.2015
31980W        W47449   9.899   5.853  14.882  0.0759  0.0276 -0.1285
31981W        W47450  14.572  11.063  10.384  0.3127 -0.0537  0.2303
31982W        W47451  11.505  10.261  12.318 -0.4060 -0.1501 -0.1001
31983W        W47452  11.603  17.317  13.504  0.2440  0.0636  0.1826
31984W        W47453  10.728  18.204   5.102  0.0780  0.0987  0.0417
31985W        W47454  12.841  14.669  15.521 -0.1901 -0.1156 -0.1117
31986W        W47455   8.236   0.518   1.495 -0.1165  0.0882 -0.1031
31987W        W47456   3.243   6.429  11.330 -0.2197 -0.3013 -0.0482
31988W        W47457   6.210  17.774  14.636 -0.0015  0.0577  0.1626
31989W        W47458   9.026   3.916  13.802 -0.2087 -0.2964 -0.0027
31990W        W47459   9.995  16.108  15.690 -0.2356  0.0725  0.0196
31991W        W47460   4.187   9.647  14.069  0.1645 -0.0062 -0.2465
31992W        W47461  12.255  14.831   1.090 -0.0163 -0.1239 -0.1815
31993W        W47462   9.495   9.243  14.144  0.0393  0.2600 -0.1843
31994W        W47463   5.752   9.770   3.951 -0.3558  0.0010 -0.0476
31995W        W47464   7.906  12.180  15.268 -0.3905 -0.1027  0.2137
31996W        W47465   2.244   2.497  15.018 -0.0698 -0.4262  0.4463
31997W        W47466   5.919  18.207  15.773 -0.0521  0.1312 -0.4419
31998W        W47467  10.507   2.538  13.877 -0.0609  0.0619 -0.0193
31999W        W47468  12.541   0.671   0.454 -0.6724  0.1308 -0.0853
32000W        W47469  16.434  10.569  14.423 -0.2253  0.1274 -0.2265
32001W        W47470   5.490   7.943  11.283  0.2495 -0.1947 -0.0169
32002W        W47471  17.459   0.988  11.899 -0.1262 -0.0477 -0.0983
32003W        W47472  16.647   3.889  13.248 -0.0266 -0.4661 -0.0366
32004W        W47473   3.519   4.663  14.976  0.1162  0.0803 -0.3295
32005W        W47474   5.562  18.236   0.589 -0.0211  0.0554 -0.0671
32006W        W47475   6.994   2.571  12.789 -0.1399 -0.3923 -0.2938
32007W        W47476   0.107  13.854  11.804  0.2353  0.3104  0.4061
32008W        W47477  16.256   8.824   4.366 -0.3029  0.1496  0.3254
32009W        W47478  14.827   0.175  13.540  0.0876  0.1438 -0.0721
32010W        W47479  14.966   7.246   3.761  0.0815 -0.0896 -0.0870
32011W        W47480  14.570  16.422   5.588 -0.1327 -0.3303  0.0278
32012W        W47481   3.314   7.573  12.362 -0.2945  0.3038  0.0178
32013W        W47482   8.429   2.455   1.440  0.0535 -0.0599  0.1762
32014W        W47483  10.919  14.328  15.003  0.1198  0.2956  0.0374
32015W        W47484   4.451   4.630  12.503 -0.1152  0.0975  0.1789
32016W        W47485  18.004  15.482   1.963  0.1439 -0.2442 -0.1922
32017W        W47486   8.319   1.306  11.974  0.2368  0.2137 -0.0449
32018W        W47487   7.225  12.662   3.528 -0.1659 -0.1065 -0.1103
32019W        W47488   1.933  17.988  15.819 -0.0966 -0.0139  0.2051
32020W        W47489  10.684   6.737   2.660 -0.0398  0.1162  0.1819
32021W        W47490   6.924  13.651  15.301  0.0142  0.1174 -0.1359
32022W        W47491   8.674   5.317   5.420  0.2964  0.0621 -0.0742
32023W        W47492   1.782  12.207   4.985 -0.0325 -0.4080 -0.1995
32024W        W47493   5.701  17.599   1.801  0.1303  0.0185  0.1340
32025W        W47494   3.792  14.225  13.514 -0.1220  0.2078  0.1222
32026W        W47495   7.710   3.589   2.632  0.0093  0.2465  0.2427
32027W        W47496   7.356  10.193  11.174  0.0089  0.0380  0.2137
32028W        W47497  13.074   2.318  11.934 -0.2224  0.1046 -0.3434
32029W        W47498  10.109   8.909  11.458 -0.2805 -0.1091 -0.1578
32030W        W47499  16.550  13.516   4.522 -0.0376 -0.2673  0.2227
32031W        W47500  14.132  10.148   5.750  0.0010 -0.1772 -0.0014
32032W        W47501   8.940  17.406  13.545 -0.0606  0.1135 -0.1341
32033W        W47502   1.127   4.245  10.043 -0.4008  0.1864 -0.2906
32034W        W47503   1.980  17.069  13.999  0.0577  0.0232  0.1258
32035W        W47504  17.831  12.610  14.487 -0.0341 -0.0125  0.3333
32036W        W47505  17.731   4.402  15.153  0.1097 -0.1621 -0.1903
32037W        W47506  10.719  17.314  11.379 -0.3569  0.3079  0.2360
32038W        W47507   4.599   7.938  14.389  0.1160 -0.0146 -0.0233
32039W        W47508   7.598  16.414   3.391  0.0123 -0.0669  0.1749
32040W        W47509   9.313   2.574  15.816 -0.2807 -0.1245  0.2029
32041W        W47510  14.221  17.636   3.720 -0.1699  0.1735  0.0281
32042W        W47511  11.011   2.268   5.602 -0.1354 -0.0501  0.0943
32043W        W47512   4.071   1.935   1.758  0.4628 -0.1602 -0.2095
32044W        W47513   4.005  16.227  11.865  0.0973  0.1841 -0.0309
32045W        W47514  15.249   8.519   2.395  0.0586  0.0886  0.0699
32046W        W47515  16.029  10.720   4.808  0.1382 -0.0255  0.1352
32047W        W47516   8.137  17.311  14.251 -0.0675 -0.2043  0.4075
32048W        W47517   5.793   7.650  15.131  0.2456  0.2193  0.0462
32049W        W47518  10.451  14.998   0.908 -0.2841  0.0011  0.0272
32050W        W47519   6.705   6.184   5.313  0.2679  0.3698  0.1988
32051W        W47520   9.586   8.419  10.977 -0.1230 -0.3109  0.0987
32052W        W47521  15.519   2.613   0.713  0.4419 -0.1371  0.2172
32053W        W47522  12.687  16.407  11.030  0.1106 -0.1730 -0.1782
32054W        W47523   2.040   5.567   4.716 -0.1464  0.1086  0.1240
32055W        W47524  11.244   8.882  11.873  0.1159 -0.0132  0.1957
32056W        W47525  16.017   1.311  15.738  0.3128  0.3300  0.0097
32057W        W47526   6.861  13.148   0.430  0.0442 -0.0907 -0.0463
32058W        W47527   5.794  16.480   4.776 -0.1749 -0.3492 -0.0279
32059W        W47528  11.973   1.004   1.008  0.0423 -0.0789  0.2307
32060W        W47529  12.039   0.623   5.535  0.1993  0.1547 -0.1153
32061W        W47530   4.575  10.856  13.469  0.1233 -0.0574  0.1251
32062W        W47531   3.900   9.663  14.466  0.2551 -0.0392  0.1923
32063W        W47532  15.415   3.961   4.642  0.0652  0.0991 -0.0545
32064W        W47533   2.455  15.053  15.432 -0.3007 -0.0504 -0.0890
32065W        W47534  11.737   7.900  15.370 -0.0335  0.1906  0.3581
32066W        W47535   1.510   1.653  15.736 -0.1176  0.1924  0.3413
32067W        W47536  12.796   4.113   5.414  0.0942 -0.3414 -0.0624
32068W        W47537   4.944  15.850  13.582 -0.1552 -0.5278  0.1617
32069W        W47538   3.024  11.136  12.225  0.2945  0.3076  0.2810
32070W        W47539   3.661   6.805   5.256 -0.1169  0.1233  0.3797
32071W        W47540  14.689  16.266  13.239  0.1073 -0.0258 -0.2522
32072W        W47541  12.189  12.916   1.967 -0.1019  0.0959 -0.1963
32073W        W47542   0.385  14.837   4.270  0.1571 -0.1450 -0.0839
32074W        W47543  10.302   5.831  14.597  0.0851  0.1016  0.0043
32075W        W47544   8.664  18.336  15.007 -0.0645 -0.1195 -0.0840
32076W        W47545  10.922   4.964  13.164 -0.0617 -0.1053  0.2616
32077W        W47546   2.634   4.304  12.947  0.1106  0.0805  0.3299
32078W        W47547   7.493   1.817   5.927  0.0672 -0.3047  0.0811
32079W        W47548  12.974   5.189  12.091 -0.0203  0.0071 -0.0781
32080W        W47549   1.105  11.856   3.857 -0.0495 -0.0715  0.0433
32081W        W47550   3.633   1.040  12.475 -0.2954  0.0718 -0.1366
32082W        W47551   1.693   6.137  12.109 -0.1560  0.2819  0.3574
32083W        W47552   0.197   3.149  16.006  0.1158 -0.0280 -0.1107
32084W        W47553   7.585  10.893   0.981  0.1740 -0.0565 -0.3338
32085W        W47554  11.839   1.994   4.443 -0.0162  0.3181  0.1657
32086W        W47555  11.262  13.761   4.566  0.0048 -0.2435  0.1566
32087W        W47556  15.816   5.770   4.977 -0.0377 -0.1850 -0.1458
32088W        W47557   2.686  14.206   1.123  0.0832  0.0436  0.3167
32089W        W47558   9.134   3.226  15.440  0.2316  0.0263  0.0399
32090W        W47559   9.059  17.952  13.423 -0.0210 -0.0097  0.1157
32091W        W47560   7.304  10.875   4.312  0.1617  0.2390  0.0220
32092W        W47561   4.410   7.908   3.993 -0.1979  0.2416 -0.0425
32093W        W47562   7.604   3.240  13.083 -0.1347  0.0130 -0.0650
32094W        W47563  11.575  16.502  10.932 -0.3996  0.2280 -0.0801
32095W        W47564   2.657  15.232  11.311 -0.0681  0.3121 -0.0986
32096W        W47565   1.857  15.267  12.785 -0.0915  0.0153 -0.0640
32097W        W47566  10.251   3.842  11.071 -0.3085  0.5656  0.1202
32098W        W47567   0.065  12.905   3.667 -0.0445  0.0394  0.2241
32099W        W47568  16.405   4.728  12.781 -0.0446 -0.2628  0.2741
32100W        W47569  15.737   0.165   4.618  0.0218 -0.0093  0.3800
32101W        W47570   7.470  15.080   3.350 -0.1520  0.0372 -0.1219
32102W        W47571   3.186   8.703  13.345  0.3358 -0.3384 -0.1277
32103W        W47572  10.785   9.622  14.099 -0.0159 -0.0105  0.0627
32104W        W47573  11.431   0.193   4.893  0.1770 -0.1171  0.1948
32105W        W47574   9.078   9.415   3.903  0.0496  0.1129 -0.3053
32106W        W47575   4.045   1.071  15.297  0.1745 -0.0560 -0.0112
32107W        W47576   6.156  11.440   0.526  0.0683  0.1731 -0.1992
32108W        W47577   3.709   7.145   4.802 -0.1569  0.0957  0.2343
32109W        W47578   1.262   6.616   2.719  0.4618 -0.0520  0.0194
32110W        W47579   5.964  10.134  11.345  0.1141 -0.1954 -0.2626
32111W        W47580   0.546   3.629   6.369 -0.3033  0.3858 -0.0263
32112W        W47581  18.434   1.659   0.019 -0.0688  0.0107  0.1964
32113W        W47582  15.486   3.033  11.872 -0.0544 -0.0075  0.1548
32114W        W47583  11.336   3.066   2.069 -0.1761 -0.0926 -0.1932
32115W        W47584  13.420  17.155  13.824  0.0096  0.0417  0.0159
32116W        W47585  16.133   0.630   3.096  0.0713  0.0913  0.2171
32117W        W47586   7.386   4.002   1.296  0.0947  0.2455  0.1539
32118W        W47587   4.951   5.900  14.026  0.0197 -0.1995 -0.2613
32119W        W47588  10.061  18.254   2.341 -0.1493  0.4290  0.3793
32120W        W47589   8.234   4.154   5.499  0.5326  0.0870 -0.3636
32121W        W47590  10.420   6.948   5.712  0.0267 -0.1389  0.0582
32122W        W47591  12.375   9.368   5.146 -0.0197 -0.2508  0.2177
32123W        W47592   6.054  13.349  14.308 -0.1197  0.2438  0.1520
32124W        W47593  13.328   2.091  13.862  0.1799 -0.3900 -0.0472
32125W        W47594   4.684  12.396   5.360  0.2634 -0.0267  0.2571
32126W        W47595   0.741   2.510  16.005  0.1393 -0.3108  0.1081
32127W        W47596   4.167   5.451  11.893  0.1450  0.0106 -0.1339
32128W        W47597   3.137  18.269   1.303 -0.0053  0.0934 -0.0594
32129W        W47598   3.634   6.288   0.170  0.1940  0.3469  0.1293
32130W        W47599  15.144  10.558   4.810  0.0925  0.0544  0.4714
32131W        W47600   1.119   7.608  12.140  0.2514  0.3070 -0.0305
32132W        W47601   4.833   0.732  13.860 -0.2413  0.0905  0.1047
32133W        W47602  11.003   6.411   3.025 -0.2637  0.2471 -0.2243
32134W        W47603  12.430  11.039   3.041 -0.0700  0.1261  0.0663
32135W        W47604  17.014   9.524   3.936  0.1064 -0.1779  0.0286
32136W        W47605   6.462  13.421   0.976  0.4297  0.0334 -0.0691
32137W        W47606  15.884  16.144  15.208 -0.0582 -0.0985  0.2469
32138W        W47607   0.536  11.603  11.220 -0.0988 -0.1077 -0.0362
32139W        W47608   2.866   6.791   0.800  0.1107 -0.0627  0.1043
32140W        W47609   0.789  13.654   5.280  0.1547 -0.0301 -0.1032
32141W        W47610  10.937  18.341  15.510 -0.1479 -0.0055 -0.1213
32142W        W47611   0.885   5.473   0.083 -0.1038  0.0403 -0.1230
32143W        W47612  18.259  16.346  11.524 -0.2643 -0.0430  0.1540
32144W        W47613   9.325   6.610  14.859  0.0385  0.0739 -0.3243
32145W        W47614   3.441  10.818   2.794 -0.1019 -0.1140  0.4145
32146W        W47615  13.966   8.648  13.966  0.2710 -0.0340  0.0136
32147W        W47616   1.737   1.111  11.527  0.2304 -0.1384 -0.0450
32148W        W47617   5.074   3.822   5.181  0.1613 -0.0051 -0.1069
32149W        W47618  15.955  16.033  15.731 -0.0936 -0.1974  0.1368
32150W        W47619   8.820   6.368   0.761  0.1049 -0.0707  0.0080
32151W        W47620   9.082   2.019  10.925  0.0598  0.2395  0.0461
32152W        W47621  16.243  17.494   3.624  0.1757 -0.2767 -0.0298
32153W        W47622   4.515  11.911   3.348  0.0318  0.0793  0.2613
32154W        W47623   6.958  10.569   5.644  0.1208  0.0987  0.0540
32155W        W47624   5.828  12.410   0.935 -0.1431 -0.1180 -0.2954
32156W        W47625   2.435   8.368  15.335  0.1847  0.3106  0.1579
32157W        W47626   6.352  10.154   2.336 -0.1906  0.1705 -0.2334
32158W        W47627  13.614   6.687   2.313  0.0655 -0.2757  0.1733
32159W        W47628  10.627   8.131  13.181 -0.3667  0.0368 -0.1770
32160W        W47629  14.395   2.607   3.864  0.1902 -0.0502 -0.0980
32161W        W47630   5.027   2.196   1.014 -0.2999  0.0300 -0.1260
32162W        W47631  12.557   0.877  13.918  0.0668 -0.1552  0.1616
32163W        W47632  12.271   3.944   0.696  0.0603 -0.0626 -0.0531
32164W        W47633   6.102   7.821   1.838 -0.4282  0.0800 -0.0540
32165W        W47634  11.760   2.149  15.072  0.1126  0.1358 -0.1278
32166W        W47635  16.309   8.629   5.093 -0.1735  0.1227  0.1422
32167W        W47636   9.898  15.874  12.394  0.2351  0.0590  0.0011
32168W        W47637  14.799  17.606  15.065  0.2239 -0.0121 -0.0096
32169W        W47638   1.247  14.097  15.067 -0.1171 -0.0768 -0.0657
32170W        W47639  15.598   3.463   4.827  0.0106  0.2561  0.0712
32171W        W47640  14.353   3.502  14.499 -0.1563 -0.1172 -0.1616
32172W        W47641  11.936   1.375   1.975  0.0746 -0.2399  0.1348
32173W        W47642  16.215  17.689   2.015  0.1224  0.0114 -0.2738
32174W        W47643  15.103   1.110   4.910  0.0843  0.0386  0.1676
32175W        W47644  12.384   8.508  11.634  0.1323  0.4172 -0.3225
32176W        W47645   3.961   5.169   0.556 -0.1402 -0.1729  0.1658
32177W        W47646  14.518   7.869   0.877 -0.0550  0.0656  0.0060
32178W        W47647   7.838   9.473   5.552  0.1133  0.1884 -0.2827
32179W        W47648   3.729   5.079   0.060  0.1096  0.1744 -0.0076
32180W        W47649  12.788   8.489  12.707  0.2846 -0.1708  0.2793
32181W        W47650  16.492  10.540  15.607  0.2646  0.1952  0.0553
32182W        W47651   2.021   9.590  11.508 -0.0319  0.0643  0.1459
32183W        W47652  10.813   4.314   4.421  0.1069 -0.0026  0.0828
32184W        W47653  14.159   1.791  11.509  0.0714  0.0569  0.1090
32185W        W47654  13.058   1.613   4.889 -0.2820  0.3466  0.0101
32186W        W47655   1.153   8.136   4.625 -0.1683 -0.0966  0.0742
32187W        W47656   6.146   9.880  14.851  0.0053  0.2356 -0.2537
32188W        W47657   7.103  12.040  13.586  0.0286 -0.0518  0.1342
32189W        W47658  15.437  13.096  13.728 -0.0940  0.1155 -0.1530
32190W        W47659   9.524  15.280   2.053 -0.3837 -0.1021 -0.1884
32191W        W47660  12.250   1.513   6.176  0.0579  0.1464  0.0312
32192W        W47661  13.986   2.142  14.764 -0.1400 -0.2585 -0.1644
32193W        W47662  17.067   0.918   1.139 -0.2778 -0.1152 -0.1185
32194W        W47663  13.845   5.002   3.183  0.1023  0.1931 -0.0349
32195W        W47664   9.127  16.287   5.481  0.0147  0.0689 -0.1339
32196W        W47665  18.104   1.319  13.269  0.3129 -0.0661 -0.0526
32197W        W47666   5.357  12.080   4.911  0.1023 -0.1346 -0.2580
32198W        W47667   0.761   5.193   5.076  0.1013  0.3187 -0.1533
32199W        W47668   5.964   6.736   5.246  0.2982  0.1291  0.0807
32200W        W47669  10.578   7.594  11.494  0.0757 -0.0363  0.0225
32201W        W47670   6.367   1.913  15.277  0.2919 -0.1514 -0.1077
32202W        W47671  13.068  11.190  13.894 -0.0284 -0.0140  0.1384
32203W        W47672  14.916   9.393  15.403  0.0870 -0.1385  0.1538
32204W        W47673  15.760  18.121  11.914  0.2138 -0.0591  0.0397
32205W        W47674   7.072  17.212   2.254  0.2050  0.0829  0.0741
32206W        W47675  11.748   3.330   2.016 -0.0637  0.1786 -0.0189
32207W        W47676   2.348   2.135  15.434 -0.0719 -0.0843  0.0070
32208W        W47677  16.551  10.627  12.333 -0.2329 -0.0744 -0.0325
32209W        W47678   0.682  10.073  12.003 -0.0950  0.2092  0.1948
32210W        W47679   2.391   7.872   5.017 -0.1138 -0.1418 -0.0136
32211W        W47680  14.214   5.910   0.102 -0.0826  0.1165 -0.2066
32212W        W47681   4.572   1.059   5.079  0.1389  0.1794 -0.0859
32213W        W47682   8.760   0.347  12.955 -0.1949  0.0175 -0.0695
32214W        W47683   0.348   3.711   5.377 -0.2554  0.1561  0.0905
32215W        W47684  17.930  16.082   3.255  0.0670  0.2359 -0.1491
32216W        W47685   3.570   1.455  13.925  0.0858 -0.0849  0.3226
32217W        W47686   3.778  16.076  12.921  0.0469 -0.1130  0.0106
32218W        W47687  14.199  16.728   1.342 -0.0826 -0.1374  0.0141
32219W        W47688  12.104   7.091  14.925 -0.1930  0.1076  0.1437
32220W        W47689   3.988  10.713  15.763 -0.1668 -0.0919 -0.0633
32221W        W47690   9.648   4.930   5.403 -0.4117 -0.0610  0.4294
32222W        W47691  12.494  12.033  14.162 -0.1420  0.0999  0.1007
32223W        W47692   1.394   9.074   2.689 -0.1994  0.0455 -0.0668
32224W        W47693   6.622  15.359   3.886 -0.0375 -0.1830  0.1752
32225W        W47694   3.321   1.152  15.945 -0.0276  0.2518 -0.2753
32226W        W47695   2.015   7.178   0.555  0.2767 -0.1312  0.0454
32227W        W47696   2.640   6.213  13.753  0.1506  0.0240  0.0121
32228W        W47697  12.919  16.568  11.437 -0.0274  0.0243 -0.0638
32229W        W47698  12.772   9.405  11.383  0.0060 -0.1068 -0.2815
32230W        W47699  13.962  17.188   3.605  0.0265 -0.1780  0.3776
32231W        W47700  13.411  10.644  13.511 -0.0563  0.3285 -0.0866
32232W        W47701  16.262   8.053   0.018  0.0459  0.2111 -0.0449
32233W        W47702   9.099  13.306  12.070 -0.0487 -0.1407  0.0072
32234W        W47703   2.977  15.369  10.702  0.3141  0.0154  0.2472
32235W        W47704   4.894   3.541  13.360  0.0249  0.2514  0.1896
32236W        W47705   2.176  17.747   0.194  0.1619 -0.0256  0.3605
32237W        W47706   7.028   6.509  15.496  0.2112 -0.1035  0.1251
32238W        W47707   7.150   6.260   0.884 -0.2494 -0.0729  0.1940
32239W        W47708   8.317   9.734   0.536 -0.2855  0.2032  0.1452
32240W        W47709   3.291   3.536   0.081 -0.1353 -0.4733  0.3191
32241W        W47710  15.437  13.997   4.740  0.2039  0.1847  0.1308
32242W        W47711   0.900  12.232  12.477  0.1653  0.3990  0.1604
32243W        W47712   8.256  15.759   2.263 -0.0069 -0.0739 -0.1339
32244W        W47713   6.595  17.213  12.735 -0.0719 -0.4487  0.2175
32245W        W47714   6.747   3.040   2.528  0.3308  0.0054  0.1698
32246W        W47715  17.847   6.971   4.519 -0.0923 -0.0523  0.0732
32247W        W47716   1.157  11.270   4.304 -0.0812 -0.0144 -0.0531
32248W        W47717  10.276   6.008   0.141  0.0444  0.0653  0.2667
32249W        W47718  15.744   5.469  12.195 -0.0205  0.0998 -0.0004
32250W        W47719   3.354  13.074   1.669  0.2337 -0.3286 -0.2014
32251W        W47720   6.039   8.630  13.965  0.1507 -0.0691 -0.0459
32252W        W47721   0.303  16.694   2.828 -0.0110  0.0246 -0.0653
32253W        W47722   4.003  17.510  12.091 -0.0565  0.2166  0.0707
32254W        W47723  16.550  17.961   1.639  0.1922  0.1345 -0.0613
32255W        W47724   5.153  13.081   1.945 -0.2808  0.1086  0.1262
32256W        W47725   4.075   9.488   2.361 -0.2247 -0.1138 -0.0711
32257W        W47726  14.617   5.203  14.755 -0.1044  0.0918  0.2667
32258W        W47727   1.354   7.751  14.428  0.3113  0.0685 -0.0432
32259W        W47728   2.899   4.512   1.011 -0.2649  0.1584  0.3449
32260W        W47729   3.045  10.996   0.017  0.3023  0.1335 -0.1040
32261W        W47730   6.299  12.782  13.277  0.0476  0.0205  0.0322
32262W        W47731   8.567   3.595   1.558  0.0740  0.2184 -0.1994
32263W        W47732   5.155   7.031  12.001 -0.0440  0.1599  0.1414
32264W        W47733  14.512  15.035  11.656  0.2348  0.0932 -0.4018
32265W        W47734  13.578  15.949  12.200 -0.1743 -0.0213 -0.0524
32266W        W47735   9.956   5.693   4.292 -0.1856  0.2949  0.0135
32267W        W47736   2.909   9.348  12.228 -0.2633 -0.2859  0.0284
32268W        W47737  15.491  17.326  11.053 -0.2157  0.0002 -0.1020
32269W        W47738  12.185  12.986   0.722 -0.1262  0.0156  0.0966
32270W        W47739   7.320  11.243  14.168 -0.2637  0.1342  0.2324
32271W        W47740   4.351  10.344   2.543  0.1028 -0.2047  0.1289
32272W        W47741   2.558  10.552  12.910 -0.2390 -0.3370  0.2534
32273W        W47742   4.049  13.931  15.824  0.2677 -0.3533 -0.0949
32274W        W47743   0.415  15.172  13.592  0.1110 -0.3177 -0.2418
32275W        W47744  17.816   8.927  12.318  0.1336 -0.3798  0.0516
32276W        W47745   1.860   9.905   2.830 -0.4651 -0.0105  0.0923
32277W        W47746   0.018   3.334   0.415  0.1901  0.0948  0.1612
32278W        W47747   8.270   8.921  10.633 -0.1034 -0.0403  0.2515
32279W        W47748  17.649  11.069   4.287  0.0230 -0.2322 -0.0005
32280W        W47749   1.556   2.927   2.323  0.0368 -0.0766  0.4768
32281W        W47750   6.571   3.846  11.933  0.1552 -0.0629 -0.1537
32282W        W47751  12.949  10.872   3.546 -0.5027  0.1192  0.3299
32283W        W47752   7.549   3.750  14.755  0.4556 -0.0720  0.4998
32284W        W47753   3.202  17.829   4.145 -0.2264  0.4159 -0.0021
32285W        W47754   1.789   9.555   5.194 -0.1141 -0.3236 -0.0666
32286W        W47755  13.174  15.753   3.066 -0.1631  0.1693 -0.2522
32287W        W47756  16.725  13.489   2.470  0.4811 -0.3936 -0.1287
32288W        W47757   9.800  12.906   3.470 -0.0876  0.1452  0.0853
32289W        W47758  13.693   9.665  12.720  0.1519  0.0682 -0.1247
32290W        W47759  11.933   0.690   0.562 -0.1065 -0.2059  0.1856
32291W        W47760   6.596  10.387   5.325 -0.2262 -0.2006  0.3737
32292W        W47761   5.380  11.910   4.020  0.2546  0.0380  0.0201
32293W        W47762   2.819  15.329  15.609 -0.0344 -0.1584 -0.2469
32294W        W47763  14.029   9.806   1.330  0.1676 -0.2460  0.0732
32295W        W47764   9.044   0.308  11.118  0.0277  0.0769  0.0600
32296W        W47765  14.011   9.388  12.290  0.0957 -0.0745  0.1646
32297W        W47766   9.245  12.703  15.690 -0.0446 -0.2362 -0.2380
32298W        W47767   1.566   6.287   2.296  0.1740 -0.0003  0.0584
32299W        W47768  14.428  16.555  14.444  0.1252 -0.0054 -0.2016
32300W        W47769   7.110  13.868  12.911 -0.3090 -0.0060  0.1670
32301W        W47770  12.260  15.554   4.562 -0.0142 -0.0889  0.0579
32302W        W47771   7.280  15.603   1.281 -0.0379  0.0223 -0.0044
32303W        W47772   4.700   6.561   1.662 -0.0996  0.0619  0.1406
32304W        W47773   9.650  17.999   0.796 -0.0634 -0.0206  0.3155
32305W        W47774   7.118   2.979   6.075 -0.1602  0.0413 -0.0156
32306W        W47775  18.086  16.238  14.725  0.0209  0.1777 -0.1873
32307W        W47776  17.851   0.429  13.082  0.0452 -0.2302 -0.1393
32308W        W47777  15.987   0.623   0.305  0.1952 -0.0610 -0.0470
32309W        W47778  10.889   4.246  13.983  0.1016 -0.3275 -0.2880
32310W        W47779  12.314   8.719  15.626  0.1031 -0.3844 -0.1208
32311W        W47780   4.757   4.375  12.207  0.0329 -0.0635  0.1468
32312W        W47781   1.725   8.702  15.243  0.3120 -0.3515 -0.0798
32313W        W47782   1.584  14.251   0.800 -0.0732  0.0429 -0.0081
32314W        W47783   2.488  15.592  13.476  0.2409  0.0140 -0.0267
32315W        W47784   4.151   4.094  15.177  0.3370  0.1868  0.3037
32316W        W47785  16.102   9.373   5.224  0.2770  0.1296 -0.1237
32317W        W47786  12.301  11.633   0.443  0.0239  0.0605 -0.2266
32318W        W47787  16.280  12.571  15.961  0.2035 -0.3344 -0.1014
32319W        W47788  15.036   1.774  14.733 -0.0292  0.1617 -0.1132
32320W        W47789   9.217   1.658  12.776  0.1490  0.1121  0.0026
32321W        W47790  13.568  12.884  14.730 -0.3039 -0.0031  0.1788
32322W        W47791   7.038  12.441  11.494 -0.0996  0.1140  0.0835
32323W        W47792  11.302  14.586   4.280 -0.1044 -0.0712  0.0749
32324W        W47793  10.564   3.405  12.585 -0.0032  0.3068 -0.1448
32325W        W47794  15.455  13.998   2.628 -0.0931 -0.1258  0.4350
32326W        W47795  11.132  10.188  12.729  0.3052 -0.0821  0.2176
32327W        W47796   9.697  17.315   3.170  0.1493 -0.0583  0.0723
32328W        W47797   1.245  11.042   5.854  0.2379 -0.2415  0.1154
32329W        W47798   9.702   2.432   2.326  0.2215  0.2321  0.1165
32330W        W47799   5.432   0.831   1.985 -0.1992  0.2523  0.1921
32331W        W47800   9.837   2.150  13.617 -0.0212  0.1015 -0.0540
32332W        W47801  15.179   5.205   2.024  0.2225  0.1272 -0.0894
32333W        W47802  12.857   6.262  12.249  0.0322 -0.0195  0.1058
32334W        W47803   3.612   1.448  14.445  0.2972 -0.0852 -0.2056
32335W        W47804  14.009  14.652  13.187  0.0313 -0.2778 -0.2013
32336W        W47805   4.881   6.174  12.474  0.0372  0.1202 -0.0775
32337W        W47806   5.671  11.647  11.513 -0.0557  0.1677 -0.0195
32338W        W47807   8.490   5.697  12.095 -0.1948 -0.2759 -0.0008
32339W        W47808   9.895   8.097  15.894  0.0046 -0.0674  0.1668
32340W        W47809  14.692   1.748  11.125 -0.1036 -0.1641 -0.2095
32341W        W47810  12.793  12.459   5.869  0.2621 -0.0893 -0.0945
32342W        W47811   1.154   8.445   5.688  0.1088  0.1075  0.1840
32343W        W47812   3.520  10.895   3.289  0.3990 -0.3816  0.1572
32344W        W47813   5.098   3.239  12.500 -0.2500 -0.0829  0.1086
32345W        W47814   4.014  12.820   9.814  0.1641  0.0469  0.3549
32346W        W47815   8.186   7.257   3.998 -0.0370 -0.0622  0.0740
32347W        W47816   5.259   9.310  13.914 -0.0471 -0.1080 -0.0340
32348W        W47817   5.811   3.586   4.981  0.0145  0.1635  0.0294
32349W        W47818  15.243  14.428   2.350 -0.0156 -0.0431 -0.1337
32350W        W47819  12.588   4.447  12.607  0.1716  0.1108 -0.0386
32351W        W47820  10.396   3.730   6.085  0.0551 -0.2064  0.2885
32352W        W47821   1.203  16.760   5.397  0.1034 -0.0563  0.2421
32353W        W47822   4.328   1.689   1.336 -0.0812  0.1271 -0.0758
32354W        W47823  13.622  18.120  10.997 -0.4876  0.1738  0.1094
32355W        W47824  10.454   7.506  11.949 -0.0032 -0.1992 -0.0553
32356W        W47825  10.510  12.260   0.302  0.1215 -0.2666  0.0698
32357W        W47826  14.834   7.147  14.911  0.0971 -0.0485  0.0999
32358W        W47827  10.360  16.516  11.708 -0.0696  0.2772 -0.2075
32359W        W47828  14.822   5.178   2.394  0.1792  0.3528  0.0883
32360W        W47829  11.472   9.126  10.645 -0.0719  0.0216 -0.4385
32361W        W47830   4.128   7.418   0.628  0.1182 -0.2429  0.2104
32362W        W47831   7.503   5.661  12.330  0.1429  0.2584  0.3885
32363W        W47832   3.329   7.473   4.851  0.0762 -0.1510  0.0771
32364W        W47833   6.878  17.927  11.479 -0.0490 -0.1861  0.2806
32365W        W47834  11.558   9.356  15.292 -0.0957 -0.0683  0.2332
32366W        W47835  11.633   0.630  15.439  0.0405  0.0515 -0.0374
32367W        W47836  17.333   1.728   4.456 -0.1510  0.1586  0.4381
32368W        W47837  11.124   8.078   2.882  0.0020 -0.4788  0.0027
32369W        W47838   6.473  17.153   4.290  0.2818  0.1475  0.5060
32370W        W47839   3.745  10.074   2.174  0.2246  0.1627  0.1091
32371W        W47840   9.066  12.919   3.067 -0.3241  0.3829  0.1397
32372W        W47841  14.834   6.640   1.063 -0.0127 -0.0508 -0.0705
32373W        W47842  11.861   7.574   1.333 -0.0741 -0.2567  0.1375
32374W        W47843  14.934  18.436  11.474  0.4021  0.0202 -0.4354
32375W        W47844  13.540   4.182   1.019  0.2175  0.0718 -0.0689
32376W        W47845   7.696  14.543  13.375  0.1245  0.4308  0.0922
32377W        W47846  17.037  14.694   0.686  0.4126 -0.0521  0.1522
32378W        W47847  10.389   5.280  10.851  0.1031  0.1555 -0.0627
32379W        W47848  17.692  12.539   2.495  0.3377 -0.0923 -0.2551
32380W        W47849  14.315   0.317  11.971 -0.0812  0.0637  0.1079
32381W        W47850  11.132   2.772   4.762  0.1730  0.2015 -0.1347
32382W        W47851  10.940   7.422  13.525  0.1020 -0.0527 -0.1604
32383W        W47852  16.871  14.410   1.028  0.1083  0.1001 -0.0879
32384W        W47853  10.633   9.051  14.642  0.0959 -0.1814 -0.4403
32385W        W47854   0.883   9.869   4.209 -0.1749  0.1356  0.0616
32386W        W47855   3.005   5.982  11.891  0.0809 -0.3787 -0.0164
32387W        W47856  14.241   6.449  11.511  0.0092  0.0548  0.0757
32388W        W47857  16.244   8.575  12.090 -0.2414 -0.1826  0.2253
32389W        W47858   5.148  10.757  11.391 -0.1671 -0.1186  0.1109
32390W        W47859   8.881  18.379  13.653 -0.0489 -0.0068 -0.0960
32391W        W47860   1.999   8.708  10.983  0.4080 -0.0124 -0.2336
32392W        W47861  10.245  13.065   0.232 -0.0078 -0.1801  0.1353
32393W        W47862  14.934  17.268  13.591  0.1622  0.3286  0.0420
32394W        W47863   6.511   1.183  15.882  0.1060 -0.1726 -0.0473
32395W        W47864  11.686   1.652   2.441 -0.0650 -0.1395 -0.3580
32396W        W47865   5.793  15.754   3.718 -0.2243  0.1106  0.4716
32397W        W47866   6.011  17.363   2.148 -0.0835 -0.3091  0.3115
32398W        W47867   8.403   6.002  14.091 -0.1986 -0.0316  0.0347
32399W        W47868  13.480   1.251  15.803  0.0806 -0.0164 -0.3735
32400W        W47869   4.450   8.920  15.949 -0.4016  0.2026  0.1078
32401W        W47870   0.605   7.474  11.459 -0.2594  0.1349  0.2620
32402W        W47871   8.157   8.102   4.920  0.1246  0.3101  0.3480
32403W        W47872  18.363  13.331   3.861 -0.2863  0.1242 -0.2659
32404W        W47873  16.353   2.517   0.757  0.0673 -0.1263  0.1635
32405W        W47874  13.874   7.246  13.775  0.3458 -0.0036  0.3850
32406W        W47875  16.021  11.972   3.260  0.2268 -0.1775  0.2504
32407W        W47876  17.836  13.240  13.995  0.2844  0.1374  0.0706
32408W        W47877   2.078   2.638  14.285 -0.1267 -0.1139  0.0552
32409W        W47878   4.864   8.079   3.870 -0.1918  0.1778  0.2081
32410W        W47879   7.034   3.564  10.423 -0.1092 -0.1162 -0.0692
32411W        W47880   5.417   9.777   0.006 -0.3662 -0.0413 -0.2646
32412W        W47881   4.030  14.080   0.526 -0.3044  0.2521  0.0894
32413W        W47882   1.395   4.084   6.306  0.0099  0.1395 -0.1847
32414W        W47883   9.165   4.517  11.818  0.0346  0.2934 -0.0479
32415W        W47884   4.971  16.249   2.408 -0.5263  0.1159  0.1361
32416W        W47885   4.742  17.354   1.352  0.0903  0.0771 -0.0615
32417W        W47886   1.179  15.082  13.860 -0.2937 -0.2395  0.3083
32418W        W47887   7.369  14.717  11.641 -0.0319  0.0425 -0.0585
32419W        W47888   6.696   4.704  14.115 -0.0312 -0.0684 -0.0154
32420W        W47889  11.039  13.664  12.206  0.2216 -0.0977 -0.0370
32421W        W47890   9.057   4.031   2.869  0.2012  0.0461 -0.2281
32422W        W47891   9.760  17.436   0.718 -0.0011  0.1624 -0.1536
32423W        W47892  15.861   0.599  13.768 -0.3398  0.0869 -0.0681
32424W        W47893  17.666   1.067  13.173 -0.0191  0.1071  0.2627
32425W        W47894  11.843   0.566  12.047 -0.0600  0.1873  0.1876
32426W        W47895  15.323  11.466  13.533  0.0735  0.5124  0.1051
32427W        W47896  15.218   0.702   6.205 -0.3284  0.0730  0.1730
32428W        W47897  12.296   8.401   1.498  0.1329 -0.0421  0.0377
32429W        W47898  11.703   7.575  13.914 -0.0132  0.4666  0.3483
32430W        W47899  14.927  18.024  14.845  0.2375  0.0896  0.0468
32431W        W47900  10.580  18.428   2.165  0.0553  0.0097 -0.1971
32432W        W47901   3.627  10.483   1.835  0.1847  0.2255  0.1884
32433W        W47902  14.780   9.621   5.245  0.2565 -0.0920  0.0322
32434W        W47903   8.151   2.337  13.940 -0.0607 -0.2909 -0.1254
32435W        W47904  15.914  16.316  12.802  0.0871 -0.2743 -0.0307
32436W        W47905   8.662  18.178   5.353 -0.0478  0.2945  0.0235
32437W        W47906   6.494  11.748  14.306 -0.1800  0.0084 -0.3782
32438W        W47907  17.673   4.000   5.868  0.1368 -0.0392  0.2783
32439W        W47908  10.561   7.269  12.650  0.2472 -0.1148 -0.0245
32440W        W47909   0.513   7.518  13.963 -0.1866 -0.2620 -0.0925
32441W        W47910   9.526   1.196   3.403  0.1887 -0.1342 -0.1309
32442W        W47911  12.361   9.875  10.667 -0.2958 -0.2192  0.3406
32443W        W47912  12.052   4.146  11.027  0.1045 -0.1326  0.1134
32444W        W47913   1.458  14.670   0.495  0.0111  0.1158 -0.1481
32445W        W47914  15.287   9.811  12.474 -0.1698  0.0474  0.1598
32446W        W47915  15.384   8.003  13.276  0.1775  0.2073  0.0056
32447W        W47916  14.710  10.286   0.757  0.1220  0.0929 -0.1427
32448W        W47917   6.795   4.125  14.578  0.0158 -0.1177  0.2810
32449W        W47918   3.678   5.398  11.429  0.1401  0.1538 -0.2004
32450W        W47919   0.401  11.843   0.250  0.1838 -0.1846 -0.1814
32451W        W47920  12.321  17.469  12.813  0.0364  0.0533  0.1531
32452W        W47921   9.043  11.454   0.267 -0.2873  0.0416 -0.1162
32453W        W47922   9.488   6.592  15.368 -0.0034 -0.0333  0.3515
32454W        W47923  14.958  18.220   3.511  0.1103  0.0113  0.0469
32455W        W47924  15.766  17.919   1.809 -0.0953  0.1361 -0.0075
32456W        W47925   9.532   2.115   4.533  0.0242  0.0058  0.0799
32457W        W47926   6.279   3.492  11.084 -0.1588 -0.0139  0.0973
32458W        W47927  14.541   7.116  15.829  0.2640 -0.2583  0.1670
32459W        W47928  14.231   4.056   3.217  0.1247  0.1142  0.0090
32460W        W47929   7.378  17.048  14.794 -0.0642 -0.0645  0.3476
32461W        W47930   9.581  15.070  11.681  0.0899  0.0238 -0.0709
32462W        W47931   2.313   9.342  15.377  0.1987  0.3623 -0.1839
32463W        W47932  13.567   7.513   2.403  0.0226 -0.1421  0.0736
32464W        W47933   8.152  14.704  13.121  0.1148  0.1906 -0.2747
32465W        W47934   6.014  11.206   2.693 -0.0972 -0.0928 -0.0557
32466W        W47935   3.222   4.122   2.603 -0.0572 -0.0472 -0.0535
32467W        W47936   6.460  14.898  13.058 -0.0264  0.1832  0.4305
32468W        W47937   2.674  15.365  15.112  0.1146 -0.2158  0.1895
32469W        W47938  14.748   8.677   5.189  0.1845  0.0861  0.1085
32470W        W47939  16.708  12.352   2.771  0.0799 -0.0218 -0.0843
32471W        W47940  17.278  15.863   2.541  0.0814 -0.1100  0.0785
32472W        W47941  16.314  10.121  12.469  0.2454 -0.1898 -0.1935
32473W        W47942  10.182  16.235  12.081  0.1241 -0.0281 -0.1485
32474W        W47943  12.860   3.352  14.819 -0.0074 -0.0418 -0.1733
32475W        W47944   3.394   8.350  15.733  0.1910  0.1379  0.0073
32476W        W47945  11.757   9.870  12.017 -0.0384 -0.4112  0.0800
32477W        W47946  10.798   1.452   2.683 -0.0337 -0.0214  0.0622
32478W        W47947   8.271  16.098  12.665 -0.0752  0.2566 -0.1262
32479W        W47948   2.654  15.335  13.957 -0.0304 -0.0647  0.0100
32480W        W47949  15.910  17.986  12.917 -0.0169 -0.1984  0.1715
32481W        W47950  13.892  17.797  13.885  0.2417 -0.2497 -0.0174
32482W        W47951   3.774  14.849   3.729 -0.0282 -0.1407 -0.3416
32483W        W47952   5.950  15.093   3.253  0.2066  0.2520  0.3784
32484W        W47953   2.693  11.033   2.601  0.0856 -0.1003 -0.1860
32485W        W47954  16.745   5.682  11.154 -0.2235  0.2964 -0.1685
32486W        W47955   4.217  13.749  13.090 -0.0519  0.2002  0.0257
32487W        W47956  17.844   2.597   5.123  0.0724  0.2204  0.0723
32488W        W47957  10.982  11.476  15.935 -0.3069 -0.5232  0.0332
32489W        W47958  17.907   5.659   6.049  0.0699 -0.0381  0.1070
32490W        W47959  11.536   6.495   4.563  0.1462  0.0553 -0.0763
32491W        W47960  15.290   4.317   3.591 -0.4083 -0.2893 -0.1348
32492W        W47961   8.638  16.226  12.337  0.2770 -0.3380 -0.5034
32493W        W47962  18.241   2.974  10.335  0.1112 -0.0726  0.0294
32494W        W47963   2.869  11.465  12.661 -0.3411  0.0302  0.0102
32495W        W47964   9.882   5.724  11.710 -0.0880  0.1186  0.1168
32496W        W47965   8.414   3.149  15.845  0.0629  0.2083  0.1010
32497W        W47966   2.875   8.624   0.738 -0.0687  0.0761 -0.0164
32498W        W47967  15.456   2.881   1.779 -0.3203  0.2317 -0.5421
32499W        W47968   7.356  13.513  14.324 -0.0464  0.0579  0.4542
32500W        W47969   8.662   0.736   1.424 -0.1032 -0.0953  0.0630
32501W        W47970  10.523  15.521  11.478  0.1079  0.0321  0.0133
32502W        W47971  11.249   0.670   1.695  0.1910  0.0579  0.0272
32503W        W47972   7.763   6.813   6.161 -0.1877 -0.1006  0.1600
32504W        W47973   1.654   4.214   1.016  0.0082 -0.0981  0.2582
32505W        W47974   5.295   4.910  11.803 -0.2331 -0.2736  0.2468
32506W        W47975  15.525  11.934  11.914 -0.2613 -0.1394 -0.1417
32507W        W47976   5.632   4.685   1.093 -0.4793 -0.4429 -0.2235
32508W        W47977   8.320  11.467   3.569  0.0236 -0.1514 -0.0087
32509W        W47978  14.732  10.415  15.920 -0.0862 -0.2143 -0.1043
32510W        W47979   6.066  18.402  11.800  0.0932 -0.1477 -0.3008
32511W        W47980   4.289  15.776   3.780  0.1034 -0.0510 -0.1218
32512W        W47981  11.038  14.113  12.383  0.2542 -0.2697  0.1045
32513W        W47982   0.080   4.486   1.879  0.1084 -0.1157 -0.0973
32514W        W47983   9.906   6.289  11.665 -0.1771 -0.2016 -0.1495
32515W        W47984  10.934  10.103   4.538  0.0005 -0.1967 -0.1658
32516W        W47985  11.293   7.914  11.732  0.2051  0.1270 -0.3992
32517W        W47986   6.732   4.636  12.404 -0.1152 -0.3741 -0.1745
32518W        W47987   3.780   9.296   1.165 -0.0303 -0.1627 -0.2653
32519W        W47988  18.405  10.350   1.687 -0.2065  0.1989 -0.0190
32520W        W47989   4.074   8.924   1.387 -0.1938 -0.2115 -0.1198
32521W        W47990  12.137   9.747  13.337 -0.1191 -0.0676 -0.0222
32522W        W47991  12.744   8.116   2.529 -0.0232  0.1928 -0.1068
32523W        W47992   0.083   2.674   3.336  0.4447 -0.1067 -0.1609
32524W        W47993   2.554   8.763   0.231  0.0027 -0.3600 -0.0148
32525W        W47994  11.209   0.610  15.108  0.0581 -0.0025  0.5645
32526W        W47995   8.910  10.233   3.755  0.0194  0.1991  0.2007
32527W        W47996   0.578  17.644   4.744 -0.1000 -0.1397 -0.2477
32528W        W47997  13.797  11.153   3.102 -0.1739  0.1426 -0.0285
32529W        W47998  16.508   1.952   2.283  0.2335  0.1147  0.1849
32530W        W47999  17.755  12.134  10.219  0.0877 -0.1507 -0.0003
32531W        W48000   9.144   2.526   2.397 -0.2235  0.1881 -0.1516
32532W        W48001   5.563  16.474   3.396 -0.1297 -0.2004 -0.1408
32533W        W48002  17.640   4.267  11.305  0.1887 -0.2819  0.1054
32534W        W48003  16.118  11.670  13.328  0.1620  0.1521  0.1136
32535W        W48004   8.517   5.897  13.598  0.2360 -0.2176 -0.4052
32536W        W48005  17.549   5.860  12.742 -0.1774 -0.1543  0.1861
32537W        W48006  13.816  14.166   3.778  0.3180  0.1048 -0.1912
32538W        W48007   0.453   9.031   2.600 -0.0391 -0.0992 -0.1962
32539W        W48008   1.078  13.862   5.869  0.2762  0.1452 -0.1614
32540W        W48009   7.071  11.482  11.097  0.1026  0.2936  0.1986
32541W        W48010   3.450   7.724   3.316 -0.3943 -0.0639 -0.0747
32542W        W48011  15.754   1.350  14.921 -0.1813 -0.0701 -0.4112
32543W        W48012  15.085  13.863   2.327  0.3189  0.2368 -0.2438
32544W        W48013  12.525  12.662   4.043 -0.0926  0.1726 -0.2085
32545W        W48014  13.183   8.580   1.736  0.2231  0.0981  0.4768
32546W        W48015  16.677   9.932   0.773 -0.0898  0.0751 -0.2813
32547W        W48016  16.150   7.112   6.295  0.0132 -0.1536  0.1278
32548W        W48017  11.046   5.523  11.352 -0.0223 -0.4666 -0.0402
32549W        W48018  13.071   9.233   0.575  0.2207  0.0270 -0.2019
32550W        W48019  12.680  12.738  13.071  0.0270  0.1730  0.1377
32551W        W48020  14.998   6.533   1.857  0.1546  0.1612  0.0915
32552W        W48021   5.127   5.293  12.900  0.1799  0.0421 -0.3387
32553W        W48022   6.066  14.435  12.935  0.2367 -0.3548  0.0326
32554W        W48023  14.021   2.111  15.490  0.1988  0.1833  0.1304
32555W        W48024   8.585   2.340   5.996 -0.1117 -0.0670 -0.2143
32556W        W48025   6.617  16.112  15.505  0.1444  0.0831  0.0955
32557W        W48026   9.667  14.235   0.798 -0.1161 -0.1821  0.2743
32558W        W48027  13.463  17.995  12.238  0.1184 -0.2421 -0.1435
32559W        W48028  11.045  10.150   0.212  0.0452 -0.1044  0.2196
32560W        W48029   2.848   8.602   3.781  0.1237  0.0549 -0.0316
32561W        W48030   8.586  13.855   2.446  0.3216  0.0720  0.2313
32562W        W48031  11.828   9.375  13.097  0.3589  0.0607 -0.1024
32563W        W48032   2.790  13.366  13.989  0.3712  0.3028  0.0895
32564W        W48033  16.308   1.807  14.008 -0.0899  0.0118 -0.0574
32565W        W48034  12.981   8.367   5.940 -0.0945 -0.0512 -0.2434
32566W        W48035   9.451   6.996   3.724  0.1451 -0.1406 -0.0292
32567W        W48036   2.151  14.096   4.249  0.0112 -0.0506  0.1387
32568W        W48037  15.502   0.740   4.709  0.2973 -0.1220  0.3078
32569W        W48038   6.934   5.058  12.621  0.1353 -0.2935 -0.1466
32570W        W48039   3.147   9.424   2.367 -0.1948  0.0255  0.1525
32571W        W48040  15.916  16.364  14.635  0.3788  0.3297  0.0205
32572W        W48041   7.014   6.847   4.573  0.1147  0.0679  0.1055
32573W        W48042   4.483  14.205  11.501 -0.2785 -0.1397  0.1750
32574W        W48043  17.789   5.775   1.283  0.1617 -0.2172 -0.2011
32575W        W48044   7.966   9.994   3.352  0.2366  0.1025  0.0705
32576W        W48045  17.282  16.247   5.189 -0.3990 -0.0711  0.1730
32577W        W48046  18.392   8.710  12.645 -0.2420  0.0145 -0.1401
32578W        W48047  12.276   4.684  15.054 -0.1743 -0.0882  0.1509
32579W        W48048  11.327   2.859   0.295 -0.1779 -0.2240  0.1659
32580W        W48049  11.407   5.501  10.953  0.3081 -0.0958  0.2511
32581W        W48050  15.405  15.451   3.970 -0.0077 -0.3676  0.0911
32582W        W48051   6.433   2.795  15.438  0.1831  0.0448  0.4366
32583W        W48052  12.193  16.738   3.355 -0.1904 -0.0305 -0.0971
32584W        W48053  10.451   9.158  14.215 -0.0839 -0.0037 -0.1123
32585W        W48054  16.635  16.434   6.090  0.1166  0.1200  0.1553
32586W        W48055  11.004   3.176   5.000  0.2109  0.2449  0.2533
32587W        W48056   9.545   1.488  15.018  0.1146  0.2196  0.0148
32588W        W48057   1.759   6.316  14.172  0.1687 -0.0304 -0.2874
32589W        W48058  17.519   0.349   4.088  0.2542 -0.0719 -0.0392
32590W        W48059  12.704  12.325  11.110  0.0350  0.0984 -0.1806
32591W        W48060  10.010   1.123   0.741  0.1266  0.1358 -0.4325
32592W        W48061  12.632  17.516   1.782 -0.0481  0.1775  0.1732
32593W        W48062   8.876  12.390  15.920 -0.2450 -0.2820  0.1352
32594W        W48063  14.889   7.692   3.846  0.2843 -0.3156  0.0450
32595W        W48064   2.310   3.638   2.331  0.1568  0.0039 -0.2010
32596W        W48065   7.034   7.488   0.391  0.1712  0.0605 -0.0544
32597W        W48066   7.837   0.800  13.183  0.1901 -0.2028  0.2416
32598W        W48067  10.386   5.299  15.892  0.2168  0.4090 -0.3590
32599W        W48068  11.772   8.726   3.394 -0.1364 -0.3683 -0.1679
32600W        W48069  17.383   4.163   3.612 -0.0750 -0.2780 -0.1154
32601W        W48070  12.413   0.649   1.584 -0.0700 -0.0148  0.1794
32602W        W48071  10.706   4.378   3.565 -0.3415 -0.0391 -0.1005
32603W        W48072   3.227  15.910  14.852  0.0937  0.3041  0.3173
32604W        W48073   6.796   8.222  13.254 -0.1283 -0.1143  0.2119
32605W        W48074  15.218   1.899   0.032  0.4346  0.3002  0.1594
32606W        W48075   3.389   3.548  15.564 -0.3160 -0.1945 -0.0227
32607W        W48076  16.149  18.389  15.177  0.0954 -0.1915 -0.3118
32608W        W48077  11.221  13.930  10.283 -0.0468 -0.0196  0.1901
32609W        W48078  10.971   1.318   3.186 -0.3143 -0.1809 -0.0574
32610W        W48079  11.606  12.571   1.494 -0.1975  0.0401 -0.4762
32611W        W48080   1.737   3.874  13.684  0.0869 -0.0818  0.1423
32612W        W48081  14.429   6.410  14.114 -0.1979  0.4375  0.1485
32613W        W48082  13.607   3.688   6.164  0.1720  0.0355 -0.0983
32614W        W48083   2.023  17.723  12.040  0.2410  0.0354 -0.1014
32615W        W48084  12.651   1.650   0.363 -0.0817 -0.2703  0.1859
32616W        W48085   8.763   1.619  15.887  0.2004  0.1195 -0.0184
32617W        W48086   7.385  16.275  12.373 -0.0152  0.2201 -0.2576
32618W        W48087   2.422  13.130  14.206  0.0217  0.1618 -0.0684
32619W        W48088  10.226  15.132  11.620  0.1856 -0.0774 -0.0213
32620W        W48089  16.770   2.025  12.166 -0.2181 -0.2047 -0.0342
32621W        W48090   6.008  17.752   5.055  0.0552 -0.2994 -0.1050
32622W        W48091  10.978  17.969  11.028  0.2566  0.1416  0.2100
32623W        W48092  10.779  14.349   0.276  0.0622 -0.4118 -0.0022
32624W        W48093  12.979   2.451  14.633 -0.0614  0.0559  0.0748
32625W        W48094  17.913   8.825  12.828 -0.1431  0.3626 -0.1004
32626W        W48095  13.034   6.973   3.861 -0.0299 -0.0478  0.1016
32627W        W48096   0.842  10.269   0.889  0.0099 -0.0371 -0.1618
32628W        W48097  17.174   6.420   5.847 -0.0003 -0.2042 -0.3067
32629W        W48098   1.326  17.313   0.425 -0.5195 -0.0067  0.0042
32630W        W48099  17.821   8.976   6.168 -0.0819 -0.4539  0.1787
32631W        W48100  13.580  16.926  15.357  0.0590  0.1692  0.3774
32632W        W48101  17.250   2.857  12.063 -0.1164  0.1057 -0.1114
32633W        W48102  13.835  13.982  13.225 -0.1597  0.2173  0.0314
32634W        W48103  14.326   4.795   5.360  0.0066  0.0694 -0.1160
32635W        W48104  16.484   0.095  14.122 -0.1389 -0.0546 -0.4260
32636W        W48105   4.312   3.529   4.526 -0.0633 -0.0204  0.1907
32637W        W48106  16.116   2.229  15.374 -0.0723  0.0310 -0.0323
32638W        W48107  17.623   7.959  14.224 -0.3101  0.1986  0.0289
32639W        W48108  12.476   5.195  15.143 -0.2488  0.0598  0.2791
32640W        W48109   8.478   3.357  12.135  0.3664  0.3634  0.4963
32641W        W48110  15.127   6.620  11.399 -0.4451  0.0304 -0.0809
32642W        W48111  12.260   5.604  13.853  0.3498  0.0235  0.2176
32643W        W48112   8.130   4.003  12.512 -0.2073 -0.4881 -0.0304
32644W        W48113   0.963   7.551  15.638  0.3571  0.2360 -0.0607
32645W        W48114   6.998   3.042  14.680  0.0151 -0.2748 -0.1738
32646W        W48115  17.851   9.792   2.690 -0.1348  0.1978 -0.0949
32647W        W48116   6.400   2.965  13.881 -0.0156  0.0127  0.2939
32648W        W48117   9.670  10.124   0.967 -0.3926 -0.0456 -0.1193
32649W        W48118  18.267   5.499   2.199 -0.1372 -0.1119 -0.0140
32650W        W48119  11.055   2.316  13.569  0.2560  0.2763 -0.0625
32651W        W48120  13.506   5.770  10.373 -0.0113 -0.1230  0.1098
32652W        W48121   3.275   3.038   2.538 -0.0251 -0.0578 -0.1484
32653W        W48122   5.144  13.686   0.801 -0.0858  0.0663  0.0525
32654W        W48123   7.588  17.152  12.302  0.3321  0.1506  0.0233
32655W        W48124   9.457  13.125  12.950 -0.0762  0.3343 -0.3468
32656W        W48125  13.470   7.734   3.687 -0.0615  0.0518  0.0366
32657W        W48126  13.726   5.228   5.128 -0.0437  0.5515 -0.1091
32658W        W48127   0.537   9.790  15.261  0.0558 -0.0455  0.2532
32659W        W48128   8.606   1.056   3.407  0.3118 -0.0570  0.2886
32660W        W48129  11.141   6.275   4.880 -0.1307  0.2695  0.1110
32661W        W48130   5.857   9.490   2.794 -0.1388 -0.0983 -0.0646
32662W        W48131   2.166  12.645   2.038  0.0662 -0.0337 -0.1617
32663W        W48132  13.693  11.563   4.164 -0.0241  0.0328 -0.0051
32664W        W48133  12.599   2.213   0.689 -0.0229 -0.3420 -0.0597
32665W        W48134  12.422   3.333   5.640 -0.1316 -0.0496 -0.1367
32666W        W48135   8.153   7.316   5.337  0.0158  0.1049 -0.1789
32667W        W48136  11.548   5.334   5.843  0.2172  0.0729 -0.3111
32668W        W48137  12.832  10.296   2.745  0.1217 -0.1097 -0.0563
32669W        W48138   3.197  15.759  12.894 -0.2171 -0.0349  0.1450
32670W        W48139   7.864   4.711   5.596  0.1104 -0.1692  0.2135
32671W        W48140   7.419   5.976  12.789  0.0033 -0.1231 -0.0468
32672W        W48141   2.536   9.200   1.140  0.3550  0.0843  0.2577
32673W        W48142  13.440  17.492   2.085  0.0398 -0.0989  0.1100
32674W        W48143   7.394  10.432  14.050 -0.1250  0.0769  0.0418
32675W        W48144  14.163  13.493  15.653  0.1177  0.0489 -0.0348
32676W        W48145  15.817  14.830  11.025 -0.0947 -0.1456  0.2041
32677W        W48146  12.373   5.915  10.355  0.1203  0.1032 -0.3219
32678W        W48147   3.359  10.410  14.657  0.1833 -0.1033 -0.1166
32679W        W48148   6.741  14.493   5.971 -0.2578 -0.1066  0.0813
32680W        W48149  15.670  12.801   4.322  0.1486 -0.1798 -0.1793
32681W        W48150   3.132  14.810   4.672  0.1969  0.2875 -0.0436
32682W        W48151   0.329   2.242  15.868 -0.1539 -0.0559  0.0054
32683W        W48152   4.740   0.959  11.939  0.1700  0.0857 -0.3185
32684W        W48153  12.314  17.220   4.306  0.1674 -0.1935 -0.2280
32685W        W48154   6.337  15.833  11.209 -0.1662 -0.1695 -0.1012
32686W        W48155  17.284  16.116  14.020 -0.5671  0.2418  0.2493
32687W        W48156  12.014  16.130  11.477 -0.5188 -0.0668  0.0566
32688W        W48157  10.875  16.895   1.442 -0.2547  0.1913  0.2929
32689W        W48158  17.565   8.113   0.186  0.1079 -0.0217  0.1217
32690W        W48159   1.378   5.300  12.762  0.0127 -0.0305 -0.1471
32691W        W48160   0.550  18.166  13.523 -0.1337  0.0672 -0.2939
32692W        W48161  13.838   3.480  11.596  0.1501  0.0284  0.0212
32693W        W48162  15.815   0.812  12.122 -0.0613 -0.3259 -0.1723
32694W        W48163   2.625  11.136  12.946 -0.0697 -0.1904 -0.0452
32695W        W48164  12.797   3.792  13.033  0.1073 -0.1237 -0.2804
32696W        W48165  16.006  11.568   3.543  0.2617 -0.0397  0.2036
32697W        W48166   6.917   2.361   3.714 -0.1011 -0.0423 -0.0546
32698W        W48167   7.273  17.922   2.966  0.1416 -0.4035  0.1113
32699W        W48168   7.175  11.347  15.419 -0.1267  0.1336  0.0357
32700W        W48169   3.732   3.768   4.443  0.0761  0.0258  0.2058
32701W        W48170  13.772   8.169  11.354 -0.1677 -0.2038 -0.1404
32702W        W48171   7.984  14.888  11.358 -0.0087  0.2348 -0.1167
32703W        W48172  14.974  17.432   0.288 -0.1176  0.3594  0.3696
32704W        W48173   8.840   5.323  12.179 -0.0299  0.0266 -0.2010
32705W        W48174  13.713   5.318   0.468  0.1355  0.0956 -0.0268
32706W        W48175  14.551  14.303   2.484  0.3670 -0.5116 -0.0291
32707W        W48176   8.966   9.071   1.390  0.1417 -0.0357 -0.0702
32708W        W48177   3.751  10.300  13.691  0.1916 -0.2206  0.3410
32709W        W48178   6.488  12.353  10.527  0.0472  0.0204  0.2697
32710W        W48179  15.207   1.311   2.823  0.1213 -0.2455  0.1569
32711W        W48180  15.191  11.832   4.248 -0.1354  0.1491  0.3609
32712W        W48181   6.971  14.420  14.125  0.1603 -0.0748 -0.1579
32713W        W48182  10.526   4.681   2.153  0.0492  0.4076 -0.1668
32714W        W48183   6.775   7.208   0.032  0.1442 -0.1105  0.0470
32715W        W48184   6.415  11.675   0.120  0.3796 -0.0025 -0.0999
32716W        W48185  11.664   0.529   2.019  0.1287  0.1870  0.1874
32717W        W48186  10.602   2.652   4.766 -0.1345 -0.0942  0.2244
32718W        W48187  11.063   1.687  12.987  0.1254 -0.5423 -0.2766
32719W        W48188  12.717   1.708  12.031  0.0193  0.2429 -0.3829
32720W        W48189   5.101  15.796   2.370  0.2573 -0.1304  0.1587
32721W        W48190   7.318  15.236  11.709  0.1554 -0.0567  0.2215
32722W        W48191   6.892   6.112   0.515  0.0348  0.1442  0.1565
32723W        W48192   5.915   1.208   0.276 -0.1860  0.0278 -0.0436
32724W        W48193  16.455  14.077  11.180 -0.0516  0.1134  0.3367
32725W        W48194   7.256  15.821  15.012 -0.2243  0.1376  0.1128
32726W        W48195   8.242  17.062   2.766  0.1252 -0.0095  0.2871
32727W        W48196   8.796   6.331   5.304 -0.2046  0.0113  0.0150
32728W        W48197   5.317   4.787   1.586  0.1906  0.1897 -0.0649
32729W        W48198  16.782   3.382   5.013  0.0855 -0.3135 -0.4201
32730W        W48199   4.138  10.555   4.074 -0.0468 -0.1264 -0.0086
32731W        W48200  13.435  17.078   0.265 -0.0360 -0.1357  0.0727
32732W        W48201   0.355  15.288   0.535 -0.0631 -0.2658  0.2481
32733W        W48202   4.177   1.713  13.429 -0.0581  0.0633  0.0991
32734W        W48203  10.143  10.306   0.120  0.0320  0.2402  0.0216
32735W        W48204   8.719  15.526   4.937 -0.0901 -0.4093 -0.0140
32736W        W48205   3.740  11.410   1.879 -0.1514 -0.2189 -0.1048
32737W        W48206  11.031  18.408  10.798  0.1642  0.1236 -0.1865
32738W        W48207   4.383   9.523  14.579 -0.2055 -0.1546  0.2135
32739W        W48208  11.832   6.790  15.256 -0.5001 -0.0672  0.0663
32740W        W48209   9.165   7.967  14.905 -0.0647 -0.0481  0.1042
32741W        W48210   0.974   1.305   4.181 -0.0379  0.0789  0.0088
32742W        W48211  10.377  10.122  10.741  0.2546 -0.0828  0.3017
32743W        W48212  15.067  14.024   0.917 -0.0457 -0.0500  0.3049
32744W        W48213   8.276   9.202   2.999 -0.0510  0.0260 -0.0967
32745W        W48214  10.858   4.720   0.616 -0.0284 -0.2407  0.1889
32746W        W48215  15.927  17.394   5.276 -0.2907 -0.0554  0.0993
32747W        W48216   3.473  10.972  12.479  0.0057 -0.1670  0.2333
32748W        W48217   4.866  15.694   0.359  0.3300 -0.0012  0.0348
32749W        W48218   6.290  13.588  15.719 -0.2191 -0.2734  0.2071
32750W        W48219   9.209  11.914  14.277  0.1288 -0.0476  0.2249
32751W        W48220  12.789   3.876   0.580  0.0582 -0.1094 -0.1781
32752W        W48221  17.427  17.456  14.031  0.0616  0.2375 -0.1343
32753W        W48222   0.362  14.845   5.151 -0.0562 -0.2527 -0.1634
32754W        W48223   0.406   8.957  13.117 -0.0227  0.0070 -0.0924
32755W        W48224  10.608  13.282   1.188 -0.0920 -0.0451  0.4349
32756W        W48225  16.350  18.242  13.019  0.0048  0.0633  0.4071
32757W        W48226   5.182   3.951  15.043 -0.0066  0.1548  0.4924
32758W        W48227  12.988  16.796  15.010 -0.0988  0.1823 -0.4407
32759W        W48228   0.930  17.259  13.574  0.2491 -0.2383 -0.0937
32760W        W48229  13.776   3.325   3.120 -0.0742 -0.1234 -0.0071
32761W        W48230  16.892  10.325  11.985 -0.3784 -0.0077 -0.2950
32762W        W48231   3.889   4.411   1.415 -0.0762  0.0163  0.2585
32763W        W48232   6.801   6.967  12.788 -0.0452 -0.0200 -0.0432
32764W        W48233  17.837  10.300   0.674 -0.4793 -0.2522  0.4182
32765W        W48234   1.736   1.286   5.761  0.2769  0.0181 -0.2550
32766W        W48235  11.662   3.473  13.698  0.0829  0.2988 -0.2304
32767W        W48236   3.776   0.181   4.112  0.0183  0.1087 -0.0745
32768W        W48237   7.649  10.694   1.887  0.0423 -0.0382 -0.2166
32769W        W48238  17.296  10.266   5.315 -0.0114  0.1479  0.0306
32770W        W48239   4.513   4.735  13.005  0.0832  0.3391  0.2340
32771W        W48240  17.536   4.843   0.946  0.0344  0.0181  0.0507
32772W        W48241  15.046   9.534   0.992 -0.2630 -0.2550 -0.1580
32773W        W48242  18.124   3.653   3.272 -0.2714 -0.0433 -0.2714
32774W        W48243  12.440  15.152  15.783 -0.2431  0.1364 -0.1398
32775W        W48244   9.203   2.666   0.295 -0.2311 -0.2764  0.0117
32776W        W48245  18.213  14.995  12.071 -0.4104  0.1995  0.0504
32777W        W48246   7.278   3.169  15.983  0.0340 -0.2042  0.0028
32778W        W48247   4.087  17.955  14.566  0.0553 -0.4440  0.1256
32779W        W48248  13.581  15.690   3.357 -0.0925  0.0209 -0.0510
32780W        W48249   2.664  11.548   0.852 -0.4271 -0.2260 -0.0415
32781W        W48250  17.206  14.339  10.711  0.1760  0.1921  0.2185
32782W        W48251  17.242  15.794  12.799  0.2174  0.0027 -0.0123
32783W        W48252   7.386  14.366  15.387  0.0839  0.3758  0.0439
32784W        W48253   9.521   3.269  13.157  0.0338  0.0825  0.1825
32785W        W48254  13.845  13.268   5.410  0.0985  0.0512 -0.1192
32786W        W48255   6.439  14.855   0.226  0.1544  0.2273 -0.1213
32787W        W48256   8.434   5.429  13.498  0.2094  0.2300  0.2452
32788W        W48257  16.719  10.316  13.564  0.2592  0.2241 -0.0127
32789W        W48258  13.204  14.608   2.185  0.1165 -0.0696 -0.0315
32790W        W48259   0.445   1.556  12.876 -0.1421 -0.0002  0.1036
32791W        W48260  12.384  10.231  15.438  0.0209 -0.0804 -0.0176
32792W        W48261  10.991   9.208  12.858 -0.1237  0.0471  0.0564
32793W        W48262  14.563   8.658   0.287  0.0384  0.2041  0.1580
32794W        W48263   1.450   7.598  15.904 -0.5321  0.0173  0.2396
32795W        W48264  14.837  14.175   4.757 -0.1988 -0.1116  0.1161
32796W        W48265   6.583   7.265  14.315 -0.1188  0.1673 -0.1920
32797W        W48266  17.267   5.758   4.564 -0.0737  0.0513 -0.2825
32798W        W48267   0.583  16.697  11.781 -0.0772  0.1772  0.0333
32799W        W48268   4.870   8.376  15.152  0.0405 -0.0902 -0.1165
32800W        W48269  13.724   3.723   0.858 -0.1256  0.0199  0.2566
32801W        W48270   2.460   4.606   3.959  0.2722 -0.2910 -0.0736
32802W        W48271   7.346  18.209   3.764 -0.0048  0.2259 -0.0320
32803W        W48272  10.213   4.891  11.723  0.0280  0.0851 -0.0120
32804W        W48273  17.335   3.810  14.228  0.0040  0.1133  0.4451
32805W        W48274  11.462  10.571   0.689  0.3572 -0.1384  0.2222
32806W        W48275   5.826  15.508   4.891 -0.1398 -0.1169 -0.2455
32807W        W48276  16.345  14.359   0.936  0.0057 -0.0038  0.1353
32808W        W48277   4.851  16.353  15.656 -0.1545  0.3247 -0.0711
32809W        W48278   7.577   8.205   6.055 -0.0108 -0.1666 -0.1674
32810W        W48279  16.343  11.461  12.758  0.0715  0.0060  0.3476
32811W        W48280  11.227   1.933   5.096  0.0832 -0.2735 -0.1438
32812W        W48281  13.897   8.279  13.673 -0.3703  0.2184  0.2650
32813W        W48282  18.258  17.669   5.306  0.1869 -0.2021 -0.4881
32814W        W48283  11.778  18.182   0.516 -0.1188 -0.0654  0.4613
32815W        W48284  13.502  16.261  12.616  0.0985  0.1165 -0.0771
32816W        W48285  12.703   5.098   3.728  0.1769 -0.2900 -0.0746
32817W        W48286   9.802  10.090   1.477 -0.3661  0.2390  0.1663
32818W        W48287   9.553   1.117   0.103  0.1145 -0.3231 -0.0066
32819W        W48288   9.171  12.512  11.679  0.2607  0.1574 -0.2751
32820W        W48289   0.190   7.367  15.238  0.1356 -0.0019  0.1182
32821W        W48290   1.372   0.610  10.311  0.2970 -0.3459 -0.0382
32822W        W48291  13.855   4.047   2.495  0.5497  0.3075  0.1233
32823W        W48292  15.236  14.423   0.064  0.3209 -0.2550 -0.1508
32824W        W48293  17.425  12.233   6.083  0.0561  0.1764 -0.0083
32825W        W48294   8.404   4.166  11.199 -0.0663  0.1352 -0.0298
32826W        W48295  13.246  17.457  12.329 -0.4119  0.0820 -0.3114
32827W        W48296   9.398  11.751  15.940 -0.0047  0.3188  0.0909
32828W        W48297   4.526   3.382   2.836 -0.2250 -0.0508 -0.2634
32829W        W48298   4.951  10.242   3.801  0.0842 -0.0346  0.1571
32830W        W48299  14.667  13.514   0.415 -0.1248  0.1108  0.2549
32831W        W48300  12.509   4.376   0.735 -0.0324 -0.0216  0.2525
32832W        W48301  12.928   7.041  14.818  0.3711  0.0276  0.0969
32833W        W48302  18.065   2.682  11.584 -0.0615 -0.1631 -0.1015
32834W        W48303   9.597   1.028  13.145  0.1202 -0.0907 -0.0143
32835W        W48304  12.465  17.876  14.401 -0.0060  0.1086  0.0862
32836W        W48305   7.959   9.369   4.821 -0.3553  0.0361 -0.1582
32837W        W48306   9.794   9.645   1.153 -0.3581 -0.2493 -0.0217
32838W        W48307  10.764   2.045   2.725  0.0016 -0.0162 -0.4186
32839W        W48308  14.247  13.189   2.092  0.1915 -0.1703  0.2597
32840W        W48309   4.957   8.209  14.722 -0.1764  0.0465 -0.0718
32841W        W48310   6.523   3.408  10.617  0.1647 -0.1921  0.0928
32842W        W48311  14.812  14.859   0.781 -0.0281 -0.2415 -0.1503
32843W        W48312  16.032  17.968   3.012 -0.0817  0.3639  0.0339
32844W        W48313  18.442   9.680  14.435  0.0749 -0.0884 -0.0221
32845W        W48314  13.666   5.763  13.424 -0.0693  0.2110  0.1159
32846W        W48315  14.505  17.321  10.372  0.5168 -0.6287 -0.1730
32847W        W48316  14.024   5.718  15.696 -0.2393 -0.0566  0.0365
32848W        W48317   8.705  17.625   4.572  0.0480 -0.0829  0.2580
32849W        W48318   6.307   6.737  13.188  0.1918 -0.1723  0.0192
32850W        W48319  13.629  15.292  11.017 -0.0722 -0.0211 -0.0142
32851W        W48320  14.559  14.864   1.689 -0.0785 -0.2676  0.2957
32852W        W48321   8.956   8.432  11.672  0.4804 -0.1294 -0.0550
32853W        W48322  15.518   4.686  12.927 -0.1198  0.1912 -0.1901
32854W        W48323  16.850   2.536  14.826 -0.2165  0.0775  0.0421
32855W        W48324  15.122  10.633  11.785  0.1760  0.3702  0.0062
32856W        W48325   7.796  11.486   1.571  0.2444 -0.4332 -0.6090
32857W        W48326   5.190   6.432  13.359  0.2127 -0.0705 -0.3591
32858W        W48327   9.299   4.355  13.852 -0.2106 -0.1102  0.0903
32859W        W48328   6.670   1.238  14.311  0.2740 -0.0023  0.0799
32860W        W48329   1.180   6.948   1.742 -0.0643 -0.3268  0.0641
32861W        W48330  17.211  10.956   3.127 -0.0984  0.0774  0.4754
32862W        W48331   5.373  10.854   0.890 -0.2537 -0.0972 -0.1352
32863W        W48332   1.626   4.453   2.312 -0.0281  0.1176 -0.0798
32864W        W48333  17.807  15.262  11.476  0.0491 -0.4459 -0.0045
32865W        W48334  17.149  13.187   3.049  0.2367  0.0296 -0.3272
32866W        W48335   1.120   0.156   3.446 -0.1003  0.2279  0.4178
32867W        W48336   8.367   6.271  13.259  0.1247 -0.2285 -0.3120
32868W        W48337  16.811  12.290  13.247  0.0203  0.0731  0.2974
32869W        W48338   3.351   3.589   0.974 -0.2784 -0.1156 -0.0390
32870W        W48339   8.858   2.125   2.676  0.1576 -0.1526 -0.0041
32871W        W48340   2.873   1.161   4.700  0.1750 -0.1476 -0.0715
32872W        W48341  14.914  16.093  15.960  0.1036  0.1018  0.1152
32873W        W48342   3.825   7.599   2.998  0.2231  0.0679  0.0102
32874W        W48343  18.351   8.150   5.223  0.1733 -0.2477 -0.1159
32875W        W48344  17.548  17.843  12.646 -0.1047 -0.0221 -0.0027
32876W        W48345   7.243  14.456  12.042  0.2639  0.1994  0.2120
32877W        W48346  15.899  10.523  12.420  0.1646 -0.0253  0.3091
32878W        W48347   3.129   4.231   3.141 -0.0223 -0.2302 -0.2558
32879W        W48348  17.231  17.524  10.511  0.0850  0.3484  0.1833
32880W        W48349  18.405  11.759   5.176  0.0369  0.2372 -0.3170
32881W        W48350   4.162   1.868   2.439  0.1941 -0.3685  0.2333
32882W        W48351  13.323  17.392   3.429  0.2971 -0.1446  0.2640
32883W        W48352  13.244   9.166   3.263  0.1635 -0.0430 -0.2721
32884W        W48353   2.023   2.940  15.853 -0.2908 -0.1091 -0.0647
32885W        W48354  14.314  12.801   3.639 -0.1028 -0.0120  0.0279
32886W        W48355  10.430   2.117  15.131 -0.0884 -0.3550  0.1442
32887W        W48356  10.960  15.658   4.800 -0.1200  0.2711 -0.0677
32888W        W48357  10.851  10.427   2.492 -0.1930 -0.0572 -0.2023
32889W        W48358  17.975  15.791   4.305 -0.2177  0.1621 -0.1953
32890W        W48359   7.654   1.219   2.272 -0.3150  0.0002 -0.2388
32891W        W48360   6.526  10.994   2.820 -0.0322  0.0843  0.0969
32892W        W48361  17.107  13.801   2.710  0.0127  0.2638 -0.4608
32893W        W48362   3.759   4.542  15.980  0.3860  0.3246 -0.0677
32894W        W48363   0.854  16.705   4.913 -0.0416 -0.1071 -0.0095
32895W        W48364  10.433   7.512  14.758  0.0802 -0.1262 -0.0204
32896W        W48365   4.205   1.186   2.406  0.4070 -0.3424 -0.0020
32897W        W48366   2.747   1.874  15.264 -0.1368 -0.1403 -0.1572
32898W        W48367   7.960   0.745  15.144  0.1016 -0.2271  0.2563
32899W        W48368   1.702   5.834  14.452  0.1967 -0.1694 -0.0205
32900ION     NA48369  12.059   4.784   4.537  0.1167  0.1391 -0.0120
32901ION     NA48370   0.846   8.257  13.464 -0.0705 -0.1041  0.0404
32902ION     NA48371   0.848   8.797  10.250  0.1004  0.1115  0.1984
32903ION     NA48372   7.284  15.110  14.961  0.0442 -0.1224  0.1245
32904ION     NA48373   7.568   1.443  10.043 -0.0531 -0.5137 -0.1492
32905ION     NA48374   4.526  15.192  10.341 -0.1957 -0.1231 -0.5198
32906ION     NA48375  10.950   1.389  10.378 -0.0545  0.1624  0.2552
32907ION     NA48376  10.558   4.001  11.692 -0.0043  0.0915  0.0132
32908ION     NA48377   5.243   3.351  10.197 -0.0662  0.0190 -0.3033
32909ION     NA48378   9.470  16.468   3.092  0.0076  0.1277 -0.1129
32910ION     NA48379  12.109   2.913  10.527 -0.0461  0.2117 -0.3356
32911ION     NA48380  11.269  17.898  12.409 -0.0182 -0.0111  0.1821
32912ION     NA48381  15.797   5.327   6.254 -0.1784 -0.2597  0.0921
32913ION     NA48382  12.528  14.332   5.556 -0.0982  0.0231  0.0123
32914ION     NA48383   4.009  15.955  10.222  0.2874  0.2441 -0.2549
32915ION     NA48384  13.345   9.705  10.542  0.0895 -0.0270  0.0055
32916ION     NA48385   0.325  11.985  11.503  0.0276  0.1107  0.1621
32917ION     NA48386   6.121  15.271  11.591 -0.4567 -0.0023  0.0859
32918ION     NA48387  15.086   6.029  10.661 -0.0435 -0.1167  0.0544
32919ION     NA48388  10.073   1.340   0.159 -0.0308  0.0953  0.2078
32920ION     NA48389   9.571  16.611   5.461  0.1189 -0.0787  0.2249
32921ION     NA48390  11.192  13.497  11.219  0.0542  0.0919  0.1959
32922ION     NA48391   4.667   8.787  10.494 -0.0075 -0.0782 -0.3343
32923ION     NA48392   8.415  10.777  10.264  0.0831  0.2326 -0.0771
32924ION     NA48393   2.017   5.431  10.573 -0.1091 -0.2423  0.1314
32925ION     NA48394  15.753   6.416  10.597  0.0543 -0.3145 -0.0390
32926ION     NA48395   7.786  18.368   5.522 -0.1963  0.0312  0.0097
32927ION     NA48396   7.944   0.639   9.812 -0.1669 -0.3117  0.3303
32928ION     NA48397   1.668  14.543   1.888  0.1091 -0.0098 -0.0680
32929ION     NA48398   0.850  11.817  10.256  0.3150  0.1289 -0.0314
32930ION     NA48399  12.751  10.476   2.223  0.1505 -0.0612 -0.0152
32931ION     NA48400   3.430   5.138  10.359 -0.0582 -0.2058  0.4154
32932ION     NA48401   3.305  13.218  10.115  0.0144  0.2516 -0.0673
32933ION     NA48402  10.396  16.830   0.147 -0.0821  0.0256  0.0340
32934ION     NA48403   7.004  12.745   5.603 -0.1567 -0.0313  0.0537
32935ION     NA48404  17.123   6.737  15.053 -0.0542  0.1155 -0.0968
32936ION     NA48405   1.278  17.477   0.953  0.4366 -0.0308  0.0004
32937ION     NA48406  11.651  10.797   2.905 -0.4142 -0.2120  0.1072
32938ION     NA48407   0.425   2.712  15.649  0.0600  0.1516  0.0260
32939ION     NA48408  17.877   8.442  14.628 -0.2359  0.1182 -0.0486
32940ION     NA48409  10.665   6.743   9.961 -0.2457 -0.1175 -0.2591
32941ION     NA48410  14.831  14.551  10.045 -0.0180  0.0019  0.2641
32942ION     NA48411  12.042   3.582   4.265  0.0691  0.1099  0.0605
32943ION     NA48412  10.891   5.870  10.155 -0.0127 -0.1608  0.0706
32944ION     NA48413   7.299  10.205  15.664 -0.1049  0.0381  0.0315
32945ION     NA48414  15.136  17.719  15.419 -0.1939 -0.1471  0.3089
32946ION     NA48415  15.235  16.300   9.885 -0.2101  0.0297 -0.4414
32947ION     NA48416  10.914  11.633   9.835  0.1028 -0.0504 -0.2974
32948ION     NA48417  16.618   7.260  12.970  0.2642 -0.1807  0.0651
32949ION     NA48418   3.773  14.050   9.998 -0.0403 -0.1904  0.0725
32950ION     NA48419  12.001  16.647  10.200  0.1910 -0.2007 -0.0427
32951ION     NA48420   9.538   2.811   5.928  0.0383  0.0738 -0.2839
32952ION     NA48421   8.401  10.279  10.242  0.2140 -0.0135  0.1054
32953ION     NA48422   2.847   8.618   4.322  0.0292  0.0098 -0.1161
32954ION     NA48423  14.858   6.957  10.488 -0.2032 -0.0697  0.1247
32955ION     NA48424  10.671  11.466   5.506  0.3226  0.0125 -0.0604
32956ION     NA48425   3.673  16.880  10.557  0.3053  0.0184 -0.0049
32957ION     NA48426   6.857   2.658  10.121 -0.2417 -0.2466  0.2491
32958ION     NA48427   9.848   0.693  10.069  0.3160 -0.2839 -0.2096
32959ION     NA48428   9.259   8.786  14.986 -0.4204  0.1025 -0.2284
32960ION     NA48429   3.890   4.690   5.409 -0.0052 -0.1091 -0.1577
32961ION     NA48430   3.835  12.422  10.246  0.1788  0.2836 -0.0900
32962ION     NA48431   8.274  11.753   1.025 -0.2928 -0.4303  0.2379
32963ION     NA48432   6.329  15.587   9.476 -0.2503  0.3766 -0.0581
32964ION     NA48433  15.593   9.431   9.997  0.3200  0.0072  0.2783
32965ION     NA48434   4.392   4.888  10.857  0.1684 -0.0776 -0.0912
32966ION     NA48435  16.925  12.267  12.280 -0.0324  0.1104  0.0285
32967ION     NA48436  15.488  16.858   9.876 -0.0608 -0.2132 -0.0277
32968ION     NA48437  16.951   6.233  10.544 -0.1453 -0.0615  0.0861
32969ION     NA48438   7.525  13.529   4.595  0.1296 -0.2163 -0.1846
32970ION     NA48439  11.080   5.777  10.620  0.3513 -0.2158  0.2123
32971ION     NA48440   6.113   7.532   6.072 -0.1077  0.0195 -0.1087
32972ION     NA48441   0.449   7.304  10.437  0.0748 -0.2290  0.0844
32973ION     NA48442   6.046  14.808   9.965 -0.1124  0.2268 -0.2804
32974ION     NA48443   8.012   7.475  10.518 -0.0160 -0.2531 -0.0799
32975ION     NA48444   9.058   9.705   5.354  0.4212 -0.0365  0.0643
32976ION     NA48445   5.098  14.478  10.014 -0.3391  0.0561 -0.1007
32977ION     NA48446  16.004  16.067   9.801 -0.1802  0.0913 -0.5335
32978ION     NA48447  14.641  14.379   1.556 -0.1183  0.0048  0.0212
32979ION     NA48448  14.262   4.904   3.461  0.1642  0.0702 -0.1942
32980ION     NA48449   6.110  12.949   9.972 -0.3257 -0.1200 -0.8098
32981ION     NA48450  17.073   1.164  10.323 -0.1311 -0.3701  0.1554
32982ION     NA48451   2.256   3.087  10.431  0.0164  0.1856 -0.0155
32983ION     NA48452   6.466   2.177   5.635  0.2653 -0.0937  0.1448
32984ION     NA48453  11.658   0.654  10.379  0.0675  0.1860 -0.1726
32985ION     NA48454   2.729  12.770   3.372  0.2358 -0.2902 -0.1188
32986ION     NA48455   9.948   6.448  10.142 -0.1863 -0.4626 -0.1885
32987ION     NA48456   7.570   3.570  10.355 -0.0722  0.1776  0.1314
32988ION     NA48457   5.675  16.127  14.905  0.1604  0.0153  0.1671
32989ION     NA48458  13.608   1.474   6.106 -0.4189 -0.1995  0.1893
32990ION     NA48459  10.828   0.221   3.164 -0.3307 -0.0322 -0.1703
32991ION     NA48460  14.527  16.947  10.066  0.0194  0.0925 -0.0789
32992ION     NA48461   7.133   7.950   6.343  0.0599  0.0205 -0.2784
32993ION     NA48462  14.240  16.860   5.519 -0.2331  0.2832 -0.2122
32994ION     NA48463  11.768   8.016   5.030  0.0005  0.1091 -0.1487
32995ION     NA48464  12.394   6.812  10.185 -0.1346  0.1469  0.2854
32996ION     NA48465  16.669   5.726   6.463  0.0531  0.0249 -0.0297
32997ION     NA48466   9.926   4.894  10.291  0.1285 -0.0528  0.3286
32998ION     NA48467  11.289   4.015   6.043 -0.2291  0.4116  0.0308
32999ION     NA48468   5.178   7.440  10.451 -0.0969  0.2071  0.1241
33000ION     NA48469  10.743  15.836   9.875  0.3760 -0.0696 -0.2633
33001ION     NA48470   9.933  15.633   9.834  0.0360 -0.0250 -0.2724
33002ION     NA48471  10.478  16.928   9.883  0.0661 -0.3657 -0.1259
33003ION     NA48472   0.469   0.991   2.318 -0.2121 -0.1795 -0.1233
33004ION     NA48473  15.847  15.894  13.070  0.1266  0.1597  0.3349
33005ION     NA48474  15.626   3.778   5.994 -0.0494  0.2728  0.0973
33006ION     NA48475  18.429   6.466   5.762 -0.1523  0.1882  0.0523
33007ION     NA48476   7.246   3.528   9.924 -0.0186  0.1143 -0.0601
33008ION     NA48477   3.582  11.564  10.102  0.1253  0.1672 -0.2552
33009ION     NA48478  14.272   6.390  10.345  0.1681  0.0832 -0.1741
33010ION     NA48479  17.699   9.045  11.735  0.3682  0.0206  0.3053
33011ION     NA48480   8.409   8.614   5.871 -0.0047  0.3533  0.0130
33012ION     NA48481   9.975  14.596   4.902  0.0165  0.1681  0.1213
33013ION     NA48482   9.089  12.604  10.479  0.2550  0.0412 -0.0765
33014ION     NA48483  13.961  11.792  10.024 -0.2254 -0.2490  0.0078
33015ION     NA48484  16.186   8.200   6.231  0.1213 -0.1763  0.1689
33016ION     NA48485  11.841  18.459   3.345 -0.0069 -0.0647  0.1375
33017ION     NA48486  14.298   1.607   5.396 -0.2522 -0.0621  0.0597
33018ION     NA48487   5.287  11.665   1.497  0.2552 -0.2347 -0.1114
33019ION     NA48488  12.852   6.079   6.113 -0.0611 -0.1116 -0.1629
33020ION     NA48489  11.860   9.607   3.044  0.2608 -0.0868 -0.0900
33021ION     NA48490  10.301   5.826  10.175 -0.0463  0.0296  0.0938
33022ION     NA48491   7.392  15.796   9.711 -0.3137  0.2000  0.0861
33023ION     NA48492  12.024  12.422   5.385  0.0428  0.2229  0.0353
33024ION     NA48493  16.548  12.747   4.142  0.1089 -0.1378  0.0237
33025ION     NA48494  15.855   4.882   0.420  0.2819  0.0094 -0.1392
33026ION     NA48495   1.955  13.373  10.364  0.2289 -0.2490 -0.0159
33027ION     NA48496   2.676  17.854  11.076  0.0604 -0.2483 -0.0895
33028ION     NA48497  17.920  18.451   5.168  0.0801  0.1696  0.2002
33029ION     NA48498   7.034  18.285   9.652  0.0006 -0.0237  0.3053
33030ION     NA48499   7.772  11.035  10.420 -0.1280  0.1790  0.0329
33031ION     NA48500   7.045  13.689   1.943 -0.0641  0.2693 -0.3006
33032ION     NA48501   7.291   1.096   5.581 -0.0586  0.0346  0.0699
33033ION     NA48502  11.397   1.642  10.512 -0.1357 -0.3251 -0.4123
33034ION     NA48503  16.833  14.297   9.918 -0.0471  0.0409  0.0004
33035ION     NA48504  11.937   3.270  10.192  0.0326 -0.0642  0.2196
33036ION     NA48505  17.749   4.055   1.274 -0.2544  0.0076  0.2563
33037ION     NA48506   0.504  15.651   1.726 -0.1360 -0.0789  0.4192
33038ION     NA48507   8.484   4.197  10.191 -0.0430  0.0497  0.0288
33039ION     NA48508   7.679   4.792  10.088 -0.0501  0.1661  0.0681
33040ION     NA48509   3.357   0.763   2.431 -0.2771 -0.0770  0.0692
33041ION     NA48510  13.539  16.609   0.194  0.1153 -0.4148  0.0909
33042ION     NA48511  14.339   4.372  10.799  0.1363  0.1632 -0.0577
33043ION     NA48512   8.885   7.205  12.545 -0.0889 -0.0475 -0.3107
33044ION     NA48513  11.877  15.800   4.405  0.3048  0.1205  0.1064
33045ION     NA48514   4.281   5.156   6.194 -0.0743  0.2328 -0.0052
33046ION     NA48515  12.887  12.468   5.330 -0.0995  0.2961 -0.2011
33047ION     NA48516  10.612  11.839  12.685  0.0737 -0.1127 -0.2761
33048ION     NA48517   3.839   6.065  15.643 -0.1644 -0.1398  0.0123
33049ION     NA48518   0.634   3.043  10.527  0.3388  0.2140  0.0383
33050ION     NA48519  16.818  18.085  10.241 -0.1539 -0.1071 -0.0231
33051ION     NA48520  17.620  15.168   5.490  0.1981  0.0444  0.1471
33052ION     NA48521  16.784   3.583  11.749  0.4621  0.0000  0.0062
33053ION     NA48522   3.137   9.077  10.342  0.1920 -0.1150 -0.2122
33054ION     NA48523   7.596  11.863   9.874  0.0197 -0.0257  0.4394
33055ION     NA48524  16.142  14.165   2.667 -0.0432  0.1006 -0.2610
33056ION     NA48525   7.235  16.858   5.386 -0.0249  0.0279 -0.1350
33057ION     NA48526  10.571   2.710  11.847  0.1363  0.1109  0.1189
33058ION     NA48527   9.299   4.222  10.276  0.2545 -0.0710 -0.0074
33059ION     NA48528   7.315  13.188   9.893 -0.1427 -0.1262  0.1440
33060ION     NA48529   2.379   3.735  10.356  0.1995  0.2644  0.2232
33061ION     NA48530   1.506   0.690  11.661 -0.1077  0.5308 -0.0039
33062ION     NA48531  11.468  17.756   3.865  0.0287  0.0145 -0.0770
33063ION     NA48532  14.835   5.096  11.746  0.3941 -0.1623 -0.0806
33064ION     NA48533  13.979   7.352  10.395 -0.2460 -0.4248  0.0176
33065ION     NA48534   3.215  12.365  10.210  0.1924 -0.0677  0.0370
33066ION     NA48535  14.208   3.239  10.700 -0.2722  0.0115  0.2072
33067ION     NA48536  16.376  12.614   5.703 -0.2147 -0.0718 -0.0235
33068ION     NA48537  15.190   6.704   6.213 -0.3819  0.1180  0.2485
33069ION     NA48538  18.294   7.445   6.127 -0.0094 -0.0601 -0.0451
33070ION     NA48539   5.739   5.656  10.203 -0.0195  0.2200  0.1457
33071ION     NA48540   7.241   6.757  15.954  0.1747 -0.0325 -0.0098
33072ION     NA48541  10.115  14.509   9.472  0.1576  0.1561 -0.0781
33073ION     NA48542   0.211  12.619   9.985 -0.1133  0.1164  0.2272
33074ION     NA48543  15.107   2.595  10.332 -0.2554  0.0304  0.0975
33075ION     NA48544  16.565   9.327  10.339  0.1625 -0.1711 -0.0287
33076ION     NA48545  10.917   1.571  15.900  0.0152 -0.1237  0.0543
33077ION     NA48546  17.767  18.368  10.315  0.0589 -0.1101 -0.1965
33078ION     NA48547  17.177  11.515  10.241  0.1653 -0.3704  0.0996
33079ION     NA48548  13.016  14.904  11.831  0.2201  0.0777  0.1976
33080ION     NA48549   8.630  14.260   9.669 -0.4393  0.1537  0.1760
33081ION     NA48550   6.201   9.771  10.432  0.2433 -0.1673 -0.3821
33082ION     NA48551  11.123  13.892  14.924 -0.1761  0.0758 -0.0998
33083ION     NA48552   2.929   7.332  12.625  0.1742 -0.1075  0.0533
33084ION     NA48553   2.143  13.123   5.642  0.1546  0.0460 -0.1031
33085ION     NA48554   5.126  11.145  10.114  0.1218  0.0068 -0.1088
33086ION     NA48555   0.900   4.956  10.770  0.2927 -0.1370 -0.1424
33087ION     NA48556   6.096   7.290  10.474 -0.2081  0.1343  0.3159
33088ION     NA48557  15.290   8.742   9.984 -0.0832 -0.3055 -0.0578
33089ION     NA48558  16.903  11.672  10.627 -0.1403 -0.2071  0.0587
33090ION     NA48559   6.765   4.446  10.169 -0.1038 -0.1633 -0.1875
33091ION     NA48560  17.123   0.349  10.776  0.0396 -0.4854 -0.1403
33092ION     NA48561  10.179   1.328  10.238 -0.3741  0.2460 -0.0794
33093ION     NA48562   7.282   8.932  10.732 -0.2140 -0.2099 -0.0065
33094ION     NA48563  17.639   6.367  11.047  0.2728 -0.0211  0.0451
33095ION     NA48564  11.882   6.199   2.532  0.1389  0.0094 -0.1612
33096ION     NA48565   1.918  11.802  10.258 -0.1731 -0.3616 -0.0951
33097ION     NA48566   6.729  11.644   4.478  0.2394  0.0547 -0.1283
33098ION     NA48567  14.984   2.107  10.375 -0.1150  0.1346 -0.1229
33099ION     NA48568   0.259  18.395   5.677  0.0433 -0.1419 -0.1903
33100ION     NA48569  12.943   7.591   9.997 -0.1564  0.4616 -0.1241
33101ION     NA48570   4.003   2.762  10.035  0.2328 -0.1171 -0.1247
33102ION     NA48571   3.870   0.155  10.082 -0.1138  0.3812 -0.0896
33103ION     NA48572   4.842   1.621   9.962  0.1365 -0.0703 -0.2998
33104ION     NA48573  13.726   5.345  10.407 -0.1144  0.2792  0.1082
33105ION     NA48574  10.444  11.385   9.928 -0.0514 -0.1531  0.2659
33106ION     NA48575  15.373   0.586  10.178  0.0296  0.0329 -0.1647
33107ION     NA48576   4.090  14.897   5.601  0.2252 -0.4213 -0.2121
33108ION     NA48577   2.537  13.105   1.304  0.2343 -0.1440 -0.1581
33109ION     NA48578   2.987  13.827   5.974 -0.0319  0.2109  0.1695
33110ION     NA48579   4.346  16.319   5.170  0.1468  0.2953 -0.0959
33111ION     NA48580   7.042   2.127  10.176  0.0644  0.1294  0.0303
33112ION     NA48581  15.813   3.576  10.785  0.0408 -0.0571 -0.1688
33113ION     NA48582  16.379  17.172  10.026  0.2457 -0.3778  0.2324
33114ION     NA48583   1.596  12.567  10.322  0.0305  0.0135 -0.2510
33115ION     NA48584  16.521   3.952   3.654  0.1054 -0.1924 -0.0271
33116ION     NA48585   7.583  14.323   5.432 -0.1212  0.3449  0.1578
33117ION     NA48586  10.937   6.471   6.094  0.2199 -0.1382  0.0517
33118ION     NA48587  14.865  16.295  10.275 -0.0844  0.0215 -0.0915
33119ION     NA48588   4.377   2.161  11.502 -0.2627  0.1607  0.0516
33120ION     NA48589  14.109  16.302   4.852 -0.3381 -0.0195 -0.2095
33121ION     NA48590   7.319  12.010  15.005  0.2470 -0.1040  0.2071
33122ION     NA48591   9.717   5.711  12.156  0.0046  0.2053  0.2342
33123ION     NA48592  10.761   7.946   4.336  0.1550 -0.0586 -0.0983
33124ION     NA48593  18.007   5.218  10.834 -0.2126  0.2306 -0.3992
33125ION     NA48594  11.080   8.543  10.022 -0.1503  0.0376 -0.0004
33126ION     NA48595   3.339  11.388  10.558  0.0221 -0.2101  0.1789
33127ION     NA48596  17.767  10.929  10.582 -0.3462 -0.2070  0.1666
33128ION     NA48597   9.118  15.632   5.303 -0.2206  0.4058 -0.0501
33129ION     NA48598   7.778  14.666   9.760  0.2089 -0.2652 -0.2628
33130ION     NA48599  14.026  16.082  11.470  0.0116 -0.0338  0.3717
33131ION     NA48600  15.726  11.738  10.224 -0.1271  0.2731  0.0146
33132ION     NA48601   4.726  16.270  11.266  0.4565 -0.0301 -0.1583
33133ION     NA48602  11.594  13.160   9.693 -0.2668  0.4009  0.1705
33134ION     NA48603  12.013  12.094   4.649  0.0280 -0.1903  0.0459
33135ION     NA48604  18.390   3.677   6.182  0.0502  0.1381  0.2621
33136ION     NA48605   3.429  17.100  13.303 -0.0636 -0.0380 -0.3424
33137ION     NA48606   9.106  11.051  13.988 -0.1116  0.0381 -0.1381
33138ION     NA48607  14.578   0.404  10.023 -0.0976 -0.0087 -0.0137
33139ION     NA48608   1.186  14.847   0.110  0.3899  0.0504 -0.2704
33140ION     NA48609  11.136   9.833   9.716  0.4939 -0.0189 -0.0038
33141ION     NA48610  13.474  14.840   0.400  0.0888 -0.0907  0.1632
33142ION     NA48611  13.908   2.424   3.672 -0.1796  0.0586  0.0591
33143ION     NA48612  17.189  13.322   9.898 -0.2469  0.1747  0.1042
33144ION     NA48613   3.212  17.726  10.292  0.0007  0.1201 -0.0578
33145ION     NA48614  14.017  10.903   0.243  0.0654 -0.0427  0.1587
33146ION     NA48615   3.984   5.807  10.264 -0.1629  0.1384 -0.0171
33147ION     NA48616   9.349   4.946  12.922 -0.0937 -0.1032 -0.0172
33148ION     NA48617  13.048   8.508   9.792 -0.1329  0.4291 -0.0550
33149ION     NA48618   5.607   8.192   5.860 -0.0775  0.2593  0.1122
33150ION     NA48619  12.390   4.314  10.676 -0.0592 -0.3895 -0.2028
33151ION     NA48620   5.159   6.697  13.794 -0.3458  0.0021  0.1322
33152ION     NA48621  15.856  18.205   3.937 -0.4564 -0.0051 -0.0884
33153ION     NA48622  14.512  15.881   3.619  0.2550 -0.0542  0.1756
33154ION     NA48623  15.344   4.411  10.666 -0.2061 -0.0505 -0.0821
33155ION     NA48624   1.096  10.581  15.765  0.1446  0.0237  0.1468
33156ION     NA48625   7.480  18.084   0.824 -0.0267 -0.0463 -0.0028
33157ION     NA48626  10.872   6.527  14.018 -0.1615  0.0889 -0.0979
33158ION     NA48627   4.829   6.251   3.138 -0.0221 -0.3583 -0.0135
33159ION     NA48628  10.920  16.861  14.550  0.2427 -0.0533 -0.1332
33160ION     NA48629   6.805   8.927   0.235  0.1251  0.2407  0.1906
33161ION     NA48630  11.433  13.503   5.343 -0.0840 -0.1171 -0.1291
33162ION     NA48631   6.333  18.017   9.773 -0.2391 -0.1970 -0.4032
33163ION     NA48632   3.198  12.270  13.516  0.2021  0.1485 -0.4002
33164ION     NA48633   5.124  12.886  10.107  0.0343 -0.2539 -0.0593
33165ION     NA48634   5.260  15.448   2.777  0.2304  0.2613  0.0676
33166ION     NA48635   4.432   2.683   3.533 -0.0446 -0.1593 -0.1587
33167ION     NA48636  17.425  12.216   1.066 -0.1889 -0.1573  0.0143
33168ION     NA48637   3.796   9.810  10.549  0.1788 -0.0437  0.0168
33169ION     NA48638  13.327   6.722  10.367 -0.0354  0.0112  0.0233
33170ION     NA48639  15.542  11.262  10.293 -0.0100 -0.4382 -0.3605
33171ION     NA48640  14.757   3.058  11.559 -0.3705 -0.0163  0.0699
33172ION     NA48641  10.942  13.718   9.846 -0.1601  0.1885  0.0839
33173ION     NA48642  16.155  17.668   9.952  0.0585  0.0556 -0.0888
33174ION     NA48643   2.173   5.510  15.601  0.1398 -0.1366  0.0901
33175ION     NA48644   9.764  12.787  10.013  0.2546  0.2854 -0.0390
33176ION     NA48645   2.054  16.380  10.455  0.0925 -0.2356  0.2230
33177ION     NA48646   0.419   4.557  10.786  0.1693 -0.2510 -0.2013
33178ION     NA48647  10.890   4.483  13.093  0.0869  0.0927 -0.0867
33179ION     NA48648  17.782  11.052  10.109  0.3796  0.3641  0.1004
33180ION     NA48649   0.773  14.709   9.980 -0.0236 -0.1281  0.0684
33181ION     NA48650  18.304  17.462  10.237  0.0251 -0.2891 -0.0164
33182ION     NA48651   0.932  16.371   5.453  0.1843  0.0076 -0.0041
33183ION     NA48652   8.533   5.073  10.178 -0.2655 -0.1035 -0.1646
33184ION     NA48653   0.114   4.924   3.878  0.3281 -0.4841 -0.3865
33185ION     NA48654  16.526   0.606  13.501  0.0066  0.0290 -0.0883
33186ION     NA48655  13.990  16.244   9.870 -0.0751 -0.1298 -0.0892
33187ION     NA48656   0.857  13.716   4.746 -0.0853  0.0613 -0.1779
33188ION     NA48657  16.559   9.552  12.070  0.0271 -0.0829 -0.1582
33189ION     NA48658  17.917   4.662  12.508 -0.1117 -0.2057 -0.0558
33190ION     NA48659   1.165   7.819  10.375 -0.2347 -0.2346 -0.0289
33191ION     NA48660   9.818  11.486  13.459  0.0014 -0.2928 -0.1972
33192ION     NA48661   7.996  11.598   5.186  0.0928  0.0051  0.2520
33193ION     NA48662   8.963   6.635  10.435  0.1611  0.0857  0.0706
33194ION     NA48663  17.449   5.124  14.975 -0.1282 -0.0588  0.0485
33195ION     NA48664   2.433  10.879  10.415 -0.1375  0.3172  0.1015
33196ION     NA48665   3.075   0.088  10.003  0.2515 -0.0758  0.3453
33197ION     NA48666   6.136   3.121   5.800 -0.0844 -0.1736  0.2096
33198ION     NA48667   3.120   0.145   5.684  0.0869  0.1999 -0.2730
33199ION     NA48668  12.820  13.997   9.881  0.0843 -0.1524  0.1723
33200ION     NA48669  13.237   5.661  10.791  0.0512 -0.1101 -0.2020
33201ION     NA48670  14.770   5.289   6.287  0.0734 -0.1677  0.2507
33202ION     NA48671   4.759   0.359  10.241 -0.3072  0.0574  0.2028
33203ION     NA48672   1.000   4.551   4.785 -0.2201 -0.0668  0.1565
33204ION     NA48673   3.865   4.984   3.278  0.1068  0.0391 -0.1933
33205ION     NA48674   4.792   4.550  10.075 -0.0760  0.3051  0.1258
33206ION     NA48675   0.991  11.526   5.734  0.0366 -0.0353  0.0500
33207ION     NA48676   9.587  12.384   0.452  0.0212  0.1802  0.2295
33208ION     NA48677   5.652  13.840   9.913 -0.0101  0.2084  0.2137
33209ION     NA48678  16.187   4.630  10.645  0.3887  0.1780  0.0859
33210ION     NA48679   9.774   9.328   9.887 -0.0713  0.0030  0.0757
33211ION     NA48680  11.172  10.721   9.845  0.0568 -0.1319 -0.1232
33212ION     NA48681   9.543  17.285   0.190  0.4412 -0.0646  0.1987
33213ION     NA48682   5.778   4.638  10.229  0.0343 -0.1495  0.1245
33214ION     NA48683   8.895  17.761   9.631  0.2664  0.2677  0.0087
33215ION     NA48684  18.449   6.562  10.559 -0.0273 -0.1721 -0.0633
33216ION     NA48685   8.352   2.026  14.946  0.0517  0.3802 -0.0697
33217ION     NA48686   5.331   8.383   4.976 -0.1138  0.0217  0.3208
33218ION     NA48687   5.614   5.665   3.165 -0.3083  0.1293 -0.1451
33219ION     NA48688   2.113   1.262  11.106 -0.0287  0.3654  0.0232
33220ION     NA48689   3.591   5.382   1.499 -0.0745  0.0798  0.1423
33221ION     NA48690   9.400   5.821  10.155 -0.1581  0.1137 -0.1496
33222ION     NA48691  11.459  17.601   5.471 -0.0414  0.2984 -0.1291
33223ION     NA48692  12.441  17.421  10.168  0.0649  0.1712 -0.1551
33224ION     NA48693   7.070   0.752   9.919 -0.0377 -0.1625  0.3803
33225ION     NA48694   9.175   6.587   3.712 -0.0778  0.0409 -0.0112
33226ION     NA48695  11.499   3.837  10.360  0.1297  0.3195  0.0304
33227ION     NA48696  17.368  17.239  10.124 -0.1263 -0.0995 -0.0268
33228ION     NA48697   6.901   5.499   5.687 -0.0352 -0.1555 -0.0811
33229ION     NA48698  12.096   7.356   9.997  0.2419 -0.2406  0.1232
33230ION     NA48699   0.361   1.564   3.506 -0.0115 -0.3789  0.2035
33231ION     NA48700   5.904  17.647  10.065 -0.0094 -0.1861 -0.1897
33232ION     NA48701  12.839  14.938   9.666 -0.0874 -0.0655 -0.0095
33233ION     NA48702   3.569   7.721  10.376 -0.0078 -0.3146  0.2682
33234ION     NA48703   5.840  17.873  12.384 -0.4210  0.5504 -0.0366
33235ION     NA48704   4.753  14.183   3.429  0.0904  0.0408  0.0656
33236ION     NA48705  17.218   7.157  10.638 -0.0378  0.0807 -0.0822
33237ION     NA48706  14.155   2.929   5.754 -0.1985  0.1001 -0.3155
33238ION     NA48707  15.834  14.364   9.858  0.0263 -0.0245 -0.0882
33239ION     NA48708   2.065   9.481   5.933  0.3702  0.0786 -0.0046
33240ION     NA48709   1.580  11.006   5.534  0.2452 -0.0387 -0.0014
33241ION     NA48710  10.525  13.847   0.401 -0.0819  0.0769 -0.0628
33242ION     NA48711   2.921  11.137   5.961 -0.1462  0.1136  0.0463
33243ION     NA48712  15.738  17.333   5.715  0.2849  0.0376 -0.1573
33244ION     NA48713  11.495   2.962   5.840  0.1297 -0.1284 -0.1430
33245ION     NA48714  17.404   8.974  10.346  0.2722 -0.2059  0.1462
33246ION     NA48715   8.787  11.966   9.849 -0.1022  0.0405 -0.1123
33247ION     NA48716  12.436  10.805   9.642 -0.2123 -0.0045 -0.5644
33248ION     NA48717  11.755  15.560  10.019  0.0597  0.0907  0.1608
33249ION     NA48718   6.952  17.648   5.144  0.2303 -0.0007  0.5184
33250ION     NA48719  16.172   6.621   6.315 -0.1349  0.1110  0.1402
33251ION     NA48720   1.344  13.012   5.838  0.0221 -0.0855 -0.0785
33252ION     NA48721  10.866  14.278   9.522 -0.1444  0.2394  0.1911
33253ION     NA48722  16.319   6.052   5.692 -0.0301  0.2925  0.1623
33254ION     NA48723   0.880   0.612  10.430 -0.0765  0.1672 -0.0815
33255ION     NA48724   5.660   4.258  11.172  0.0840  0.2199 -0.0843
33256ION     NA48725   3.195  10.511  10.313 -0.0002 -0.0351 -0.0622
33257ION     NA48726   7.427  16.503   0.911 -0.3760  0.1484 -0.1060
33258ION     NA48727   5.818   9.445   5.849  0.3637  0.2457  0.1619
33259ION     NA48728   3.164  14.563   0.461  0.1726 -0.1324 -0.0536
33260ION     NA48729  13.934  10.082   9.705 -0.2857  0.1100  0.0424
33261ION     NA48730   4.373   3.246   6.351 -0.1536 -0.0471 -0.0907
33262ION     NA48731   2.079   7.665  10.893  0.2789  0.0290 -0.1872
33263ION     NA48732   9.559  11.754   9.913 -0.1002 -0.1008 -0.2585
33264ION     NA48733   6.096  16.219  10.084  0.1765 -0.1955  0.1775
33265ION     NA48734   2.059   2.183  10.211 -0.1444  0.0117  0.1499
33266ION     NA48735  16.769  16.163  14.079 -0.0359 -0.1019 -0.0695
33267ION     NA48736   1.243   8.877  15.978 -0.0058 -0.1907  0.0903
33268ION     NA48737   4.101  10.766  10.637  0.3698 -0.0626 -0.1454
33269ION     NA48738   7.178   9.936  10.334 -0.0836  0.0250 -0.2312
33270ION     NA48739   6.696  16.766  12.029 -0.0527  0.0923  0.3957
33271ION     NA48740   3.040  16.103  10.477 -0.0439  0.1050  0.1675
33272ION     NA48741   0.450   9.859   5.862  0.0715 -0.1822  0.3047
33273ION     NA48742   2.815  14.452  10.222 -0.1710  0.1224  0.2161
33274ION     NA48743  17.954  14.577  10.686 -0.0164  0.2062 -0.1441
33275ION     NA48744   5.228   0.935   5.902 -0.2763 -0.0095  0.2293
33276ION     NA48745   8.876   2.344  10.270 -0.0018  0.0264 -0.1662
33277ION     NA48746   3.171   5.993  10.313  0.0298 -0.1815  0.1051
33278ION     NA48747  17.634  13.612  12.085 -0.0362 -0.2654  0.1767
33279ION     NA48748  14.353  11.750  12.322 -0.2329  0.4416 -0.0936
33280ION     NA48749  14.705  13.093   9.898  0.2169 -0.0984 -0.0761
33281ION     NA48750   9.658  10.229   9.825 -0.1843  0.1188  0.0934
33282ION     NA48751   7.165   0.740  14.412  0.1360 -0.1010  0.2595
33283ION     NA48752  14.537   7.371  13.104 -0.2101  0.0783  0.2807
33284ION     NA48753   7.746  15.015  13.531 -0.3220  0.4001  0.0193
33285ION     NA48754  17.579  13.387  15.108  0.0968 -0.0421  0.0309
33286ION     NA48755   8.760   4.358  11.424 -0.4177  0.0008 -0.0260
33287ION     NA48756  16.779   5.613  12.668  0.1679 -0.2304 -0.3261
33288ION     NA48757   9.271  18.260   9.965  0.2180  0.0348  0.2946
33289ION     NA48758   3.860   3.127   6.297 -0.2258 -0.0591  0.0216
33290ION     NA48759   6.021   6.102  10.259  0.1924 -0.1161 -0.0236
33291ION     NA48760  15.891   7.589  11.201 -0.0013 -0.0348  0.0491
33292ION     NA48761   1.296  10.329  11.396 -0.1537 -0.1071  0.0025
33293ION     NA48762   0.226  10.040  10.122  0.0202  0.1208 -0.2045
33294ION     NA48763   0.178  11.080  10.125 -0.2700 -0.0072 -0.0864
33295ION     NA48764   7.109  16.624   3.428  0.4622 -0.3382  0.2142
33296ION     NA48765   1.254   5.207  15.207 -0.0812  0.3154 -0.1862
33297ION     NA48766   8.448   6.177   9.946  0.1016  0.0591  0.1528
33298ION     NA48767   4.195   1.611  14.929  0.0829  0.2651  0.2360
33299ION     NA48768  13.003  13.159   9.938 -0.1103  0.1672  0.0013
33300ION     NA48769  11.816  12.017   9.796  0.2907  0.3349 -0.1905
33301ION     NA48770   0.650   4.938  14.770  0.0717  0.1624 -0.1031
33302ION     NA48771  12.530   2.166   2.505  0.3626 -0.0739  0.1223
33303ION     NA48772   1.122   8.246   3.731 -0.3805  0.2349 -0.1782
33304ION     NA48773   4.606  17.940   9.990  0.0293 -0.2380  0.1337
33305ION     NA48774   1.445  15.590  10.095 -0.0951 -0.1802 -0.1100
33306ION     NA48775   9.247   9.950   1.453 -0.2828 -0.1425 -0.5201
33307ION     NA48776   5.693  17.061   3.580  0.0334 -0.1554 -0.1330
33308ION     NA48777  12.634   9.483   9.786  0.1204  0.0962 -0.0942
33309ION     NA48778   6.852  14.970   9.669  0.2511 -0.2457  0.2281
33310ION     NA48779  16.352   0.725  12.339  0.0200  0.1466  0.3059
33311ION     NA48780  17.139   0.409   2.065  0.0273 -0.0791 -0.3080
33312ION     NA48781  12.817  18.300  10.025  0.3236  0.1222  0.0297
33313ION     NA48782  10.381  17.926   9.808  0.1141 -0.0026 -0.1289
33314ION     NA48783  15.269   5.175  10.315 -0.1325  0.2309  0.0113
33315ION     NA48784  13.053   7.911   1.122 -0.0017 -0.2296 -0.0248
33316ION     NA48785  17.260   4.296  12.839 -0.1305  0.1537 -0.0341
33317ION     NA48786   1.692   1.900  13.940  0.1589  0.0288  0.0569
33318ION     NA48787  16.991   0.223   5.822 -0.0650 -0.1995  0.0460
33319ION     NA48788  14.701   4.366   2.455 -0.0786 -0.0076  0.3722
33320ION     NA48789   9.705   8.179  10.016 -0.0210 -0.1373  0.2409
33321ION     NA48790  15.311  10.300   2.684  0.1056 -0.2027 -0.0098
33322ION     NA48791  16.207   7.473   5.707 -0.0737 -0.0166  0.0788
33323ION     NA48792  10.781   3.619  10.265 -0.1367 -0.1835  0.1154
33324ION     NA48793   6.757   2.857  11.911 -0.3198 -0.0724  0.2365
33325ION     NA48794   0.464   6.973   1.747  0.1466 -0.1586  0.2134
33326ION     NA48795   5.228  13.913   2.521  0.0067 -0.0296  0.2693
33327ION     NA48796  13.477   9.281   9.836 -0.1612  0.3558 -0.3062
33328ION     NA48797   1.361  15.761   3.742 -0.3486  0.0501  0.2050
33329ION     NA48798   8.894   0.639   9.970  0.0459  0.0390  0.2079
33330ION     NA48799   6.604   0.579  11.155  0.1290 -0.0070  0.0163
33331ION     NA48800  14.373   5.333  10.421 -0.3029  0.0938 -0.0710
33332ION     NA48801   0.470   9.218  10.294 -0.1543 -0.3428 -0.3574
33333ION     NA48802  12.716   1.483   5.919 -0.1544 -0.1882 -0.1760
33334ION     NA48803   6.593   6.270  12.989 -0.1222  0.0663 -0.1075
33335ION     NA48804   6.607  12.331   3.585 -0.1029 -0.3580  0.1976
33336ION     NA48805   7.596   5.652  10.305  0.1332 -0.0148 -0.1749
33337ION     NA48806  15.602  12.714  10.188  0.2190 -0.2116  0.2811
33338ION     NA48807   4.262  11.571  10.175 -0.1506 -0.2607  0.2698
33339ION     NA48808  16.955   2.104  10.387  0.1407  0.0231 -0.1060
33340ION     NA48809  10.575  13.623   2.493 -0.3700 -0.0148  0.2128
33341ION     NA48810  12.019  14.601   9.970  0.0659  0.4705  0.2330
33342ION     NA48811  13.954   3.442   3.890  0.2021 -0.0742 -0.1914
33343ION     NA48812  12.563   2.035  12.717 -0.2288 -0.3166  0.2442
33344ION     NA48813  13.136   4.243   3.503 -0.0984  0.1316  0.1777
33345ION     NA48814  14.049   1.660  10.414  0.0506 -0.0958  0.0890
33346ION     NA48815   0.412  14.479   5.616  0.1251 -0.1884 -0.0205
33347ION     NA48816  12.813   2.206  10.421 -0.1186 -0.2171  0.1179
33348ION     NA48817  12.755  15.750   1.116 -0.1352  0.2079  0.1314
33349ION     NA48818   7.399   6.172  10.953 -0.0029  0.1781  0.0107
33350ION     NA48819  18.181  11.904  10.315  0.0684  0.5411  0.1370
33351ION     NA48820  15.038  16.152  14.254  0.2878 -0.1994 -0.0984
33352ION     NA48821   1.329   7.618   6.152 -0.1757 -0.0338 -0.2067
33353ION     NA48822   5.528  12.157   5.828  0.1582  0.2811  0.0581
33354ION     NA48823  16.125  13.453  10.013 -0.1004  0.1450  0.2910
33355ION     NA48824  15.315  15.472  10.099  0.1140 -0.1641 -0.1362
33356ION     NA48825   7.825   6.536  10.228 -0.0579 -0.1701 -0.2002
33357ION     NA48826  10.597   3.244  10.091  0.1003 -0.0395  0.3527
33358ION     NA48827   6.206   1.939  10.174 -0.3149 -0.1803 -0.3527
33359ION     NA48828  17.932   2.545  10.569  0.0102  0.1329 -0.0659
33360ION     NA48829   5.200  10.757   6.020 -0.1548  0.1978 -0.2765
33361ION     NA48830   1.236   4.329  14.540  0.0648  0.0372 -0.0030
33362ION     NA48831  14.532   7.249   2.826  0.1170 -0.0535  0.1273
33363ION     NA48832  17.885  15.254   0.851  0.3134  0.2359  0.1731
33364ION     NA48833   0.483  17.469  10.748  0.0639 -0.2457  0.0974
33365ION     NA48834  17.910   7.725   2.669 -0.2389 -0.0832 -0.0035
33366ION     NA48835  15.687   7.989   0.007 -0.0426 -0.0623  0.0185
33367ION     NA48836  11.796   9.957   9.866  0.2267 -0.0113 -0.4864
33368ION     NA48837  16.348   6.043   2.421 -0.2416 -0.0745  0.2967
33369ION     NA48838  13.612  15.387  10.004  0.0986 -0.1182  0.0654
33370ION     NA48839   3.803   4.308  10.243 -0.3219 -0.1697  0.1092
33371ION     NA48840  13.211   1.895  10.495  0.0925  0.1938 -0.4349
33372ION     NA48841   6.204  12.517   5.202  0.2419  0.2501 -0.0017
33373ION     NA48842  12.202   7.363   0.541 -0.1478  0.0432 -0.1345
33374ION     NA48843  17.833   6.447   2.085 -0.2870 -0.1693 -0.1349
33375ION     NA48844   7.977  18.015   9.523 -0.4046 -0.2699  0.3412
33376ION     NA48845   1.535   9.725  10.028  0.1979 -0.2047  0.0710
33377ION     NA48846   0.482   5.033  11.680  0.0723 -0.0324  0.2012
33378ION     NA48847  16.920  13.945  10.970  0.2155 -0.0456  0.0675
33379ION     NA48848   2.316  15.310  10.143  0.0840 -0.1750 -0.1967
33380ION     NA48849  11.535   6.469  10.020  0.1034 -0.1403  0.2600
33381ION     NA48850   5.451   3.780  10.014  0.1686  0.1738  0.0287
33382ION     NA48851   6.184   3.243  10.230 -0.1251 -0.2086  0.0847
33383ION     NA48852   2.833   1.802  10.305 -0.0527  0.3442  0.0148
33384ION     NA48853  16.222   1.645  10.017  0.0185  0.1185 -0.0186
33385ION     NA48854   7.671  12.342   9.688 -0.2974 -0.0143 -0.1554
33386ION     NA48855  13.613   3.920  10.978  0.0109 -0.0316 -0.0885
33387ION     NA48856   1.613  14.682  10.448 -0.0896 -0.0046 -0.0631
33388ION     NA48857   3.256  10.368   3.100  0.1092 -0.3598  0.3736
33389ION     NA48858   9.277  15.639  10.581  0.0044  0.0943  0.0082
33390ION     NA48859  15.845  10.253   5.045  0.2684 -0.0755 -0.3037
33391ION     NA48860  15.702   1.067  12.531 -0.0167  0.2002  0.2442
33392ION     NA48861  13.437  16.362  10.046  0.1437 -0.1647 -0.0556
33393ION     NA48862   0.517  13.845   9.993 -0.2066  0.2684 -0.1104
33394ION     NA48863   7.551   6.171   5.745 -0.1944  0.4345  0.1973
33395ION     NA48864  10.641   9.818   9.806  0.0146  0.0351 -0.2368
33396ION     NA48865  12.537   0.610  10.635  0.5301 -0.0891  0.2271
33397ION     NA48866   1.443  10.521  10.031  0.1124  0.0109  0.2557
33398ION     NA48867   3.307   7.366   4.362 -0.2085 -0.2193  0.2269
33399ION     NA48868  15.050   9.230   5.375 -0.1371  0.3023  0.0052
33400ION     NA48869  10.613  17.443  10.947  0.2266  0.0474  0.0790
33401ION     NA48870   8.159  12.893  10.150  0.0063 -0.0505  0.0860
33402ION     NA48871   4.354  16.692  10.729 -0.2111  0.0692  0.1229
33403ION     NA48872  14.842  11.839  10.275 -0.0473  0.1301  0.2633
33404ION     NA48873  11.005  17.642  10.019 -0.0014  0.0217 -0.2355
33405ION     NA48874  11.642  14.511   5.723  0.3535  0.1075 -0.3234
33406ION     NA48875  17.207   4.658  10.843 -0.1887  0.1642 -0.2200
33407ION     NA48876   9.227   3.149  10.300  0.2158  0.0025 -0.0371
33408ION     NA48877   3.332   1.066  14.683 -0.2259 -0.0023  0.0527
33409ION     NA48878   3.679  16.655   5.743  0.2942  0.0756 -0.0656
33410ION     NA48879   5.194  14.251  14.781 -0.2981  0.1251  0.0320
33411ION     NA48880   8.650   3.776   3.056 -0.3892  0.1921  0.1131
33412ION     NA48881  17.013  10.249   2.315  0.0386  0.0803 -0.0413
33413ION     NA48882   4.727   3.400  10.288 -0.1979 -0.0013  0.2802
33414ION     NA48883   8.064   9.450  10.185  0.3749 -0.0319  0.2667
33415ION     NA48884  14.254   4.543  13.596 -0.0611  0.0974 -0.2038
33416ION     NA48885   6.342  11.615   5.894 -0.0969  0.2534  0.0175
33417ION     NA48886   2.614   0.968  10.299  0.1992 -0.0935  0.2316
33418ION     NA48887   1.344   3.459  10.688  0.3131  0.0627  0.0660
33419ION     NA48888   2.445  11.484  10.962 -0.3361  0.0044  0.2316
33420ION     NA48889  15.278  13.773   9.993 -0.0196  0.0151 -0.1509
33421ION     NA48890   0.487  15.952  10.074  0.1358  0.3010  0.0115
33422ION     NA48891  11.167   2.323   6.051  0.1510  0.1539  0.0665
33423ION     NA48892   1.705   9.558   0.516 -0.1347  0.0369 -0.0435
33424ION     NA48893   3.092   6.863  10.517 -0.3604 -0.0173  0.0781
33425ION     NA48894   0.674   4.011  10.519  0.1598 -0.0837  0.0278
33426ION     NA48895   3.117  10.270   5.905 -0.1790  0.0207  0.0461
33427ION     NA48896   5.522  16.695   9.600  0.1212  0.0898 -0.1301
33428ION     NA48897  12.596  11.918   9.946  0.0084  0.1552 -0.2582
33429ION     NA48898   1.247  13.934   5.427  0.2319 -0.0256 -0.2280
33430ION     NA48899   9.602  13.910  10.343 -0.0981 -0.0636  0.0416
33431ION     NA48900   1.483  17.021  10.371 -0.2116 -0.0999 -0.0338
33432ION     NA48901  16.081   0.167   5.258 -0.0154  0.0865  0.1087
33433ION     NA48902  14.008   1.106  10.348  0.2718  0.0091  0.2560
33434ION     NA48903   6.129   1.041  10.007  0.0225 -0.1810  0.1748
33435ION     NA48904   2.215   3.676  13.495  0.0027 -0.1098 -0.0333
33436ION     NA48905  11.157   9.053  10.302  0.0449 -0.2358 -0.3084
33437ION     NA48906   4.317   8.796   2.832  0.0717 -0.0655  0.0827
33438ION     NA48907  13.162   4.734  10.444  0.1938 -0.1756 -0.2458
33439ION     NA48908  15.900  10.237  10.148  0.1455 -0.2051 -0.0182
33440ION     NA48909   8.116   7.526   0.627  0.2262 -0.1176 -0.2637
33441ION     NA48910   5.527   2.359   9.959  0.0377 -0.0038  0.0419
33442ION     NA48911   3.816   1.553  10.736 -0.1455  0.1878 -0.0417
33443ION     NA48912   2.475  12.695  10.765  0.1289  0.2216  0.2353
33444ION     NA48913   4.832  17.031   9.871 -0.0439 -0.1955 -0.0578
33445ION     NA48914  17.016  15.309   9.841 -0.0644 -0.0104 -0.1756
33446ION     NA48915   1.445  15.946  13.290  0.0664  0.1475 -0.2335
33447ION     NA48916   0.385  12.698   5.465 -0.0194  0.0374 -0.0316
33448ION     NA48917  12.506  16.491  10.205  0.1286  0.3088  0.0985
33449ION     NA48918   5.769  15.220  10.180 -0.1576 -0.1224  0.3073
33450ION     NA48919   2.165   4.661  10.663 -0.0370  0.2560  0.2055
33451ION     NA48920   4.516  14.739   0.784  0.0821  0.1894  0.0818
33452ION     NA48921   1.345   5.839  11.190  0.1836  0.0353  0.0886
33453ION     NA48922   7.729  13.956   9.578  0.1345  0.0929 -0.0902
33454ION     NA48923  14.492   8.216  10.283  0.0940  0.1570 -0.1774
33455ION     NA48924  17.641   8.033  10.423 -0.2862 -0.0827 -0.0422
33456ION     NA48925   5.988   8.513  15.824 -0.0224  0.2678 -0.0734
33457ION     NA48926  12.965  17.969   1.553 -0.0682 -0.2096 -0.1258
33458ION     NA48927  14.346  13.725  10.069 -0.2011  0.0342  0.1697
33459ION     NA48928   3.496  11.188   0.165 -0.1170 -0.0368  0.1909
33460ION     NA48929  14.100  14.593   9.985  0.1593  0.2689  0.0239
33461ION     NA48930  14.954  18.213   9.949 -0.1084  0.2347 -0.2571
33462ION     NA48931  10.011   1.868  11.569 -0.2688  0.1475 -0.1242
33463ION     NA48932  17.940  16.939  15.404  0.2445 -0.1026 -0.1192
33464ION     NA48933  16.884  16.214   9.937 -0.1240 -0.1840  0.0478
33465ION     NA48934  11.748   6.855   5.882 -0.3899 -0.1102 -0.1227
33466ION     NA48935   5.637  18.020   2.732 -0.0404  0.1754 -0.2790
33467ION     NA48936   5.187   6.429  10.367  0.0705 -0.0746  0.1246
33468ION     NA48937   8.735   7.501  15.795  0.1277 -0.0280 -0.0576
33469ION     NA48938  14.779  17.689   6.027  0.0262  0.0440 -0.0274
33470ION     NA48939  17.980  16.726   9.932  0.0088  0.3813 -0.3765
33471ION     NA48940  10.147  14.953  11.155  0.0417 -0.0160 -0.1154
33472ION     NA48941  11.843  18.140  10.502  0.3985  0.0498 -0.0343
33473ION     NA48942  13.599   0.371  10.137  0.0206 -0.0245 -0.0500
33474ION     NA48943   4.884   9.670  10.505 -0.1367  0.0808 -0.1683
33475ION     NA48944  14.730   7.861  10.564  0.1123 -0.1869  0.0389
33476ION     NA48945   3.503  14.813  12.491 -0.1735  0.0659 -0.1007
33477ION     NA48946  10.578   0.164   0.299 -0.0843 -0.1086 -0.1258
33478ION     NA48947   2.165   7.344  10.438 -0.0663 -0.0399 -0.0829
33479ION     NA48948  14.003   7.425  14.253 -0.2443 -0.1506 -0.0468
33480ION     NA48949   9.400  14.660   9.739 -0.0853  0.1286 -0.2142
33481ION     NA48950   4.720   7.477   3.827  0.2796  0.2049 -0.0072
33482ION     NA48951  17.319  14.386  13.921  0.0805  0.0921 -0.1861
33483ION     NA48952   9.006   4.064   5.877  0.2893 -0.1590 -0.2781
33484ION     NA48953   7.093  10.183   3.057  0.3079 -0.3238  0.0684
33485ION     NA48954  14.557  15.444  10.003  0.0767  0.0497  0.0574
33486ION     NA48955  11.820   0.756   5.975  0.0672  0.1482 -0.1364
33487ION     NA48956  10.053  13.628  14.189  0.0289 -0.1117 -0.3008
33488ION     NA48957  17.025   6.667   0.240 -0.3064 -0.1279  0.1882
33489ION     NA48958  10.616  17.798   4.538 -0.3419  0.0218 -0.3292
33490ION     NA48959  10.928   8.772   5.611 -0.0758 -0.0369 -0.1675
33491ION     NA48960   3.347   7.065   6.248 -0.2411 -0.2706  0.0612
33492ION     NA48961   0.316   1.846  10.540 -0.2562  0.1824 -0.0597
33493ION     NA48962   7.027   6.241  10.335 -0.3354  0.0900  0.6889
33494ION     NA48963   2.744   4.868  12.639  0.1341 -0.1851 -0.0043
33495ION     NA48964   6.817  10.849  10.120  0.0698 -0.3696  0.0328
33496ION     NA48965  18.072   9.541  10.320  0.1149 -0.1054  0.1271
33497ION     NA48966   6.210   9.413   6.323  0.1989 -0.1081  0.2267
33498ION     NA48967  10.709  10.152  11.753 -0.0102 -0.1497 -0.2200
33499ION     NA48968   1.728   1.810   5.885  0.1286  0.0938  0.0397
33500ION     NA48969   8.871   9.526  10.185 -0.0263 -0.1524  0.1347
33501ION     NA48970  10.800  12.431   4.041 -0.0288  0.0376  0.0180
33502ION     NA48971   8.052  13.450   1.933 -0.0679 -0.0223 -0.2134
33503ION     NA48972  12.466  16.475   5.526  0.2625  0.1895  0.1638
33504ION     NA48973   9.323   5.732   5.907 -0.0164  0.0787 -0.3073
33505ION     NA48974  17.719  17.632  10.360  0.2654 -0.0489 -0.2724
33506ION     NA48975   6.499  10.518  10.293  0.1679  0.2080 -0.2067
33507ION     NA48976   1.787   2.510   4.440 -0.4077 -0.1933 -0.0338
33508ION     NA48977  12.920  15.311   2.710  0.1841  0.0150  0.0122
33509ION     NA48978  17.967   7.061  15.000 -0.0539 -0.1890 -0.3135
33510ION     NA48979   4.859  16.510   5.519  0.0205 -0.1046 -0.3107
33511ION     NA48980  12.933  11.482   9.963 -0.0558  0.0207 -0.0666
33512ION     NA48981  14.058  15.864  14.912 -0.0270  0.0585  0.3298
33513ION     NA48982   5.424  17.573   9.579 -0.0932 -0.2129 -0.2976
33514ION     NA48983   9.470  17.226   9.976  0.0312  0.0365 -0.1931
33515ION     NA48984   3.587  14.325  10.909  0.0701  0.0483  0.1737
33516ION     NA48985   5.691  11.557  10.597 -0.1065 -0.0161 -0.1699
33517ION     NA48986   6.595   3.910   4.907  0.1735  0.1118  0.0406
33518ION     NA48987   5.510   9.065  10.384  0.0408 -0.2762  0.6389
33519ION     NA48988   9.006  11.093   9.896  0.2634 -0.3360 -0.3125
33520ION     NA48989  10.629   2.251  10.407  0.1539 -0.1464 -0.0287
33521ION     NA48990   1.116   5.592  10.426  0.0311 -0.2728  0.1182
33522ION     NA48991  12.616  15.972  10.073 -0.0692 -0.2983  0.2125
33523ION     NA48992   8.697  12.826   1.597  0.2042  0.0080 -0.1202
33524ION     NA48993   8.530   1.497  10.212  0.1174  0.3386  0.0624
33525ION     NA48994   6.890  13.449   9.776  0.0521  0.1523  0.0455
33526ION     NA48995   6.460   5.133  10.224  0.3083 -0.0923  0.5962
33527ION     NA48996  13.050  10.585  10.769  0.0394 -0.2126 -0.0816
33528ION     NA48997  10.232  14.961   9.914 -0.0792 -0.0658  0.1450
33529ION     NA48998  14.617  14.996   5.628  0.1430 -0.1786 -0.3973
33530ION     NA48999  16.957   8.089   5.984 -0.2191  0.2290 -0.1624
33531ION     NA49000   1.707   8.482  10.153 -0.0584 -0.1873 -0.0412
33532ION     NA49001   7.872  16.528   9.846  0.1040 -0.2616  0.1705
33533ION     NA49002   8.690  14.501   3.714  0.0725 -0.0296 -0.0324
33534ION     NA49003   7.890  16.195   5.515 -0.1291 -0.0130  0.0797
33535ION     NA49004  18.408   8.243  12.343  0.1896 -0.0683 -0.1356
33536ION     NA49005  13.399  10.806   9.698 -0.1367 -0.1112  0.0156
33537ION     NA49006  18.389   5.444   5.871  0.1074  0.0534 -0.1607
33538ION     NA49007   7.892  13.328   5.347 -0.2669  0.1419 -0.0245
33539ION     NA49008  11.844   0.810   3.709 -0.0170  0.1270 -0.1427
33540ION     NA49009   8.051   4.725   1.479 -0.3283 -0.1091  0.4690
33541ION     NA49010  10.101  16.566   9.898 -0.6463  0.0394  0.2780
33542ION     NA49011   1.197  13.313  10.023  0.0786 -0.1516 -0.0358
33543ION     NA49012  10.167  17.547   1.402  0.0593  0.0728 -0.0140
33544ION     NA49013   1.858   8.984  10.158  0.0558 -0.0669 -0.0492
33545ION     NA49014  16.980  15.192  14.169 -0.0247 -0.0373 -0.1699
33546ION     NA49015   6.337  14.510   5.648 -0.1938  0.0859  0.0393
33547ION     NA49016   3.001   4.457  10.190 -0.2366  0.0006 -0.2550
33548ION     NA49017   9.976  11.563   9.696 -0.1768 -0.1830 -0.0383
33549ION     NA49018   5.496  17.866   5.926 -0.1274 -0.2418 -0.0869
33550ION     NA49019   8.646   3.402  15.392 -0.1851 -0.0247  0.2806
33551ION     NA49020   1.784  11.895   4.571  0.1783 -0.2525 -0.0088
33552ION     NA49021   9.131  14.341  13.760  0.0724 -0.1942  0.2356
33553ION     NA49022   2.193  17.968  10.040 -0.2182 -0.0623  0.1187
33554ION     NA49023  14.257  10.907  10.049  0.1255 -0.1659  0.1302
33555ION     NA49024  14.353   2.100   6.206  0.3714 -0.0998  0.3224
33556ION     NA49025  14.855  11.238  13.481  0.3323 -0.1749  0.0235
33557ION     NA49026  10.845  14.219  10.005  0.1291 -0.0821 -0.2553
33558ION     NA49027   3.526  14.575   1.406  0.0627  0.0788 -0.1800
33559ION     NA49028   4.997  13.753  10.493  0.0831 -0.1228  0.4447
33560ION     NA49029  11.171  16.636  10.105 -0.2082 -0.0769  0.4309
33561ION     NA49030   9.891  10.962   4.463 -0.1242 -0.1340  0.0938
33562ION     NA49031   2.243  17.249  10.365 -0.1771  0.2083  0.0277
33563ION     NA49032   0.289   2.768   6.218  0.1846  0.0807 -0.0511
33564ION     NA49033   8.298   5.822   6.138 -0.0449  0.0840  0.2357
33565ION     NA49034  11.251   7.623   9.984 -0.1463  0.0370  0.0468
33566ION     NA49035   6.464   4.765   6.100  0.0335  0.1416  0.2007
33567ION     NA49036   5.897   7.637   4.499  0.1498  0.2843  0.1621
33568ION     NA49037  11.125  15.971   5.443  0.2453  0.0051  0.0632
33569ION     NA49038  13.728  17.308  10.020  0.3815 -0.2698 -0.4481
33570ION     NA49039  10.563  16.023  12.911 -0.0003 -0.2934 -0.0680
33571ION     NA49040   4.931   1.786  13.537 -0.3295 -0.0505 -0.2709
33572ION     NA49041   0.465  13.083  11.528  0.0719 -0.2813  0.0956
33573ION     NA49042   7.817  12.713   2.535 -0.2302  0.1197  0.0996
33574ION     NA49043  18.346   3.736  10.765 -0.1195 -0.2165 -0.2142
33575ION     NA49044   1.133   2.841   3.617  0.1319 -0.1937  0.3000
33576ION     NA49045  13.860  13.421  10.074 -0.4633 -0.1705  0.0473
33577ION     NA49046   1.170   2.306  10.306 -0.2512 -0.2198 -0.1521
33578ION     NA49047   7.908   2.182  10.261  0.2099  0.0771 -0.3006
33579ION     NA49048   5.417   1.528  10.024  0.0968  0.0371 -0.0218
33580ION     NA49049  12.037   2.578   6.416  0.1750  0.3628 -0.2758
33581ION     NA49050   6.073   8.535  10.766  0.1274 -0.2118  0.0179
33582ION     NA49051  13.693   2.537  10.492 -0.3067 -0.2327  0.0671
33583ION     NA49052  14.761  12.336  10.212 -0.0045  0.0125  0.1091
33584ION     NA49053   9.099  12.841   5.530 -0.1251 -0.0786  0.2743
33585ION     NA49054   3.599   3.797  10.979  0.0268  0.0024  0.1723
33586ION     NA49055  15.882   2.487  10.269 -0.1223  0.0502 -0.2407
33587ION     NA49056  17.790  15.665  10.011 -0.2956  0.0991  0.0960
33588ION     NA49057   1.392   4.289  10.490  0.0292  0.0037  0.4427
33589ION     NA49058   9.187   7.517  10.185 -0.0968 -0.1143 -0.2490
33590ION     NA49059  14.004  14.455   2.981  0.2656  0.2225  0.0294
33591ION     NA49060   1.605  12.341   5.918  0.0824 -0.0120 -0.1921
33592ION     NA49061  14.889   1.217  10.312  0.0129  0.0379 -0.0225
33593ION     NA49062   1.571  18.388  10.361 -0.0725  0.4273  0.1294
33594ION     NA49063  13.496  17.161  14.339  0.0854  0.0252  0.1362
33595ION     NA49064   9.283   1.353  10.065 -0.2118  0.0809  0.1600
33596ION     NA49065   6.010   9.874  12.786 -0.3137  0.3690  0.0673
33597ION     NA49066  13.931  12.265   5.517 -0.3040 -0.1322  0.0994
33598ION     NA49067  18.129  14.297   9.811  0.0054 -0.3383 -0.0010
33599ION     NA49068   2.108  15.376   1.084  0.0409 -0.2885 -0.0094
33600ION     NA49069  14.424   2.553   0.369 -0.1581  0.1922 -0.2736
33601ION     NA49070   1.064  11.364  10.343  0.3543  0.1015  0.0758
33602ION     NA49071  16.478   3.529  10.593  0.0318 -0.1862 -0.2610
33603ION     NA49072  13.471  14.268  15.059 -0.3171  0.1995 -0.0721
33604ION     NA49073  11.976   4.714  10.692 -0.2945 -0.0437 -0.1090
33605ION     NA49074  13.717   8.059  10.365  0.0180 -0.1115 -0.1657
  18.46296  18.46296  16.02956
